                               Psi4 1.4a3.dev225

  ==> Input File <==

--------------------------------------------------------------------------
#psi4
#
memory 32 gb

molecule  {
-3 1
  P       -1.1253500     0.3591720     0.0081310
  P        2.0878660    -0.1053470     0.0007630
  O       -2.1391380    -1.0979190    -0.1147190
  O        0.2405970    -0.4148950    -0.1339660
  O       -1.5628960     1.1822930    -1.2021870
  O       -1.4752280     0.9069340     1.3887990
  O        2.4385690    -0.8874190     1.2758270
  O        2.1989840     1.4211450     0.0869110
  O        2.5739051    -0.7562555    -1.3278593
  C       -3.4907010    -0.7724380    -0.0147870
  H       -3.7335280    -0.2943150     0.9495100
  H       -3.8114220    -0.0788120    -0.8111520
  H       -4.0969940    -1.6975630    -0.1019980
units angstrom
no_reorient  #important for SAPT in psi4, default
symmetry c1  #important for SAPT in psi4, default
}

set PROPERTIES_ORIGIN ["COM"]
properties('MP2/aug-cc-pvtz', properties = ['dipole'])
--------------------------------------------------------------------------

    Molecular point group: c1
  Charge       = -3
  Multiplicity = 1
  Basis Set: AUG-CC-PVTZ
    Blend: AUG-CC-PVTZ
  Basis Set: (AUG-CC-PVTZ AUX)
    Blend: AUG-CC-PVTZ-JKFIT

    Orbital Energies [Eh]
    ---------------------

    Doubly Occupied:

       1A    -79.629593     2A    -79.589429     3A    -20.145771
       4A    -20.089665     5A    -20.056334     6A    -20.056076
       7A    -20.024511     8A    -20.023763     9A    -20.023647
      10A    -10.911412    11A     -7.142500    12A     -7.102118
      13A     -5.041947    14A     -5.040111    15A     -5.039276
      16A     -5.001861    17A     -4.998850    18A     -4.998703
      19A     -0.956238    20A     -0.887449    21A     -0.846630
      22A     -0.816192    23A     -0.801878    24A     -0.764761
      25A     -0.758407    26A     -0.542982    27A     -0.335081
      28A     -0.269010    29A     -0.246467    30A     -0.212672
      31A     -0.205153    32A     -0.157058    33A     -0.143674
      34A     -0.117930    35A     -0.098482    36A     -0.097025
      37A     -0.079305    38A     -0.053762    39A     -0.049227
      40A     -0.030658    41A     -0.014308    42A     -0.001417
      43A      0.001965    44A      0.003913    45A      0.008367
      46A      0.021681    47A      0.042290    48A      0.048202
      49A      0.070074

  @DF-RHF Final Energy: -1245.33948744907866

   => Energetics <=

    Nuclear Repulsion Energy =            796.0900254581248419
    One-Electron Energy =               -3356.4493425946011484
    Two-Electron Energy =                1315.0198296873977597
    Total Energy =                      -1245.3394874490786606
  Basis Set: (AUG-CC-PVTZ AUX)
    Blend: AUG-CC-PVTZ-RI
    Molecular point group: c1

    Geometry (in Angstrom), charge = -3, multiplicity = 1:

       Center              X                  Y                   Z               Mass
    ------------   -----------------  -----------------  -----------------  -----------------
         P           -1.191914594211     0.347707222755     0.009720375771    30.973761998420
         P            2.021301405789    -0.116811777245     0.002352375771    30.973761998420
         O           -2.205702594211    -1.109383777245    -0.113129624229    15.994914619570
         O            0.174032405789    -0.426359777245    -0.132376624229    15.994914619570
         O           -1.629460594211     1.170828222755    -1.200597624229    15.994914619570
         O           -1.541792594211     0.895469222755     1.390388375771    15.994914619570
         O            2.372004405789    -0.898883777245     1.277416375771    15.994914619570
         O            2.132419405789     1.409680222755     0.088500375771    15.994914619570
         O            2.507340505789    -0.767720277245    -1.326269924229    15.994914619570
         C           -3.557265594211    -0.783902777245    -0.013197624229    12.000000000000
         H           -3.800092594211    -0.305779777245     0.951099375771     1.007825032230
         H           -3.877986594211    -0.090276777245    -0.809562624229     1.007825032230
         H           -4.163558594211    -1.709027777245    -0.100408624229     1.007825032230

  Basis Set: AUG-CC-PVTZ
    Blend: AUG-CC-PVTZ
  Basis Set: (AUG-CC-PVTZ AUX)
    Blend: AUG-CC-PVTZ-JKFIT
	 Reference Energy          =   -1245.3394874490786606 [Eh]
	 Singles Energy            =      -0.0000000000000000 [Eh]
	 Same-Spin Energy          =      -0.6478607422584630 [Eh]
	 Opposite-Spin Energy      =      -1.8111432862792012 [Eh]
	 Correlation Energy        =      -2.4590040285376640 [Eh]
	 Total Energy              =   -1247.7984914776163805 [Eh]

	 ================> DF-SCS-MP2 Energies <==================
	-----------------------------------------------------------
	 SCS Same-Spin Scale       =       0.3333333333333333 [-]
	 SCS Opposite-Spin Scale   =       1.2000000000000000 [-]
	 SCS Same-Spin Energy      =      -0.2159535807528210 [Eh]
	 SCS Opposite-Spin Energy  =      -2.1733719435350412 [Eh]
	 SCS Correlation Energy    =      -2.3893255242878619 [Eh]
	 SCS Total Energy          =   -1247.7288129733665301 [Eh]
	-----------------------------------------------------------

  Dipole Moment: [D]
     X:    -7.7741      Y:    -1.7531      Z:    -0.0467     Total:     7.9694

*** Psi4 exiting successfully. Buy a developer a beer!
