                               Psi4 1.3.2 release

  ==> Input File <==

--------------------------------------------------------------------------
#psi4
#
memory 32 gb

molecule  {
-3 1
  P        1.2017132    -0.6600436    -0.0076033
  P       -1.8683967     0.1184506    -0.0148600
  O        1.3559990     1.0186560    -0.3729610
  O       -0.3886030    -0.8294050    -0.1958090
  O        1.9273580    -1.4129110    -1.0480400
  O        1.6168640    -0.7815310     1.4560350
  O       -1.8332320     1.0931450    -1.2188660
  O       -1.6562150     0.8578460     1.3638040
  O       -2.8968830    -0.9395270    -0.0292720
  C        2.6258790     1.5668310    -0.0085760
  H        2.7349980     1.6139230     1.0781470
  H        3.4479520     0.9704660    -0.4205400
  H        2.6752270     2.5733270    -0.4286450
units angstrom
no_reorient  #important for SAPT in psi4, default
symmetry c1  #important for SAPT in psi4, default
}

set PROPERTIES_ORIGIN ["COM"]
properties('MP2/aug-cc-pvtz', properties = ['dipole'])
--------------------------------------------------------------------------

    Molecular point group: c1
  Charge       = -3
  Multiplicity = 1
  Basis Set: AUG-CC-PVTZ
    Blend: AUG-CC-PVTZ
  Basis Set: (AUG-CC-PVTZ AUX)
    Blend: AUG-CC-PVTZ-JKFIT

    Orbital Energies [Eh]
    ---------------------

    Doubly Occupied:

       1A    -79.620909     2A    -79.558372     3A    -20.138771
       4A    -20.078705     5A    -20.063877     6A    -20.049568
       7A    -20.010100     8A    -19.996008     9A    -19.988012
      10A    -10.907589    11A     -7.135452    12A     -7.072659
      13A     -5.034646    14A     -5.033238    15A     -5.032527
      16A     -4.972183    17A     -4.970117    18A     -4.969242
      19A     -0.949101    20A     -0.886352    21A     -0.853870
      22A     -0.813118    23A     -0.802781    24A     -0.750658
      25A     -0.720537    26A     -0.547992    27A     -0.330390
      28A     -0.275781    29A     -0.242956    30A     -0.215288
      31A     -0.188945    32A     -0.149635    33A     -0.145667
      34A     -0.110103    35A     -0.093842    36A     -0.088141
      37A     -0.060708    38A     -0.054073    39A     -0.046150
      40A     -0.041335    41A     -0.024028    42A      0.006285
      43A      0.010564    44A      0.018460    45A      0.026863
      46A      0.033835    47A      0.060601    48A      0.079353
      49A      0.097479

  @DF-RHF Final Energy: -1245.33681609046153

   => Energetics <=

    Nuclear Repulsion Energy =            818.7896428174183256
    One-Electron Energy =               -3402.8729420231070435
    Two-Electron Energy =                1338.7464831152269653
    Total Energy =                      -1245.3368160904615252
  Basis Set: (AUG-CC-PVTZ AUX)
    Blend: AUG-CC-PVTZ-RI
    Molecular point group: c1

    Geometry (in Angstrom), charge = -3, multiplicity = 1:

       Center              X                  Y                   Z               Mass
    ------------   -----------------  -----------------  -----------------  -----------------
         P            1.255686747762    -0.614156466924    -0.000778502388    30.973761998420
         P           -1.814423152238     0.164337733076    -0.008035202388    30.973761998420
         O            1.409972547762     1.064543133076    -0.366136202388    15.994914619570
         O           -0.334629452238    -0.783517866924    -0.188984202388    15.994914619570
         O            1.981331547762    -1.367023866924    -1.041215202388    15.994914619570
         O            1.670837547762    -0.735643866924     1.462859797612    15.994914619570
         O           -1.779258452238     1.139032133076    -1.212041202388    15.994914619570
         O           -1.602241452238     0.903733133076     1.370628797612    15.994914619570
         O           -2.842909452238    -0.893639866924    -0.022447202388    15.994914619570
         C            2.679852547762     1.612718133076    -0.001751202388    12.000000000000
         H            2.788971547762     1.659810133076     1.084971797612     1.007825032230
         H            3.501925547762     1.016353133076    -0.413715202388     1.007825032230
         H            2.729200547762     2.619214133076    -0.421820202388     1.007825032230

  Basis Set: AUG-CC-PVTZ
    Blend: AUG-CC-PVTZ
  Basis Set: (AUG-CC-PVTZ AUX)
    Blend: AUG-CC-PVTZ-JKFIT
	 Reference Energy          =   -1245.3368160904615252 [Eh]
	 Singles Energy            =      -0.0000000000000000 [Eh]
	 Same-Spin Energy          =      -0.6458411674128778 [Eh]
	 Opposite-Spin Energy      =      -1.8060663921854752 [Eh]
	 Correlation Energy        =      -2.4519075595983528 [Eh]
	 Total Energy              =   -1247.7887236500598647 [Eh]

	 ================> DF-SCS-MP2 Energies <==================
	-----------------------------------------------------------
	 SCS Same-Spin Scale       =       0.3333333333333333 [-]
	 SCS Opposite-Spin Scale   =       1.2000000000000000 [-]
	 SCS Same-Spin Energy      =      -0.2152803891376259 [Eh]
	 SCS Opposite-Spin Energy  =      -2.1672796706225701 [Eh]
	 SCS Correlation Energy    =      -2.3825600597601961 [Eh]
	 SCS Total Energy          =   -1247.7193761502217058 [Eh]
	-----------------------------------------------------------

  Dipole Moment: [D]
     X:     7.4820      Y:     0.9942      Z:    -0.9769     Total:     7.6107

*** Psi4 exiting successfully. Buy a developer a beer!
