                               Psi4 1.3.2 release

  ==> Input File <==

--------------------------------------------------------------------------
#psi4
#
memory 32 gb

molecule  {
-3 1
  P        1.1931290    -0.6069630     0.0087730
  P       -1.8341790     0.1663700     0.0034510
  O        1.3559990     1.0186560    -0.3729610
  O       -0.4025584    -0.8582926    -0.1431482
  O        1.9273580    -1.4129110    -1.0480400
  O        1.6168640    -0.7815310     1.4560350
  O       -1.8784848     1.1153890    -1.2008627
  O       -1.6562150     0.8578460     1.3638040
  O       -2.8968830    -0.9395270    -0.0292720
  C        2.6258790     1.5668310    -0.0085760
  H        2.7349980     1.6139230     1.0781470
  H        3.4479520     0.9704660    -0.4205400
  H        2.6752270     2.5733270    -0.4286450
units angstrom
no_reorient  #important for SAPT in psi4, default
symmetry c1  #important for SAPT in psi4, default
}

set PROPERTIES_ORIGIN ["COM"]
properties('MP2/aug-cc-pvtz', properties = ['dipole'])
--------------------------------------------------------------------------

    Molecular point group: c1
  Charge       = -3
  Multiplicity = 1
  Basis Set: AUG-CC-PVTZ
    Blend: AUG-CC-PVTZ
  Basis Set: (AUG-CC-PVTZ AUX)
    Blend: AUG-CC-PVTZ-JKFIT

    Orbital Energies [Eh]
    ---------------------

    Doubly Occupied:

       1A    -79.624808     2A    -79.558212     3A    -20.156189
       4A    -20.083448     5A    -20.058035     6A    -20.050045
       7A    -20.001497     8A    -19.995669     9A    -19.993724
      10A    -10.919410    11A     -7.138707    12A     -7.072051
      13A     -5.037972    14A     -5.036499    15A     -5.035655
      16A     -4.971564    17A     -4.969182    18A     -4.969037
      19A     -0.967399    20A     -0.886683    21A     -0.842084
      22A     -0.804058    23A     -0.798498    24A     -0.740940
      25A     -0.737602    26A     -0.562919    27A     -0.336912
      28A     -0.282878    29A     -0.256380    30A     -0.230990
      31A     -0.187224    32A     -0.147619    33A     -0.144352
      34A     -0.116168    35A     -0.092783    36A     -0.089068
      37A     -0.065405    38A     -0.058438    39A     -0.042463
      40A     -0.038311    41A     -0.024233    42A      0.006980
      43A      0.022220    44A      0.022487    45A      0.026378
      46A      0.028267    47A      0.066349    48A      0.070348
      49A      0.095082

  @DF-RHF Final Energy: -1245.34277064717367

   => Energetics <=

    Nuclear Repulsion Energy =            819.3470020986256941
    One-Electron Energy =               -3403.8055443399889555
    Two-Electron Energy =                1339.1157715941897095
    Total Energy =                      -1245.3427706471736656
  Basis Set: (AUG-CC-PVTZ AUX)
    Blend: AUG-CC-PVTZ-RI
    Molecular point group: c1

    Geometry (in Angstrom), charge = -3, multiplicity = 1:

       Center              X                  Y                   Z               Mass
    ------------   -----------------  -----------------  -----------------  -----------------
         P            1.247912688024    -0.577071207787     0.003928928760    30.973761998420
         P           -1.779395311976     0.196261792213    -0.001393071240    30.973761998420
         O            1.410782688024     1.048547792213    -0.377805071240    15.994914619570
         O           -0.347774711976    -0.828400807787    -0.147992271240    15.994914619570
         O            1.982141688024    -1.383019207787    -1.052884071240    15.994914619570
         O            1.671647688024    -0.751639207787     1.451190928760    15.994914619570
         O           -1.823701111976     1.145280792213    -1.205706771240    15.994914619570
         O           -1.601431311976     0.887737792213     1.358959928760    15.994914619570
         O           -2.842099311976    -0.909635207787    -0.034116071240    15.994914619570
         C            2.680662688024     1.596722792213    -0.013420071240    12.000000000000
         H            2.789781688024     1.643814792213     1.073302928760     1.007825032230
         H            3.502735688024     1.000357792213    -0.425384071240     1.007825032230
         H            2.730010688024     2.603218792213    -0.433489071240     1.007825032230

  Basis Set: AUG-CC-PVTZ
    Blend: AUG-CC-PVTZ
  Basis Set: (AUG-CC-PVTZ AUX)
    Blend: AUG-CC-PVTZ-JKFIT
	 Reference Energy          =   -1245.3427706471736656 [Eh]
	 Singles Energy            =      -0.0000000000000000 [Eh]
	 Same-Spin Energy          =      -0.6461098626082447 [Eh]
	 Opposite-Spin Energy      =      -1.8066346236250741 [Eh]
	 Correlation Energy        =      -2.4527444862333185 [Eh]
	 Total Energy              =   -1247.7955151334069797 [Eh]

	 ================> DF-SCS-MP2 Energies <==================
	-----------------------------------------------------------
	 SCS Same-Spin Scale       =       0.3333333333333333 [-]
	 SCS Opposite-Spin Scale   =       1.2000000000000000 [-]
	 SCS Same-Spin Energy      =      -0.2153699542027482 [Eh]
	 SCS Opposite-Spin Energy  =      -2.1679615483500889 [Eh]
	 SCS Correlation Energy    =      -2.3833315025528372 [Eh]
	 SCS Total Energy          =   -1247.7261021497265574 [Eh]
	-----------------------------------------------------------

  Dipole Moment: [D]
     X:     8.1486      Y:     2.3256      Z:    -0.5923     Total:     8.4947

*** Psi4 exiting successfully. Buy a developer a beer!
