                               Psi4 1.3.2 release

  ==> Input File <==

--------------------------------------------------------------------------
#psi4
#
memory 32 gb

molecule  {
-3 1
  P        1.1931290    -0.6069630     0.0087730
  P       -1.8341790     0.1663700     0.0034510
  O        1.3559990     1.0186560    -0.3729610
  O       -0.3067760    -0.8857710    -0.2070881
  O        1.9273580    -1.4129110    -1.0480400
  O        1.6168640    -0.7815310     1.4560350
  O       -1.8332320     1.0931450    -1.2188660
  O       -1.6562150     0.8578460     1.3638040
  O       -2.8968830    -0.9395270    -0.0292720
  C        2.6258790     1.5668310    -0.0085760
  H        2.7349980     1.6139230     1.0781470
  H        3.4479520     0.9704660    -0.4205400
  H        2.6752270     2.5733270    -0.4286450
units angstrom
no_reorient  #important for SAPT in psi4, default
symmetry c1  #important for SAPT in psi4, default
}

set PROPERTIES_ORIGIN ["COM"]
properties('MP2/aug-cc-pvtz', properties = ['dipole'])
--------------------------------------------------------------------------

    Molecular point group: c1
  Charge       = -3
  Multiplicity = 1
  Basis Set: AUG-CC-PVTZ
    Blend: AUG-CC-PVTZ
  Basis Set: (AUG-CC-PVTZ AUX)
    Blend: AUG-CC-PVTZ-JKFIT

    Orbital Energies [Eh]
    ---------------------

    Doubly Occupied:

       1A    -79.603497     2A    -79.572396     3A    -20.147694
       4A    -20.075125     5A    -20.040402     6A    -20.039773
       7A    -20.010779     8A    -20.010011     9A    -20.008587
      10A    -10.913156    11A     -7.119680    12A     -7.085852
      13A     -5.018863    14A     -5.017649    15A     -5.016488
      16A     -4.985383    17A     -4.982735    18A     -4.982618
      19A     -0.961543    20A     -0.888184    21A     -0.837065
      22A     -0.804882    23A     -0.791453    24A     -0.751545
      25A     -0.749927    26A     -0.556278    27A     -0.326083
      28A     -0.276370    29A     -0.249771    30A     -0.226356
      31A     -0.183743    32A     -0.149886    33A     -0.140508
      34A     -0.109349    35A     -0.092945    36A     -0.088135
      37A     -0.064360    38A     -0.061236    39A     -0.043157
      40A     -0.032409    41A     -0.013789    42A      0.013091
      43A      0.014494    44A      0.016442    45A      0.024053
      46A      0.036998    47A      0.053842    48A      0.058836
      49A      0.083142

  @DF-RHF Final Energy: -1245.34155389918806

   => Energetics <=

    Nuclear Repulsion Energy =            819.9930132340003865
    One-Electron Energy =               -3405.2116055215251436
    Two-Electron Energy =                1339.8770383883365866
    Total Energy =                      -1245.3415538991880567
  Basis Set: (AUG-CC-PVTZ AUX)
    Blend: AUG-CC-PVTZ-RI
    Molecular point group: c1

    Geometry (in Angstrom), charge = -3, multiplicity = 1:

       Center              X                  Y                   Z               Mass
    ------------   -----------------  -----------------  -----------------  -----------------
         P            1.235972914084    -0.572861803215     0.010866085469    30.973761998420
         P           -1.791335085916     0.200471196785     0.005544085469    30.973761998420
         O            1.398842914084     1.052757196785    -0.370867914531    15.994914619570
         O           -0.263932085916    -0.851669803215    -0.204995014531    15.994914619570
         O            1.970201914084    -1.378809803215    -1.045946914531    15.994914619570
         O            1.659707914084    -0.747429803215     1.458128085469    15.994914619570
         O           -1.790388085916     1.127246196785    -1.216772914531    15.994914619570
         O           -1.613371085916     0.891947196785     1.365897085469    15.994914619570
         O           -2.854039085916    -0.905425803215    -0.027178914531    15.994914619570
         C            2.668722914084     1.600932196785    -0.006482914531    12.000000000000
         H            2.777841914084     1.648024196785     1.080240085469     1.007825032230
         H            3.490795914084     1.004567196785    -0.418446914531     1.007825032230
         H            2.718070914084     2.607428196785    -0.426551914531     1.007825032230

  Basis Set: AUG-CC-PVTZ
    Blend: AUG-CC-PVTZ
  Basis Set: (AUG-CC-PVTZ AUX)
    Blend: AUG-CC-PVTZ-JKFIT
	 Reference Energy          =   -1245.3415538991880567 [Eh]
	 Singles Energy            =      -0.0000000000000000 [Eh]
	 Same-Spin Energy          =      -0.6460087669409952 [Eh]
	 Opposite-Spin Energy      =      -1.8062879989043963 [Eh]
	 Correlation Energy        =      -2.4522967658453916 [Eh]
	 Total Energy              =   -1247.7938506650334602 [Eh]

	 ================> DF-SCS-MP2 Energies <==================
	-----------------------------------------------------------
	 SCS Same-Spin Scale       =       0.3333333333333333 [-]
	 SCS Opposite-Spin Scale   =       1.2000000000000000 [-]
	 SCS Same-Spin Energy      =      -0.2153362556469984 [Eh]
	 SCS Opposite-Spin Energy  =      -2.1675455986852756 [Eh]
	 SCS Correlation Energy    =      -2.3828818543322741 [Eh]
	 SCS Total Energy          =   -1247.7244357535203108 [Eh]
	-----------------------------------------------------------

  Dipole Moment: [D]
     X:     6.7897      Y:     2.6712      Z:    -0.4322     Total:     7.3090

*** Psi4 exiting successfully. Buy a developer a beer!
