                               Psi4 1.3.2 release

  ==> Input File <==

--------------------------------------------------------------------------
#psi4
#
memory 32 gb

molecule  {
-3 1
  P        1.1931290    -0.6069630     0.0087730
  P       -1.8341790     0.1663700     0.0034510
  O        1.3559990     1.0186560    -0.3729610
  O       -0.3886030    -0.8294050    -0.1958090
  O        1.9273580    -1.4129110    -1.0480400
  O        1.6168640    -0.7815310     1.4560350
  O       -1.8332320     1.0931450    -1.2188660
  O       -1.6562150     0.8578460     1.3638040
  O       -2.8968830    -0.9395270    -0.0292720
  C        2.5370972     1.5285061    -0.0340514
  H        2.7349980     1.6139230     1.0781470
  H        3.4479520     0.9704660    -0.4205400
  H        2.6752270     2.5733270    -0.4286450
units angstrom
no_reorient  #important for SAPT in psi4, default
symmetry c1  #important for SAPT in psi4, default
}

set PROPERTIES_ORIGIN ["COM"]
properties('MP2/aug-cc-pvtz', properties = ['dipole'])
--------------------------------------------------------------------------

    Molecular point group: c1
  Charge       = -3
  Multiplicity = 1
  Basis Set: AUG-CC-PVTZ
    Blend: AUG-CC-PVTZ
  Basis Set: (AUG-CC-PVTZ AUX)
    Blend: AUG-CC-PVTZ-JKFIT

    Orbital Energies [Eh]
    ---------------------

    Doubly Occupied:

       1A    -79.627599     2A    -79.561307     3A    -20.160318
       4A    -20.083976     5A    -20.058566     6A    -20.054377
       7A    -20.001538     8A    -20.000672     9A    -19.999387
      10A    -10.922579    11A     -7.141717    12A     -7.075144
      13A     -5.041140    14A     -5.039402    15A     -5.038601
      16A     -4.974715    17A     -4.972248    18A     -4.972118
      19A     -1.003461    20A     -0.895736    21A     -0.845644
      22A     -0.806501    23A     -0.801669    24A     -0.743859
      25A     -0.742310    26A     -0.545920    27A     -0.352682
      28A     -0.288549    29A     -0.255907    30A     -0.250932
      31A     -0.187851    32A     -0.147046    33A     -0.143211
      34A     -0.110256    35A     -0.094249    36A     -0.089466
      37A     -0.060031    38A     -0.056666    39A     -0.046160
      40A     -0.041039    41A     -0.026500    42A      0.002899
      43A      0.018119    44A      0.020513    45A      0.023548
      46A      0.025553    47A      0.062980    48A      0.066241
      49A      0.091203

  @DF-RHF Final Energy: -1245.34194305962342

   => Energetics <=

    Nuclear Repulsion Energy =            823.0181172508094960
    One-Electron Energy =               -3410.8201315965870890
    Two-Electron Energy =                1342.4600712861540615
    Total Energy =                      -1245.3419430596234179
  Basis Set: (AUG-CC-PVTZ AUX)
    Blend: AUG-CC-PVTZ-RI
    Molecular point group: c1

    Geometry (in Angstrom), charge = -3, multiplicity = 1:

       Center              X                  Y                   Z               Mass
    ------------   -----------------  -----------------  -----------------  -----------------
         P            1.248539100519    -0.575199483470     0.011529256890    30.973761998420
         P           -1.778768899481     0.198133516530     0.006207256890    30.973761998420
         O            1.411409100519     1.050419516530    -0.370204743110    15.994914619570
         O           -0.333192899481    -0.797641483470    -0.193052743110    15.994914619570
         O            1.982768100519    -1.381147483470    -1.045283743110    15.994914619570
         O            1.672274100519    -0.749767483470     1.458791256890    15.994914619570
         O           -1.777821899481     1.124908516530    -1.216109743110    15.994914619570
         O           -1.600804899481     0.889609516530     1.366560256890    15.994914619570
         O           -2.841472899481    -0.907763483470    -0.026515743110    15.994914619570
         C            2.592507300519     1.560269616530    -0.031295143110    12.000000000000
         H            2.790408100519     1.645686516530     1.080903256890     1.007825032230
         H            3.503362100519     1.002229516530    -0.417783743110     1.007825032230
         H            2.730637100519     2.605090516530    -0.425888743110     1.007825032230

  Basis Set: AUG-CC-PVTZ
    Blend: AUG-CC-PVTZ
  Basis Set: (AUG-CC-PVTZ AUX)
    Blend: AUG-CC-PVTZ-JKFIT
	 Reference Energy          =   -1245.3419430596234179 [Eh]
	 Singles Energy            =      -0.0000000000000000 [Eh]
	 Same-Spin Energy          =      -0.6462199269889125 [Eh]
	 Opposite-Spin Energy      =      -1.8054522424367145 [Eh]
	 Correlation Energy        =      -2.4516721694256272 [Eh]
	 Total Energy              =   -1247.7936152290490099 [Eh]

	 ================> DF-SCS-MP2 Energies <==================
	-----------------------------------------------------------
	 SCS Same-Spin Scale       =       0.3333333333333333 [-]
	 SCS Opposite-Spin Scale   =       1.2000000000000000 [-]
	 SCS Same-Spin Energy      =      -0.2154066423296375 [Eh]
	 SCS Opposite-Spin Energy  =      -2.1665426909240573 [Eh]
	 SCS Correlation Energy    =      -2.3819493332536950 [Eh]
	 SCS Total Energy          =   -1247.7238923928771328 [Eh]
	-----------------------------------------------------------

  Dipole Moment: [D]
     X:     7.4087      Y:     1.9630      Z:    -0.5450     Total:     7.6837

*** Psi4 exiting successfully. Buy a developer a beer!
