                               Psi4 1.3.2 release

  ==> Input File <==

--------------------------------------------------------------------------
#psi4
#
memory 32 gb

molecule  {
-3 1
  P        1.1931290    -0.6069630     0.0087730
  P       -1.8341790     0.1663700     0.0034510
  O        1.3242824     1.0319122    -0.3255497
  O       -0.3886030    -0.8294050    -0.1958090
  O        1.9131768    -1.4572676    -1.0227363
  O        1.6168640    -0.7815310     1.4560350
  O       -1.8332320     1.0931450    -1.2188660
  O       -1.6562150     0.8578460     1.3638040
  O       -2.8968830    -0.9395270    -0.0292720
  C        2.6258790     1.5668310    -0.0085760
  H        2.7349980     1.6139230     1.0781470
  H        3.4479520     0.9704660    -0.4205400
  H        2.6752270     2.5733270    -0.4286450
units angstrom
no_reorient  #important for SAPT in psi4, default
symmetry c1  #important for SAPT in psi4, default
}

set PROPERTIES_ORIGIN ["COM"]
properties('MP2/aug-cc-pvtz', properties = ['dipole'])
--------------------------------------------------------------------------

    Molecular point group: c1
  Charge       = -3
  Multiplicity = 1
  Basis Set: AUG-CC-PVTZ
    Blend: AUG-CC-PVTZ
  Basis Set: (AUG-CC-PVTZ AUX)
    Blend: AUG-CC-PVTZ-JKFIT

    Orbital Energies [Eh]
    ---------------------

    Doubly Occupied:

       1A    -79.621397     2A    -79.557988     3A    -20.156451
       4A    -20.078342     5A    -20.057150     6A    -20.046980
       7A    -19.998600     8A    -19.997819     9A    -19.996015
      10A    -10.919644    11A     -7.135479    12A     -7.071794
      13A     -5.034775    14A     -5.033218    15A     -5.032491
      16A     -4.971347    17A     -4.968922    18A     -4.968789
      19A     -0.963865    20A     -0.885284    21A     -0.841180
      22A     -0.801092    23A     -0.797774    24A     -0.740946
      25A     -0.739089    26A     -0.563191    27A     -0.335686
      28A     -0.281033    29A     -0.254770    30A     -0.227184
      31A     -0.186728    32A     -0.146374    33A     -0.143433
      34A     -0.117114    35A     -0.091209    36A     -0.087876
      37A     -0.063963    38A     -0.056323    39A     -0.041585
      40A     -0.037831    41A     -0.024109    42A      0.009148
      43A      0.022406    44A      0.023552    45A      0.026783
      46A      0.029535    47A      0.066149    48A      0.069609
      49A      0.094201

  @DF-RHF Final Energy: -1245.34216999193382

   => Energetics <=

    Nuclear Repulsion Energy =            820.5678463725349729
    One-Electron Energy =               -3406.3531100065356441
    Two-Electron Energy =                1340.4430936420669696
    Total Energy =                      -1245.3421699919338153
  Basis Set: (AUG-CC-PVTZ AUX)
    Blend: AUG-CC-PVTZ-RI
    Molecular point group: c1

    Geometry (in Angstrom), charge = -3, multiplicity = 1:

       Center              X                  Y                   Z               Mass
    ------------   -----------------  -----------------  -----------------  -----------------
         P            1.246785854673    -0.575000741242     0.003755303435    30.973761998420
         P           -1.780522145327     0.198332258758    -0.001566696565    30.973761998420
         O            1.377939254673     1.063874458758    -0.330567396565    15.994914619570
         O           -0.334946145327    -0.797442741242    -0.200826696565    15.994914619570
         O            1.966833654673    -1.425305341242    -1.027753996565    15.994914619570
         O            1.670520854673    -0.749568741242     1.451017303435    15.994914619570
         O           -1.779575145327     1.125107258758    -1.223883696565    15.994914619570
         O           -1.602558145327     0.889808258758     1.358786303435    15.994914619570
         O           -2.843226145327    -0.907564741242    -0.034289696565    15.994914619570
         C            2.679535854673     1.598793258758    -0.013593696565    12.000000000000
         H            2.788654854673     1.645885258758     1.073129303435     1.007825032230
         H            3.501608854673     1.002428258758    -0.425557696565     1.007825032230
         H            2.728883854673     2.605289258758    -0.433662696565     1.007825032230

  Basis Set: AUG-CC-PVTZ
    Blend: AUG-CC-PVTZ
  Basis Set: (AUG-CC-PVTZ AUX)
    Blend: AUG-CC-PVTZ-JKFIT
	 Reference Energy          =   -1245.3421699919338153 [Eh]
	 Singles Energy            =      -0.0000000000000000 [Eh]
	 Same-Spin Energy          =      -0.6462256908668852 [Eh]
	 Opposite-Spin Energy      =      -1.8069193765266049 [Eh]
	 Correlation Energy        =      -2.4531450673934900 [Eh]
	 Total Energy              =   -1247.7953150593273222 [Eh]

	 ================> DF-SCS-MP2 Energies <==================
	-----------------------------------------------------------
	 SCS Same-Spin Scale       =       0.3333333333333333 [-]
	 SCS Opposite-Spin Scale   =       1.2000000000000000 [-]
	 SCS Same-Spin Energy      =      -0.2154085636222950 [Eh]
	 SCS Opposite-Spin Energy  =      -2.1683032518319258 [Eh]
	 SCS Correlation Energy    =      -2.3837118154542210 [Eh]
	 SCS Total Energy          =   -1247.7258818073880775 [Eh]
	-----------------------------------------------------------

  Dipole Moment: [D]
     X:     8.0369      Y:     2.4376      Z:    -0.5869     Total:     8.4189

*** Psi4 exiting successfully. Buy a developer a beer!
