                               Psi4 1.3.2 release

  ==> Input File <==

--------------------------------------------------------------------------
#psi4
#
memory 32 gb

molecule  {
-3 1
  P        1.1931290    -0.6069630     0.0087730
  P       -1.8341790     0.1663700     0.0034510
  O        1.3416050     1.0194299    -0.3755260
  O       -0.3899721    -0.8158958    -0.1994297
  O        1.9273580    -1.4129110    -1.0480400
  O        1.6168640    -0.7815310     1.4560350
  O       -1.8332320     1.0931450    -1.2188660
  O       -1.6562150     0.8578460     1.3638040
  O       -2.8968830    -0.9395270    -0.0292720
  C        2.6258790     1.5668310    -0.0085760
  H        2.7349980     1.6139230     1.0781470
  H        3.4479520     0.9704660    -0.4205400
  H        2.6752270     2.5733270    -0.4286450
units angstrom
no_reorient  #important for SAPT in psi4, default
symmetry c1  #important for SAPT in psi4, default
}

set PROPERTIES_ORIGIN ["COM"]
properties('MP2/aug-cc-pvtz', properties = ['dipole'])
--------------------------------------------------------------------------

    Molecular point group: c1
  Charge       = -3
  Multiplicity = 1
  Basis Set: AUG-CC-PVTZ
    Blend: AUG-CC-PVTZ
  Basis Set: (AUG-CC-PVTZ AUX)
    Blend: AUG-CC-PVTZ-JKFIT

    Orbital Energies [Eh]
    ---------------------

    Doubly Occupied:

       1A    -79.622308     2A    -79.557871     3A    -20.153420
       4A    -20.079700     5A    -20.055551     6A    -20.051643
       7A    -19.998126     8A    -19.997708     9A    -19.996096
      10A    -10.917978    11A     -7.136318    12A     -7.071713
      13A     -5.035654    14A     -5.034085    15A     -5.033317
      16A     -4.971288    17A     -4.968845    18A     -4.968709
      19A     -0.962224    20A     -0.885912    21A     -0.841842
      22A     -0.803547    23A     -0.798341    24A     -0.740754
      25A     -0.739174    26A     -0.561389    27A     -0.336003
      28A     -0.281622    29A     -0.252624    30A     -0.225337
      31A     -0.187441    32A     -0.147018    33A     -0.144024
      34A     -0.115597    35A     -0.092405    36A     -0.088504
      37A     -0.063736    38A     -0.056585    39A     -0.042655
      40A     -0.038513    41A     -0.022803    42A      0.006780
      43A      0.020764    44A      0.023400    45A      0.026853
      46A      0.028358    47A      0.066144    48A      0.069790
      49A      0.094310

  @DF-RHF Final Energy: -1245.34432586361504

   => Energetics <=

    Nuclear Repulsion Energy =            820.7271604169205830
    One-Electron Energy =               -3406.6590114423652267
    Two-Electron Energy =                1340.5875251618297170
    Total Energy =                      -1245.3443258636150404
  Basis Set: (AUG-CC-PVTZ AUX)
    Blend: AUG-CC-PVTZ-RI
    Molecular point group: c1

    Geometry (in Angstrom), charge = -3, multiplicity = 1:

       Center              X                  Y                   Z               Mass
    ------------   -----------------  -----------------  -----------------  -----------------
         P            1.244234707826    -0.578842822727     0.010434887835    30.973761998420
         P           -1.783073292174     0.194490177273     0.005112887835    30.973761998420
         O            1.392710707826     1.047550077273    -0.373864112165    15.994914619570
         O           -0.338866392174    -0.787775622727    -0.197767812165    15.994914619570
         O            1.978463707826    -1.384790822727    -1.046378112165    15.994914619570
         O            1.667969707826    -0.753410822727     1.457696887835    15.994914619570
         O           -1.782126292174     1.121265177273    -1.217204112165    15.994914619570
         O           -1.605109292174     0.885966177273     1.365465887835    15.994914619570
         O           -2.845777292174    -0.911406822727    -0.027610112165    15.994914619570
         C            2.676984707826     1.594951177273    -0.006914112165    12.000000000000
         H            2.786103707826     1.642043177273     1.079808887835     1.007825032230
         H            3.499057707826     0.998586177273    -0.418878112165     1.007825032230
         H            2.726332707826     2.601447177273    -0.426983112165     1.007825032230

  Basis Set: AUG-CC-PVTZ
    Blend: AUG-CC-PVTZ
  Basis Set: (AUG-CC-PVTZ AUX)
    Blend: AUG-CC-PVTZ-JKFIT
	 Reference Energy          =   -1245.3443258636150404 [Eh]
	 Singles Energy            =      -0.0000000000000000 [Eh]
	 Same-Spin Energy          =      -0.6461016209447272 [Eh]
	 Opposite-Spin Energy      =      -1.8065988632718830 [Eh]
	 Correlation Energy        =      -2.4527004842166100 [Eh]
	 Total Energy              =   -1247.7970263478316610 [Eh]

	 ================> DF-SCS-MP2 Energies <==================
	-----------------------------------------------------------
	 SCS Same-Spin Scale       =       0.3333333333333333 [-]
	 SCS Opposite-Spin Scale   =       1.2000000000000000 [-]
	 SCS Same-Spin Energy      =      -0.2153672069815757 [Eh]
	 SCS Opposite-Spin Energy  =      -2.1679186359262594 [Eh]
	 SCS Correlation Energy    =      -2.3832858429078350 [Eh]
	 SCS Total Energy          =   -1247.7276117065227936 [Eh]
	-----------------------------------------------------------

  Dipole Moment: [D]
     X:     8.0127      Y:     2.3078      Z:    -0.4634     Total:     8.3513

*** Psi4 exiting successfully. Buy a developer a beer!
