                               Psi4 1.3.2 release

  ==> Input File <==

--------------------------------------------------------------------------
#psi4
#
memory 32 gb

molecule  {
-3 1
  P        1.1931290    -0.6069630     0.0087730
  P       -1.8341790     0.1663700     0.0034510
  O        1.3559990     1.0186560    -0.3729610
  O       -0.3886030    -0.8294050    -0.1958090
  O        1.9273580    -1.4129110    -1.0480400
  O        1.6168640    -0.7815310     1.4560350
  O       -1.8332320     1.0931450    -1.2188660
  O       -1.7135921     0.8098330     1.3933376
  O       -2.9111669    -0.9251843     0.0484507
  C        2.6258790     1.5668310    -0.0085760
  H        2.7349980     1.6139230     1.0781470
  H        3.4479520     0.9704660    -0.4205400
  H        2.6752270     2.5733270    -0.4286450
units angstrom
no_reorient  #important for SAPT in psi4, default
symmetry c1  #important for SAPT in psi4, default
}

set PROPERTIES_ORIGIN ["COM"]
properties('MP2/aug-cc-pvtz', properties = ['dipole'])
--------------------------------------------------------------------------

    Molecular point group: c1
  Charge       = -3
  Multiplicity = 1
  Basis Set: AUG-CC-PVTZ
    Blend: AUG-CC-PVTZ
  Basis Set: (AUG-CC-PVTZ AUX)
    Blend: AUG-CC-PVTZ-JKFIT

    Orbital Energies [Eh]
    ---------------------

    Doubly Occupied:

       1A    -79.623911     2A    -79.558952     3A    -20.154979
       4A    -20.083597     5A    -20.056273     6A    -20.052098
       7A    -20.006023     8A    -19.993542     9A    -19.991900
      10A    -10.918677    11A     -7.137944    12A     -7.072782
      13A     -5.037255    14A     -5.035737    15A     -5.034913
      16A     -4.972286    17A     -4.970032    18A     -4.969636
      19A     -0.967255    20A     -0.888354    21A     -0.842335
      22A     -0.804274    23A     -0.800249    24A     -0.746395
      25A     -0.732175    26A     -0.562313    27A     -0.338055
      28A     -0.283929    29A     -0.255870    30A     -0.230316
      31A     -0.188007    32A     -0.147942    33A     -0.145017
      34A     -0.116265    35A     -0.093890    36A     -0.088757
      37A     -0.065186    38A     -0.056031    39A     -0.045848
      40A     -0.038508    41A     -0.023823    42A      0.005969
      43A      0.020488    44A      0.021108    45A      0.026936
      46A      0.028625    47A      0.064083    48A      0.071933
      49A      0.096723

  @DF-RHF Final Energy: -1245.34303302324133

   => Energetics <=

    Nuclear Repulsion Energy =            819.6795632362911874
    One-Electron Energy =               -3404.4542600096397109
    Two-Electron Energy =                1339.4316637501069636
    Total Energy =                      -1245.3430330232413326
  Basis Set: (AUG-CC-PVTZ AUX)
    Blend: AUG-CC-PVTZ-RI
    Molecular point group: c1

    Geometry (in Angstrom), charge = -3, multiplicity = 1:

       Center              X                  Y                   Z               Mass
    ------------   -----------------  -----------------  -----------------  -----------------
         P            1.248966918577    -0.574783178357     0.000831102147    30.973761998420
         P           -1.778341081423     0.198549821643    -0.004490897853    30.973761998420
         O            1.411836918577     1.050835821643    -0.380902897853    15.994914619570
         O           -0.332765081423    -0.797225178357    -0.203750897853    15.994914619570
         O            1.983195918577    -1.380731178357    -1.055981897853    15.994914619570
         O            1.672701918577    -0.749351178357     1.448093102147    15.994914619570
         O           -1.777394081423     1.125324821643    -1.226807897853    15.994914619570
         O           -1.657754181423     0.842012821643     1.385395702147    15.994914619570
         O           -2.855328981423    -0.893004478357     0.040508802147    15.994914619570
         C            2.681716918577     1.599010821643    -0.016517897853    12.000000000000
         H            2.790835918577     1.646102821643     1.070205102147     1.007825032230
         H            3.503789918577     1.002645821643    -0.428481897853     1.007825032230
         H            2.731064918577     2.605506821643    -0.436586897853     1.007825032230

  Basis Set: AUG-CC-PVTZ
    Blend: AUG-CC-PVTZ
  Basis Set: (AUG-CC-PVTZ AUX)
    Blend: AUG-CC-PVTZ-JKFIT
	 Reference Energy          =   -1245.3430330232413326 [Eh]
	 Singles Energy            =      -0.0000000000000000 [Eh]
	 Same-Spin Energy          =      -0.6460626479220496 [Eh]
	 Opposite-Spin Energy      =      -1.8064263688063380 [Eh]
	 Correlation Energy        =      -2.4524890167283875 [Eh]
	 Total Energy              =   -1247.7955220399696827 [Eh]

	 ================> DF-SCS-MP2 Energies <==================
	-----------------------------------------------------------
	 SCS Same-Spin Scale       =       0.3333333333333333 [-]
	 SCS Opposite-Spin Scale   =       1.2000000000000000 [-]
	 SCS Same-Spin Energy      =      -0.2153542159740165 [Eh]
	 SCS Opposite-Spin Energy  =      -2.1677116425676055 [Eh]
	 SCS Correlation Energy    =      -2.3830658585416220 [Eh]
	 SCS Total Energy          =   -1247.7260988817829457 [Eh]
	-----------------------------------------------------------

  Dipole Moment: [D]
     X:     8.1438      Y:     2.4256      Z:    -0.7611     Total:     8.5314

*** Psi4 exiting successfully. Buy a developer a beer!
