                               Psi4 1.3.2 release

  ==> Input File <==

--------------------------------------------------------------------------
#psi4
#
memory 32 gb

molecule  {
-3 1
  P        1.1931290    -0.6069630     0.0087730
  P       -1.8341790     0.1663700     0.0034510
  O        1.3559990     1.0186560    -0.3729610
  O       -0.3855211    -0.8242863    -0.2232720
  O        1.9273580    -1.4129110    -1.0480400
  O        1.6418935    -0.7762997     1.4490953
  O       -1.8332320     1.0931450    -1.2188660
  O       -1.6562150     0.8578460     1.3638040
  O       -2.8968830    -0.9395270    -0.0292720
  C        2.6258790     1.5668310    -0.0085760
  H        2.7349980     1.6139230     1.0781470
  H        3.4479520     0.9704660    -0.4205400
  H        2.6752270     2.5733270    -0.4286450
units angstrom
no_reorient  #important for SAPT in psi4, default
symmetry c1  #important for SAPT in psi4, default
}

set PROPERTIES_ORIGIN ["COM"]
properties('MP2/aug-cc-pvtz', properties = ['dipole'])
--------------------------------------------------------------------------

    Molecular point group: c1
  Charge       = -3
  Multiplicity = 1
  Basis Set: AUG-CC-PVTZ
    Blend: AUG-CC-PVTZ
  Basis Set: (AUG-CC-PVTZ AUX)
    Blend: AUG-CC-PVTZ-JKFIT

    Orbital Energies [Eh]
    ---------------------

    Doubly Occupied:

       1A    -79.621858     2A    -79.559926     3A    -20.151665
       4A    -20.082107     5A    -20.052641     6A    -20.052202
       7A    -19.999747     8A    -19.999029     9A    -19.998893
      10A    -10.916009    11A     -7.135898    12A     -7.073748
      13A     -5.035213    14A     -5.033649    15A     -5.032914
      16A     -4.973308    17A     -4.970852    18A     -4.970726
      19A     -0.964485    20A     -0.886500    21A     -0.841819
      22A     -0.803207    23A     -0.799114    24A     -0.742152
      25A     -0.741288    26A     -0.559615    27A     -0.335683
      28A     -0.281531    29A     -0.253145    30A     -0.227533
      31A     -0.187592    32A     -0.147503    33A     -0.143333
      34A     -0.113952    35A     -0.093039    36A     -0.088837
      37A     -0.062251    38A     -0.058278    39A     -0.043797
      40A     -0.038489    41A     -0.021568    42A      0.006726
      43A      0.020091    44A      0.022441    45A      0.025282
      46A      0.028509    47A      0.064148    48A      0.067762
      49A      0.092532

  @DF-RHF Final Energy: -1245.34556076607601

   => Energetics <=

    Nuclear Repulsion Energy =            820.2608734199777700
    One-Electron Energy =               -3405.6776621811336554
    Two-Electron Energy =                1340.0712279950796528
    Total Energy =                      -1245.3455607660760052
  Basis Set: (AUG-CC-PVTZ AUX)
    Blend: AUG-CC-PVTZ-RI
    Molecular point group: c1

    Geometry (in Angstrom), charge = -3, multiplicity = 1:

       Center              X                  Y                   Z               Mass
    ------------   -----------------  -----------------  -----------------  -----------------
         P            1.240520375434    -0.578509853901     0.012823685818    30.973761998420
         P           -1.786787624566     0.194823146099     0.007501685818    30.973761998420
         O            1.403390375434     1.047109146099    -0.368910314182    15.994914619570
         O           -0.338129724566    -0.795833153901    -0.219221314182    15.994914619570
         O            1.974749375434    -1.384457853901    -1.043989314182    15.994914619570
         O            1.689284875434    -0.747846553901     1.453145985818    15.994914619570
         O           -1.785840624566     1.121598146099    -1.214815314182    15.994914619570
         O           -1.608823624566     0.886299146099     1.367854685818    15.994914619570
         O           -2.849491624566    -0.911073853901    -0.025221314182    15.994914619570
         C            2.673270375434     1.595284146099    -0.004525314182    12.000000000000
         H            2.782389375434     1.642376146099     1.082197685818     1.007825032230
         H            3.495343375434     0.998919146099    -0.416489314182     1.007825032230
         H            2.722618375434     2.601780146099    -0.424594314182     1.007825032230

  Basis Set: AUG-CC-PVTZ
    Blend: AUG-CC-PVTZ
  Basis Set: (AUG-CC-PVTZ AUX)
    Blend: AUG-CC-PVTZ-JKFIT
	 Reference Energy          =   -1245.3455607660760052 [Eh]
	 Singles Energy            =      -0.0000000000000000 [Eh]
	 Same-Spin Energy          =      -0.6460758521457124 [Eh]
	 Opposite-Spin Energy      =      -1.8064371421607643 [Eh]
	 Correlation Energy        =      -2.4525129943064767 [Eh]
	 Total Energy              =   -1247.7980737603825219 [Eh]

	 ================> DF-SCS-MP2 Energies <==================
	-----------------------------------------------------------
	 SCS Same-Spin Scale       =       0.3333333333333333 [-]
	 SCS Opposite-Spin Scale   =       1.2000000000000000 [-]
	 SCS Same-Spin Energy      =      -0.2153586173819041 [Eh]
	 SCS Opposite-Spin Energy  =      -2.1677245705929171 [Eh]
	 SCS Correlation Energy    =      -2.3830831879748211 [Eh]
	 SCS Total Energy          =   -1247.7286439540507672 [Eh]
	-----------------------------------------------------------

  Dipole Moment: [D]
     X:     7.8143      Y:     2.3237      Z:    -0.4059     Total:     8.1626

*** Psi4 exiting successfully. Buy a developer a beer!
