                               Psi4 1.3.2 release

  ==> Input File <==

--------------------------------------------------------------------------
#psi4
#
memory 32 gb

molecule  {
-3 1
  P        1.1931290    -0.6069630     0.0087730
  P       -1.8341790     0.1663700     0.0034510
  O        1.3559990     1.0186560    -0.3729610
  O       -0.3886030    -0.8294050    -0.1958090
  O        1.9273580    -1.4129110    -1.0480400
  O        1.6168640    -0.7815310     1.4560350
  O       -1.8332320     1.0931450    -1.2188660
  O       -1.6330479     0.9478614     1.5408930
  O       -2.8968830    -0.9395270    -0.0292720
  C        2.6258790     1.5668310    -0.0085760
  H        2.7349980     1.6139230     1.0781470
  H        3.4479520     0.9704660    -0.4205400
  H        2.6752270     2.5733270    -0.4286450
units angstrom
no_reorient  #important for SAPT in psi4, default
symmetry c1  #important for SAPT in psi4, default
}

set PROPERTIES_ORIGIN ["COM"]
properties('MP2/aug-cc-pvtz', properties = ['dipole'])
--------------------------------------------------------------------------

    Molecular point group: c1
  Charge       = -3
  Multiplicity = 1
  Basis Set: AUG-CC-PVTZ
    Blend: AUG-CC-PVTZ
  Basis Set: (AUG-CC-PVTZ AUX)
    Blend: AUG-CC-PVTZ-JKFIT

    Orbital Energies [Eh]
    ---------------------

    Doubly Occupied:

       1A    -79.626674     2A    -79.588462     3A    -20.155234
       4A    -20.093334     5A    -20.058798     6A    -20.052546
       7A    -20.016541     8A    -20.015855     9A    -20.007095
      10A    -10.918253    11A     -7.140720    12A     -7.098799
      13A     -5.040013    14A     -5.038557    15A     -5.037646
      16A     -4.998343    17A     -4.995984    18A     -4.995189
      19A     -0.968162    20A     -0.892835    21A     -0.843372
      22A     -0.805560    23A     -0.802866    24A     -0.756788
      25A     -0.693654    26A     -0.562045    27A     -0.342213
      28A     -0.289243    29A     -0.255407    30A     -0.232133
      31A     -0.191668    32A     -0.153584    33A     -0.147566
      34A     -0.117462    35A     -0.098497    36A     -0.091295
      37A     -0.065553    38A     -0.056048    39A     -0.046288
      40A     -0.040622    41A     -0.025246    42A      0.005475
      43A      0.012337    44A      0.021233    45A      0.028604
      46A      0.043634    47A      0.053937    48A      0.079320
      49A      0.090228

  @DF-RHF Final Energy: -1245.31025725516838

   => Energetics <=

    Nuclear Repulsion Energy =            812.4380453014625800
    One-Electron Energy =               -3389.4538416504115048
    Two-Electron Energy =                1331.7055390937807715
    Total Energy =                      -1245.3102572551683807
  Basis Set: (AUG-CC-PVTZ AUX)
    Blend: AUG-CC-PVTZ-RI
    Molecular point group: c1

    Geometry (in Angstrom), charge = -3, multiplicity = 1:

       Center              X                  Y                   Z               Mass
    ------------   -----------------  -----------------  -----------------  -----------------
         P            1.240938950544    -0.585254176360    -0.005080802482    30.973761998420
         P           -1.786369049456     0.188078823640    -0.010402802482    30.973761998420
         O            1.403808950544     1.040364823640    -0.386814802482    15.994914619570
         O           -0.340793049456    -0.807696176360    -0.209662802482    15.994914619570
         O            1.975167950544    -1.391202176360    -1.061893802482    15.994914619570
         O            1.664673950544    -0.759822176360     1.442181197518    15.994914619570
         O           -1.785422049456     1.114853823640    -1.232719802482    15.994914619570
         O           -1.585237949456     0.969570223640     1.527039197518    15.994914619570
         O           -2.849073049456    -0.917818176360    -0.043125802482    15.994914619570
         C            2.673688950544     1.588539823640    -0.022429802482    12.000000000000
         H            2.782807950544     1.635631823640     1.064293197518     1.007825032230
         H            3.495761950544     0.992174823640    -0.434393802482     1.007825032230
         H            2.723036950544     2.595035823640    -0.442498802482     1.007825032230

  Basis Set: AUG-CC-PVTZ
    Blend: AUG-CC-PVTZ
  Basis Set: (AUG-CC-PVTZ AUX)
    Blend: AUG-CC-PVTZ-JKFIT
	 Reference Energy          =   -1245.3102572551683807 [Eh]
	 Singles Energy            =      -0.0000000000000000 [Eh]
	 Same-Spin Energy          =      -0.6493708134077433 [Eh]
	 Opposite-Spin Energy      =      -1.8156713144714101 [Eh]
	 Correlation Energy        =      -2.4650421278791534 [Eh]
	 Total Energy              =   -1247.7752993830474679 [Eh]

	 ================> DF-SCS-MP2 Energies <==================
	-----------------------------------------------------------
	 SCS Same-Spin Scale       =       0.3333333333333333 [-]
	 SCS Opposite-Spin Scale   =       1.2000000000000000 [-]
	 SCS Same-Spin Energy      =      -0.2164569378025811 [Eh]
	 SCS Opposite-Spin Energy  =      -2.1788055773656918 [Eh]
	 SCS Correlation Energy    =      -2.3952625151682727 [Eh]
	 SCS Total Energy          =   -1247.7055197703366503 [Eh]
	-----------------------------------------------------------

  Dipole Moment: [D]
     X:     7.9964      Y:     1.6523      Z:    -1.7151     Total:     8.3435

*** Psi4 exiting successfully. Buy a developer a beer!
