                               Psi4 1.3.2 release

  ==> Input File <==

--------------------------------------------------------------------------
#psi4
#
memory 32 gb

molecule  {
-3 1
  P        1.2202731    -0.6068398     0.0197559
  P       -1.8341790     0.1663700     0.0034510
  O        1.3559990     1.0186560    -0.3729610
  O       -0.3886030    -0.8294050    -0.1958090
  O        1.9273580    -1.4129110    -1.0480400
  O        1.6168640    -0.7815310     1.4560350
  O       -1.8332320     1.0931450    -1.2188660
  O       -1.6562150     0.8578460     1.3638040
  O       -2.8968830    -0.9395270    -0.0292720
  C        2.6327020     1.5445327     0.0003361
  H        2.7349980     1.6139230     1.0781470
  H        3.4479520     0.9704660    -0.4205400
  H        2.6752270     2.5733270    -0.4286450
units angstrom
no_reorient  #important for SAPT in psi4, default
symmetry c1  #important for SAPT in psi4, default
}

set PROPERTIES_ORIGIN ["COM"]
properties('MP2/aug-cc-pvtz', properties = ['dipole'])
--------------------------------------------------------------------------

    Molecular point group: c1
  Charge       = -3
  Multiplicity = 1
  Basis Set: AUG-CC-PVTZ
    Blend: AUG-CC-PVTZ
  Basis Set: (AUG-CC-PVTZ AUX)
    Blend: AUG-CC-PVTZ-JKFIT

    Orbital Energies [Eh]
    ---------------------

    Doubly Occupied:

       1A    -79.622045     2A    -79.555526     3A    -20.155470
       4A    -20.073761     5A    -20.057303     6A    -20.055885
       7A    -19.996430     8A    -19.996038     9A    -19.994688
      10A    -10.918472    11A     -7.136538    12A     -7.069308
      13A     -5.035771    14A     -5.034235    15A     -5.033604
      16A     -4.968823    17A     -4.966471    18A     -4.966340
      19A     -0.967665    20A     -0.882024    21A     -0.843528
      22A     -0.811487    23A     -0.793131    24A     -0.738905
      25A     -0.737562    26A     -0.561319    27A     -0.335009
      28A     -0.277035    29A     -0.260757    30A     -0.222611
      31A     -0.189750    32A     -0.145668    33A     -0.142784
      34A     -0.117686    35A     -0.088320    36A     -0.086395
      37A     -0.067008    38A     -0.057326    39A     -0.041596
      40A     -0.037227    41A     -0.026048    42A      0.002703
      43A      0.018261    44A      0.025602    45A      0.028218
      46A      0.030318    47A      0.068422    48A      0.071828
      49A      0.095879

  @DF-RHF Final Energy: -1245.34149200964998

   => Energetics <=

    Nuclear Repulsion Energy =            820.1268980446560590
    One-Electron Energy =               -3405.4841382081913252
    Two-Electron Energy =                1340.0157481538851698
    Total Energy =                      -1245.3414920096499827
  Basis Set: (AUG-CC-PVTZ AUX)
    Blend: AUG-CC-PVTZ-RI
    Molecular point group: c1

    Geometry (in Angstrom), charge = -3, multiplicity = 1:

       Center              X                  Y                   Z               Mass
    ------------   -----------------  -----------------  -----------------  -----------------
         P            1.265161019509    -0.576114390495     0.018527558318    30.973761998420
         P           -1.789291080491     0.197095409505     0.002222658318    30.973761998420
         O            1.400886919509     1.049381409505    -0.374189341682    15.994914619570
         O           -0.343715080491    -0.798679590495    -0.197037341682    15.994914619570
         O            1.972245919509    -1.382185590495    -1.049268341682    15.994914619570
         O            1.661751919509    -0.750805590495     1.454806658318    15.994914619570
         O           -1.788344080491     1.123870409505    -1.220094341682    15.994914619570
         O           -1.611327080491     0.888571409505     1.362575658318    15.994914619570
         O           -2.851995080491    -0.908801590495    -0.030500341682    15.994914619570
         C            2.677589919509     1.575258109505    -0.000892241682    12.000000000000
         H            2.779885919509     1.644648409505     1.076918658318     1.007825032230
         H            3.492839919509     1.001191409505    -0.421768341682     1.007825032230
         H            2.720114919509     2.604052409505    -0.429873341682     1.007825032230

  Basis Set: AUG-CC-PVTZ
    Blend: AUG-CC-PVTZ
  Basis Set: (AUG-CC-PVTZ AUX)
    Blend: AUG-CC-PVTZ-JKFIT
	 Reference Energy          =   -1245.3414920096499827 [Eh]
	 Singles Energy            =      -0.0000000000000000 [Eh]
	 Same-Spin Energy          =      -0.6461323417709792 [Eh]
	 Opposite-Spin Energy      =      -1.8066121855091548 [Eh]
	 Correlation Energy        =      -2.4527445272801343 [Eh]
	 Total Energy              =   -1247.7942365369301569 [Eh]

	 ================> DF-SCS-MP2 Energies <==================
	-----------------------------------------------------------
	 SCS Same-Spin Scale       =       0.3333333333333333 [-]
	 SCS Opposite-Spin Scale   =       1.2000000000000000 [-]
	 SCS Same-Spin Energy      =      -0.2153774472569931 [Eh]
	 SCS Opposite-Spin Energy  =      -2.1679346226109857 [Eh]
	 SCS Correlation Energy    =      -2.3833120698679786 [Eh]
	 SCS Total Energy          =   -1247.7248040795179804 [Eh]
	-----------------------------------------------------------

  Dipole Moment: [D]
     X:     8.3768      Y:     2.2121      Z:    -0.3155     Total:     8.6697

*** Psi4 exiting successfully. Buy a developer a beer!
