                               Psi4 1.4a3.dev225

  ==> Input File <==

--------------------------------------------------------------------------
#psi4
#
memory 32 gb

molecule  {
-3 1
  P       -1.1253500     0.3591720     0.0081310
  P        2.0878660    -0.1053470     0.0007630
  O       -2.1391380    -1.0979190    -0.1147190
  O        0.2405970    -0.4148950    -0.1339660
  O       -1.5628960     1.1822930    -1.2021870
  O       -1.4752280     0.9069340     1.3887990
  O        2.4385690    -0.8874190     1.2758270
  O        2.1989840     1.4211450     0.0869110
  O        2.5832683    -0.7687948    -1.3534541
  C       -3.4907010    -0.7724380    -0.0147870
  H       -3.7335280    -0.2943150     0.9495100
  H       -3.8114220    -0.0788120    -0.8111520
  H       -4.0969940    -1.6975630    -0.1019980
units angstrom
no_reorient  #important for SAPT in psi4, default
symmetry c1  #important for SAPT in psi4, default
}

set PROPERTIES_ORIGIN ["COM"]
properties('MP2/aug-cc-pvtz', properties = ['dipole'])
--------------------------------------------------------------------------

    Molecular point group: c1
  Charge       = -3
  Multiplicity = 1
  Basis Set: AUG-CC-PVTZ
    Blend: AUG-CC-PVTZ
  Basis Set: (AUG-CC-PVTZ AUX)
    Blend: AUG-CC-PVTZ-JKFIT

    Orbital Energies [Eh]
    ---------------------

    Doubly Occupied:

       1A    -79.630601     2A    -79.594697     3A    -20.146385
       4A    -20.091421     5A    -20.057006     6A    -20.056928
       7A    -20.027349     8A    -20.026474     9A    -20.025285
      10A    -10.911879    11A     -7.143498    12A     -7.106589
      13A     -5.042939    14A     -5.041120    15A     -5.040267
      16A     -5.006368    17A     -5.003380    18A     -5.003038
      19A     -0.956924    20A     -0.888172    21A     -0.846019
      22A     -0.816545    23A     -0.802632    24A     -0.767198
      25A     -0.751876    26A     -0.543481    27A     -0.336271
      28A     -0.270056    29A     -0.246974    30A     -0.213493
      31A     -0.206217    32A     -0.157578    33A     -0.144583
      34A     -0.118582    35A     -0.098671    36A     -0.096572
      37A     -0.079568    38A     -0.054258    39A     -0.049844
      40A     -0.031436    41A     -0.015042    42A     -0.002567
      43A      0.002949    44A      0.004876    45A      0.008723
      46A      0.021261    47A      0.040808    48A      0.048947
      49A      0.069108

  @DF-RHF Final Energy: -1245.33568258590344

   => Energetics <=

    Nuclear Repulsion Energy =            794.7995007259756903
    One-Electron Energy =               -3353.7641464156090478
    Two-Electron Energy =                1313.6289631037300296
    Total Energy =                      -1245.3356825859034416
  Basis Set: (AUG-CC-PVTZ AUX)
    Blend: AUG-CC-PVTZ-RI
    Molecular point group: c1

    Geometry (in Angstrom), charge = -3, multiplicity = 1:

       Center              X                  Y                   Z               Mass
    ------------   -----------------  -----------------  -----------------  -----------------
         P           -1.192707265058     0.348768776235     0.011887183249    30.973761998420
         P            2.020508734942    -0.115750223765     0.004519183249    30.973761998420
         O           -2.206495265058    -1.108322223765    -0.110962816751    15.994914619570
         O            0.173239734942    -0.425298223765    -0.130209816751    15.994914619570
         O           -1.630253265058     1.171889776235    -1.198430816751    15.994914619570
         O           -1.542585265058     0.896530776235     1.392555183249    15.994914619570
         O            2.371211734942    -0.897822223765     1.279583183249    15.994914619570
         O            2.131626734942     1.410741776235     0.090667183249    15.994914619570
         O            2.515911034942    -0.779198023765    -1.349697916751    15.994914619570
         C           -3.558058265058    -0.782841223765    -0.011030816751    12.000000000000
         H           -3.800885265058    -0.304718223765     0.953266183249     1.007825032230
         H           -3.878779265058    -0.089215223765    -0.807395816751     1.007825032230
         H           -4.164351265058    -1.707966223765    -0.098241816751     1.007825032230

  Basis Set: AUG-CC-PVTZ
    Blend: AUG-CC-PVTZ
  Basis Set: (AUG-CC-PVTZ AUX)
    Blend: AUG-CC-PVTZ-JKFIT
	 Reference Energy          =   -1245.3356825859034416 [Eh]
	 Singles Energy            =      -0.0000000000000000 [Eh]
	 Same-Spin Energy          =      -0.6484063805551813 [Eh]
	 Opposite-Spin Energy      =      -1.8125975864153543 [Eh]
	 Correlation Energy        =      -2.4610039669705355 [Eh]
	 Total Energy              =   -1247.7966865528740072 [Eh]

	 ================> DF-SCS-MP2 Energies <==================
	-----------------------------------------------------------
	 SCS Same-Spin Scale       =       0.3333333333333333 [-]
	 SCS Opposite-Spin Scale   =       1.2000000000000000 [-]
	 SCS Same-Spin Energy      =      -0.2161354601850604 [Eh]
	 SCS Opposite-Spin Energy  =      -2.1751171036984251 [Eh]
	 SCS Correlation Energy    =      -2.3912525638834854 [Eh]
	 SCS Total Energy          =   -1247.7269351497868684 [Eh]
	-----------------------------------------------------------

  Dipole Moment: [D]
     X:    -7.8778      Y:    -1.6601      Z:     0.1377     Total:     8.0520

*** Psi4 exiting successfully. Buy a developer a beer!
