                               Psi4 1.4a3.dev225

  ==> Input File <==

--------------------------------------------------------------------------
#psi4
#
memory 32 gb

molecule  {
-3 1
  P       -1.1253500     0.3591720     0.0081310
  P        2.0878660    -0.1053470     0.0007630
  O       -2.1391380    -1.0979190    -0.1147190
  O        0.2405970    -0.4148950    -0.1339660
  O       -1.5628960     1.1822930    -1.2021870
  O       -1.4752280     0.9069340     1.3887990
  O        2.4385690    -0.8874190     1.2758270
  O        2.2026083     1.4709342     0.0897209
  O        2.5676630    -0.7478960    -1.3107960
  C       -3.4907010    -0.7724380    -0.0147870
  H       -3.7335280    -0.2943150     0.9495100
  H       -3.8114220    -0.0788120    -0.8111520
  H       -4.0969940    -1.6975630    -0.1019980
units angstrom
no_reorient  #important for SAPT in psi4, default
symmetry c1  #important for SAPT in psi4, default
}

set PROPERTIES_ORIGIN ["COM"]
properties('MP2/aug-cc-pvtz', properties = ['dipole'])
--------------------------------------------------------------------------

    Molecular point group: c1
  Charge       = -3
  Multiplicity = 1
  Basis Set: AUG-CC-PVTZ
    Blend: AUG-CC-PVTZ
  Basis Set: (AUG-CC-PVTZ AUX)
    Blend: AUG-CC-PVTZ-JKFIT

    Orbital Energies [Eh]
    ---------------------

    Doubly Occupied:

       1A    -79.630027     2A    -79.594479     3A    -20.146224
       4A    -20.091509     5A    -20.056375     6A    -20.056023
       7A    -20.027259     8A    -20.027151     9A    -20.024027
      10A    -10.911722    11A     -7.142937    12A     -7.106358
      13A     -5.042378    14A     -5.040559    15A     -5.039698
      16A     -5.006136    17A     -5.003167    18A     -5.002788
      19A     -0.956716    20A     -0.887968    21A     -0.845679
      22A     -0.816134    23A     -0.801867    24A     -0.766074
      25A     -0.752418    26A     -0.543321    27A     -0.336066
      28A     -0.269879    29A     -0.246790    30A     -0.213330
      31A     -0.205933    32A     -0.157519    33A     -0.144151
      34A     -0.118029    35A     -0.098196    36A     -0.097176
      37A     -0.077418    38A     -0.054663    39A     -0.049674
      40A     -0.030629    41A     -0.014578    42A     -0.002974
      43A      0.001683    44A      0.006675    45A      0.008953
      46A      0.021215    47A      0.044923    48A      0.046584
      49A      0.069381

  @DF-RHF Final Energy: -1245.33541495111331

   => Energetics <=

    Nuclear Repulsion Energy =            794.8804793140352558
    One-Electron Energy =               -3353.9586216579182292
    Two-Electron Energy =                1313.7427273927696660
    Total Energy =                      -1245.3354149511133073
  Basis Set: (AUG-CC-PVTZ AUX)
    Blend: AUG-CC-PVTZ-RI
    Molecular point group: c1

    Geometry (in Angstrom), charge = -3, multiplicity = 1:

       Center              X                  Y                   Z               Mass
    ------------   -----------------  -----------------  -----------------  -----------------
         P           -1.191692976202     0.342784463523     0.008037948154    30.973761998420
         P            2.021523023798    -0.121734536477     0.000669948154    30.973761998420
         O           -2.205480976202    -1.114306536477    -0.114812051846    15.994914619570
         O            0.174254023798    -0.431282536477    -0.134059051846    15.994914619570
         O           -1.629238976202     1.165905463523    -1.202280051846    15.994914619570
         O           -1.541570976202     0.890546463523     1.388705948154    15.994914619570
         O            2.372226023798    -0.903806536477     1.275733948154    15.994914619570
         O            2.136265323798     1.454546663523     0.089627848154    15.994914619570
         O            2.501320023798    -0.764283536477    -1.310889051846    15.994914619570
         C           -3.557043976202    -0.788825536477    -0.014880051846    12.000000000000
         H           -3.799870976202    -0.310702536477     0.949416948154     1.007825032230
         H           -3.877764976202    -0.095199536477    -0.811245051846     1.007825032230
         H           -4.163336976202    -1.713950536477    -0.102091051846     1.007825032230

  Basis Set: AUG-CC-PVTZ
    Blend: AUG-CC-PVTZ
  Basis Set: (AUG-CC-PVTZ AUX)
    Blend: AUG-CC-PVTZ-JKFIT
	 Reference Energy          =   -1245.3354149511133073 [Eh]
	 Singles Energy            =      -0.0000000000000000 [Eh]
	 Same-Spin Energy          =      -0.6484332725322758 [Eh]
	 Opposite-Spin Energy      =      -1.8126462311820732 [Eh]
	 Correlation Energy        =      -2.4610795037143491 [Eh]
	 Total Energy              =   -1247.7964944548275525 [Eh]

	 ================> DF-SCS-MP2 Energies <==================
	-----------------------------------------------------------
	 SCS Same-Spin Scale       =       0.3333333333333333 [-]
	 SCS Opposite-Spin Scale   =       1.2000000000000000 [-]
	 SCS Same-Spin Energy      =      -0.2161444241774252 [Eh]
	 SCS Opposite-Spin Energy  =      -2.1751754774184877 [Eh]
	 SCS Correlation Energy    =      -2.3913199015959128 [Eh]
	 SCS Total Energy          =   -1247.7267348527091144 [Eh]
	-----------------------------------------------------------

  Dipole Moment: [D]
     X:    -7.7907      Y:    -2.1403      Z:    -0.1876     Total:     8.0816

*** Psi4 exiting successfully. Buy a developer a beer!
