                               Psi4 1.3.2 release

  ==> Input File <==

--------------------------------------------------------------------------
#psi4
#
memory 32 gb

molecule  {
-3 1
  P        1.1931290    -0.6069630     0.0087730
  P       -1.8341790     0.1663700     0.0034510
  O        1.3559990     1.0186560    -0.3729610
  O       -0.3899633    -0.8319390    -0.1820536
  O        1.9273580    -1.4129110    -1.0480400
  O        1.6043004    -0.7841268     1.4593397
  O       -1.8332320     1.0931450    -1.2188660
  O       -1.6562150     0.8578460     1.3638040
  O       -2.8968830    -0.9395270    -0.0292720
  C        2.6258790     1.5668310    -0.0085760
  H        2.7349980     1.6139230     1.0781470
  H        3.4479520     0.9704660    -0.4205400
  H        2.6752270     2.5733270    -0.4286450
units angstrom
no_reorient  #important for SAPT in psi4, default
symmetry c1  #important for SAPT in psi4, default
}

set PROPERTIES_ORIGIN ["COM"]
properties('MP2/aug-cc-pvtz', properties = ['dipole'])
--------------------------------------------------------------------------

    Molecular point group: c1
  Charge       = -3
  Multiplicity = 1
  Basis Set: AUG-CC-PVTZ
    Blend: AUG-CC-PVTZ
  Basis Set: (AUG-CC-PVTZ AUX)
    Blend: AUG-CC-PVTZ-JKFIT

    Orbital Energies [Eh]
    ---------------------

    Doubly Occupied:

       1A    -79.622019     2A    -79.558659     3A    -20.153457
       4A    -20.079687     5A    -20.055708     6A    -20.050069
       7A    -19.999430     8A    -19.998272     9A    -19.996354
      10A    -10.917609    11A     -7.136064    12A     -7.072467
      13A     -5.035367    14A     -5.033867    15A     -5.033031
      16A     -4.972031    17A     -4.969589    18A     -4.969452
      19A     -0.965531    20A     -0.886560    21A     -0.841314
      22A     -0.802991    23A     -0.798442    24A     -0.741547
      25A     -0.739565    26A     -0.561111    27A     -0.336252
      28A     -0.282317    29A     -0.254635    30A     -0.228799
      31A     -0.186770    32A     -0.147157    33A     -0.143702
      34A     -0.114636    35A     -0.092589    36A     -0.088459
      37A     -0.063677    38A     -0.057310    39A     -0.042665
      40A     -0.037772    41A     -0.022453    42A      0.007635
      43A      0.021623    44A      0.022811    45A      0.026162
      46A      0.028329    47A      0.065545    48A      0.069125
      49A      0.093686

  @DF-RHF Final Energy: -1245.34483535608069

   => Energetics <=

    Nuclear Repulsion Energy =            820.5235956699220878
    One-Electron Energy =               -3406.2279270631670443
    Two-Electron Energy =                1340.3594960371642628
    Total Energy =                      -1245.3448353560806936
  Basis Set: (AUG-CC-PVTZ AUX)
    Blend: AUG-CC-PVTZ-RI
    Molecular point group: c1

    Geometry (in Angstrom), charge = -3, multiplicity = 1:

       Center              X                  Y                   Z               Mass
    ------------   -----------------  -----------------  -----------------  -----------------
         P            1.244079004624    -0.577199363239     0.008466942265    30.973761998420
         P           -1.783228995376     0.196133636761     0.003144942265    30.973761998420
         O            1.406949004624     1.048419636761    -0.373267057735    15.994914619570
         O           -0.339013295376    -0.802175363239    -0.182359657735    15.994914619570
         O            1.978308004624    -1.383147363239    -1.048346057735    15.994914619570
         O            1.655250404624    -0.754363163239     1.459033642265    15.994914619570
         O           -1.782281995376     1.122908636761    -1.219172057735    15.994914619570
         O           -1.605264995376     0.887609636761     1.363497942265    15.994914619570
         O           -2.845932995376    -0.909763363239    -0.029578057735    15.994914619570
         C            2.676829004624     1.596594636761    -0.008882057735    12.000000000000
         H            2.785948004624     1.643686636761     1.077840942265     1.007825032230
         H            3.498902004624     1.000229636761    -0.420846057735     1.007825032230
         H            2.726177004624     2.603090636761    -0.428951057735     1.007825032230

  Basis Set: AUG-CC-PVTZ
    Blend: AUG-CC-PVTZ
  Basis Set: (AUG-CC-PVTZ AUX)
    Blend: AUG-CC-PVTZ-JKFIT
	 Reference Energy          =   -1245.3448353560806936 [Eh]
	 Singles Energy            =      -0.0000000000000000 [Eh]
	 Same-Spin Energy          =      -0.6460300020637584 [Eh]
	 Opposite-Spin Energy      =      -1.8063229411414543 [Eh]
	 Correlation Energy        =      -2.4523529432052129 [Eh]
	 Total Energy              =   -1247.7971882992858355 [Eh]

	 ================> DF-SCS-MP2 Energies <==================
	-----------------------------------------------------------
	 SCS Same-Spin Scale       =       0.3333333333333333 [-]
	 SCS Opposite-Spin Scale   =       1.2000000000000000 [-]
	 SCS Same-Spin Energy      =      -0.2153433340212528 [Eh]
	 SCS Opposite-Spin Energy  =      -2.1675875293697451 [Eh]
	 SCS Correlation Energy    =      -2.3829308633909978 [Eh]
	 SCS Total Energy          =   -1247.7277662194717323 [Eh]
	-----------------------------------------------------------

  Dipole Moment: [D]
     X:     7.9602      Y:     2.3371      Z:    -0.5046     Total:     8.3115

*** Psi4 exiting successfully. Buy a developer a beer!
