                               Psi4 1.3.2 release

  ==> Input File <==

--------------------------------------------------------------------------
#psi4
#
memory 32 gb

molecule  {
-3 1
  P        1.1931290    -0.6069630     0.0087730
  P       -1.8341790     0.1663700     0.0034510
  O        1.3559990     1.0186560    -0.3729610
  O       -0.3886030    -0.8294050    -0.1958090
  O        1.9273580    -1.4129110    -1.0480400
  O        1.6168640    -0.7815310     1.4560350
  O       -1.8332320     1.0931450    -1.2188660
  O       -1.6562150     0.8578460     1.3638040
  O       -2.8968830    -0.9395270    -0.0292720
  C        2.6258790     1.5668310    -0.0085760
  H        2.7349980     1.6139230     1.0781470
  H        3.4479520     0.9704660    -0.4205400
  H        2.6752270     2.5733270    -0.4286450
units angstrom
no_reorient  #important for SAPT in psi4, default
symmetry c1  #important for SAPT in psi4, default
}

set PROPERTIES_ORIGIN ["COM"]
properties('MP2/aug-cc-pvtz', properties = ['dipole'])
--------------------------------------------------------------------------

    Molecular point group: c1
  Charge       = -3
  Multiplicity = 1
  Basis Set: AUG-CC-PVTZ
    Blend: AUG-CC-PVTZ
  Basis Set: (AUG-CC-PVTZ AUX)
    Blend: AUG-CC-PVTZ-JKFIT

    Orbital Energies [Eh]
    ---------------------

    Doubly Occupied:

       1A    -79.621983     2A    -79.559070     3A    -20.152867
       4A    -20.080516     5A    -20.054703     6A    -20.050803
       7A    -19.999240     8A    -19.998748     9A    -19.997233
      10A    -10.917082    11A     -7.136024    12A     -7.072882
      13A     -5.035331    14A     -5.033809    15A     -5.033008
      16A     -4.972446    17A     -4.969998    18A     -4.969866
      19A     -0.965187    20A     -0.886564    21A     -0.841481
      22A     -0.802887    23A     -0.798891    24A     -0.741706
      25A     -0.740167    26A     -0.560619    27A     -0.336093
      28A     -0.282094    29A     -0.254144    30A     -0.228383
      31A     -0.187032    32A     -0.147216    33A     -0.143657
      34A     -0.114426    35A     -0.092746    36A     -0.088605
      37A     -0.063220    38A     -0.057618    39A     -0.043041
      40A     -0.038022    41A     -0.022160    42A      0.007339
      43A      0.021053    44A      0.022716    45A      0.025868
      46A      0.028312    47A      0.065157    48A      0.068600
      49A      0.093308

  @DF-RHF Final Energy: -1245.34522058702169

   => Energetics <=

    Nuclear Repulsion Energy =            820.4377172720977569
    One-Electron Energy =               -3406.0474474829761675
    Two-Electron Energy =                1340.2645096238566111
    Total Energy =                      -1245.3452205870216858
  Basis Set: (AUG-CC-PVTZ AUX)
    Blend: AUG-CC-PVTZ-RI
    Molecular point group: c1

    Geometry (in Angstrom), charge = -3, multiplicity = 1:

       Center              X                  Y                   Z               Mass
    ------------   -----------------  -----------------  -----------------  -----------------
         P            1.242900233520    -0.577633642429     0.009911218144    30.973761998420
         P           -1.784407766480     0.195699357571     0.004589218144    30.973761998420
         O            1.405770233520     1.047985357571    -0.371822781856    15.994914619570
         O           -0.338831766480    -0.800075642429    -0.194670781856    15.994914619570
         O            1.977129233520    -1.383581642429    -1.046901781856    15.994914619570
         O            1.666635233520    -0.752201642429     1.457173218144    15.994914619570
         O           -1.783460766480     1.122474357571    -1.217727781856    15.994914619570
         O           -1.606443766480     0.887175357571     1.364942218144    15.994914619570
         O           -2.847111766480    -0.910197642429    -0.028133781856    15.994914619570
         C            2.675650233520     1.596160357571    -0.007437781856    12.000000000000
         H            2.784769233520     1.643252357571     1.079285218144     1.007825032230
         H            3.497723233520     0.999795357571    -0.419401781856     1.007825032230
         H            2.724998233520     2.602656357571    -0.427506781856     1.007825032230

  Basis Set: AUG-CC-PVTZ
    Blend: AUG-CC-PVTZ
  Basis Set: (AUG-CC-PVTZ AUX)
    Blend: AUG-CC-PVTZ-JKFIT
	 Reference Energy          =   -1245.3452205870216858 [Eh]
	 Singles Energy            =      -0.0000000000000000 [Eh]
	 Same-Spin Energy          =      -0.6460350678768076 [Eh]
	 Opposite-Spin Energy      =      -1.8063400434615140 [Eh]
	 Correlation Energy        =      -2.4523751113383216 [Eh]
	 Total Energy              =   -1247.7975956983600554 [Eh]

	 ================> DF-SCS-MP2 Energies <==================
	-----------------------------------------------------------
	 SCS Same-Spin Scale       =       0.3333333333333333 [-]
	 SCS Opposite-Spin Scale   =       1.2000000000000000 [-]
	 SCS Same-Spin Energy      =      -0.2153450226256025 [Eh]
	 SCS Opposite-Spin Energy  =      -2.1676080521538168 [Eh]
	 SCS Correlation Energy    =      -2.3829530747794192 [Eh]
	 SCS Total Energy          =   -1247.7281736618010655 [Eh]
	-----------------------------------------------------------

  Dipole Moment: [D]
     X:     7.9128      Y:     2.3324      Z:    -0.4718     Total:     8.2629

*** Psi4 exiting successfully. Buy a developer a beer!
