                               Psi4 1.3.2 release

  ==> Input File <==

--------------------------------------------------------------------------
#psi4
#
memory 32 gb

molecule  {
-3 1
  P        1.1931290    -0.6069630     0.0087730
  P       -1.8341790     0.1663700     0.0034510
  O        1.3559990     1.0186560    -0.3729610
  O       -0.3886030    -0.8294050    -0.1958090
  O        1.9423909    -1.4236747    -1.0290549
  O        1.6352038    -0.7990245     1.4483128
  O       -1.8332320     1.0931450    -1.2188660
  O       -1.6562150     0.8578460     1.3638040
  O       -2.8968830    -0.9395270    -0.0292720
  C        2.6258790     1.5668310    -0.0085760
  H        2.7349980     1.6139230     1.0781470
  H        3.4479520     0.9704660    -0.4205400
  H        2.6752270     2.5733270    -0.4286450
units angstrom
no_reorient  #important for SAPT in psi4, default
symmetry c1  #important for SAPT in psi4, default
}

set PROPERTIES_ORIGIN ["COM"]
properties('MP2/aug-cc-pvtz', properties = ['dipole'])
--------------------------------------------------------------------------

    Molecular point group: c1
  Charge       = -3
  Multiplicity = 1
  Basis Set: AUG-CC-PVTZ
    Blend: AUG-CC-PVTZ
  Basis Set: (AUG-CC-PVTZ AUX)
    Blend: AUG-CC-PVTZ-JKFIT

    Orbital Energies [Eh]
    ---------------------

    Doubly Occupied:

       1A    -79.621892     2A    -79.559986     3A    -20.154312
       4A    -20.082401     5A    -20.053061     6A    -20.049150
       7A    -20.000054     8A    -19.999506     9A    -19.998146
      10A    -10.917515    11A     -7.135928    12A     -7.073810
      13A     -5.035227    14A     -5.033647    15A     -5.032966
      16A     -4.973379    17A     -4.970918    18A     -4.970788
      19A     -0.965927    20A     -0.887389    21A     -0.841975
      22A     -0.800728    23A     -0.799689    24A     -0.742498
      25A     -0.741043    26A     -0.561167    27A     -0.336902
      28A     -0.282774    29A     -0.254669    30A     -0.229200
      31A     -0.186939    32A     -0.147807    33A     -0.143137
      34A     -0.115092    35A     -0.093782    36A     -0.089039
      37A     -0.063282    38A     -0.058024    39A     -0.043614
      40A     -0.038031    41A     -0.022339    42A      0.008454
      43A      0.021288    44A      0.022123    45A      0.025090
      46A      0.028819    47A      0.064315    48A      0.067675
      49A      0.092491

  @DF-RHF Final Energy: -1245.34566276384567

   => Energetics <=

    Nuclear Repulsion Energy =            820.0938811067753704
    One-Electron Energy =               -3405.3241252604748297
    Two-Electron Energy =                1339.8845813898537926
    Total Energy =                      -1245.3456627638456666
  Basis Set: (AUG-CC-PVTZ AUX)
    Blend: AUG-CC-PVTZ-RI
    Molecular point group: c1

    Geometry (in Angstrom), charge = -3, multiplicity = 1:

       Center              X                  Y                   Z               Mass
    ------------   -----------------  -----------------  -----------------  -----------------
         P            1.240074963703    -0.575241441190     0.008957722279    30.973761998420
         P           -1.787233036297     0.198091558810     0.003635722279    30.973761998420
         O            1.402944963703     1.050377558810    -0.372776277721    15.994914619570
         O           -0.341657036297    -0.797683441190    -0.195624277721    15.994914619570
         O            1.989336863703    -1.391953141190    -1.028870177721    15.994914619570
         O            1.682149763703    -0.767302941190     1.448497522279    15.994914619570
         O           -1.786286036297     1.124866558810    -1.218681277721    15.994914619570
         O           -1.609269036297     0.889567558810     1.363988722279    15.994914619570
         O           -2.849937036297    -0.907805441190    -0.029087277721    15.994914619570
         C            2.672824963703     1.598552558810    -0.008391277721    12.000000000000
         H            2.781943963703     1.645644558810     1.078331722279     1.007825032230
         H            3.494897963703     1.002187558810    -0.420355277721     1.007825032230
         H            2.722172963703     2.605048558810    -0.428460277721     1.007825032230

  Basis Set: AUG-CC-PVTZ
    Blend: AUG-CC-PVTZ
  Basis Set: (AUG-CC-PVTZ AUX)
    Blend: AUG-CC-PVTZ-JKFIT
	 Reference Energy          =   -1245.3456627638456666 [Eh]
	 Singles Energy            =      -0.0000000000000000 [Eh]
	 Same-Spin Energy          =      -0.6459635734873685 [Eh]
	 Opposite-Spin Energy      =      -1.8062205927921626 [Eh]
	 Correlation Energy        =      -2.4521841662795314 [Eh]
	 Total Energy              =   -1247.7978469301251607 [Eh]

	 ================> DF-SCS-MP2 Energies <==================
	-----------------------------------------------------------
	 SCS Same-Spin Scale       =       0.3333333333333333 [-]
	 SCS Opposite-Spin Scale   =       1.2000000000000000 [-]
	 SCS Same-Spin Energy      =      -0.2153211911624562 [Eh]
	 SCS Opposite-Spin Energy  =      -2.1674647113505952 [Eh]
	 SCS Correlation Energy    =      -2.3827859025130511 [Eh]
	 SCS Total Energy          =   -1247.7284486663586449 [Eh]
	-----------------------------------------------------------

  Dipole Moment: [D]
     X:     7.8184      Y:     2.4109      Z:    -0.4996     Total:     8.1969

*** Psi4 exiting successfully. Buy a developer a beer!
