                               Psi4 1.3.2 release

  ==> Input File <==

--------------------------------------------------------------------------
#psi4
#
memory 32 gb

molecule  {
-3 1
  P        1.1120274    -0.6043622    -0.0248598
  P       -1.8341790     0.1663700     0.0034510
  O        1.3559990     1.0186560    -0.3729610
  O       -0.3886030    -0.8294050    -0.1958090
  O        1.9273580    -1.4129110    -1.0480400
  O        1.6168640    -0.7815310     1.4560350
  O       -1.8332320     1.0931450    -1.2188660
  O       -1.6562150     0.8578460     1.3638040
  O       -2.8968830    -0.9395270    -0.0292720
  C        2.6030981     1.6326970    -0.0359672
  H        2.7349980     1.6139230     1.0781470
  H        3.4479520     0.9704660    -0.4205400
  H        2.6752270     2.5733270    -0.4286450
units angstrom
no_reorient  #important for SAPT in psi4, default
symmetry c1  #important for SAPT in psi4, default
}

set PROPERTIES_ORIGIN ["COM"]
properties('MP2/aug-cc-pvtz', properties = ['dipole'])
--------------------------------------------------------------------------

    Molecular point group: c1
  Charge       = -3
  Multiplicity = 1
  Basis Set: AUG-CC-PVTZ
    Blend: AUG-CC-PVTZ
  Basis Set: (AUG-CC-PVTZ AUX)
    Blend: AUG-CC-PVTZ-JKFIT

    Orbital Energies [Eh]
    ---------------------

    Doubly Occupied:

       1A    -79.622221     2A    -79.569921     3A    -20.146328
       4A    -20.100733     5A    -20.047594     6A    -20.036081
       7A    -20.008115     8A    -20.007073     9A    -20.005262
      10A    -10.914904    11A     -7.135763    12A     -7.083863
      13A     -5.035221    14A     -5.033821    15A     -5.032390
      16A     -4.983570    17A     -4.980831    18A     -4.980696
      19A     -0.963282    20A     -0.911981    21A     -0.833011
      22A     -0.808831    23A     -0.773792    24A     -0.750433
      25A     -0.748303    26A     -0.561516    27A     -0.347210
      28A     -0.291641    29A     -0.252227    30A     -0.234281
      31A     -0.180043    32A     -0.156104    33A     -0.150018
      34A     -0.114089    35A     -0.101600    36A     -0.088407
      37A     -0.067693    38A     -0.059542    39A     -0.041612
      40A     -0.028931    41A     -0.008782    42A      0.013495
      43A      0.015614    44A      0.017744    45A      0.024745
      46A      0.041058    47A      0.055350    48A      0.059103
      49A      0.085279

  @DF-RHF Final Energy: -1245.33453164448815

   => Energetics <=

    Nuclear Repulsion Energy =            821.5321966304079524
    One-Electron Energy =               -3407.9628078605046539
    Two-Electron Energy =                1341.0960795856083223
    Total Energy =                      -1245.3345316444881519
  Basis Set: (AUG-CC-PVTZ AUX)
    Blend: AUG-CC-PVTZ-RI
    Molecular point group: c1

    Geometry (in Angstrom), charge = -3, multiplicity = 1:

       Center              X                  Y                   Z               Mass
    ------------   -----------------  -----------------  -----------------  -----------------
         P            1.176541198625    -0.579642611448    -0.016468156971    30.973761998420
         P           -1.769665201375     0.191089588552     0.011842643029    30.973761998420
         O            1.420512798625     1.043375588552    -0.364569356971    15.994914619570
         O           -0.324089201375    -0.804685411448    -0.187417356971    15.994914619570
         O            1.991871798625    -1.388191411448    -1.039648356971    15.994914619570
         O            1.681377798625    -0.756811411448     1.464426643029    15.994914619570
         O           -1.768718201375     1.117864588552    -1.210474356971    15.994914619570
         O           -1.591701201375     0.882565588552     1.372195643029    15.994914619570
         O           -2.832369201375    -0.914807411448    -0.020880356971    15.994914619570
         C            2.667611898625     1.657416588552    -0.027575556971    12.000000000000
         H            2.799511798625     1.638642588552     1.086538643029     1.007825032230
         H            3.512465798625     0.995185588552    -0.412148356971     1.007825032230
         H            2.739740798625     2.598046588552    -0.420253356971     1.007825032230

  Basis Set: AUG-CC-PVTZ
    Blend: AUG-CC-PVTZ
  Basis Set: (AUG-CC-PVTZ AUX)
    Blend: AUG-CC-PVTZ-JKFIT
	 Reference Energy          =   -1245.3345316444881519 [Eh]
	 Singles Energy            =      -0.0000000000000000 [Eh]
	 Same-Spin Energy          =      -0.6462305183737720 [Eh]
	 Opposite-Spin Energy      =      -1.8066740288956766 [Eh]
	 Correlation Energy        =      -2.4529045472694486 [Eh]
	 Total Energy              =   -1247.7874361917577062 [Eh]

	 ================> DF-SCS-MP2 Energies <==================
	-----------------------------------------------------------
	 SCS Same-Spin Scale       =       0.3333333333333333 [-]
	 SCS Opposite-Spin Scale   =       1.2000000000000000 [-]
	 SCS Same-Spin Energy      =      -0.2154101727912573 [Eh]
	 SCS Opposite-Spin Energy  =      -2.1680088346748119 [Eh]
	 SCS Correlation Energy    =      -2.3834190074660691 [Eh]
	 SCS Total Energy          =   -1247.7179506519541974 [Eh]
	-----------------------------------------------------------

  Dipole Moment: [D]
     X:     6.4857      Y:     2.6967      Z:    -0.9479     Total:     7.0877

*** Psi4 exiting successfully. Buy a developer a beer!
