                               Psi4 1.3.2 release

  ==> Input File <==

--------------------------------------------------------------------------
#psi4
#
memory 32 gb

molecule  {
-3 1
  P        1.1766433    -0.5278703     0.0328640
  P       -1.7795637     0.2359565     0.0304554
  O        1.3559990     1.0186560    -0.3729610
  O       -0.3886030    -0.8294050    -0.1958090
  O        1.9273580    -1.4129110    -1.0480400
  O        1.6168640    -0.7815310     1.4560350
  O       -1.8332320     1.0931450    -1.2188660
  O       -1.6562150     0.8578460     1.3638040
  O       -2.8968830    -0.9395270    -0.0292720
  C        2.6258790     1.5668310    -0.0085760
  H        2.7349980     1.6139230     1.0781470
  H        3.4479520     0.9704660    -0.4205400
  H        2.6752270     2.5733270    -0.4286450
units angstrom
no_reorient  #important for SAPT in psi4, default
symmetry c1  #important for SAPT in psi4, default
}

set PROPERTIES_ORIGIN ["COM"]
properties('MP2/aug-cc-pvtz', properties = ['dipole'])
--------------------------------------------------------------------------

    Molecular point group: c1
  Charge       = -3
  Multiplicity = 1
  Basis Set: AUG-CC-PVTZ
    Blend: AUG-CC-PVTZ
  Basis Set: (AUG-CC-PVTZ AUX)
    Blend: AUG-CC-PVTZ-JKFIT

    Orbital Energies [Eh]
    ---------------------

    Doubly Occupied:

       1A    -79.624259     2A    -79.559508     3A    -20.173695
       4A    -20.085657     5A    -20.053608     6A    -20.041303
       7A    -20.012095     8A    -20.005377     9A    -19.982360
      10A    -10.931571    11A     -7.138450    12A     -7.074295
      13A     -5.037866    14A     -5.036276    15A     -5.035129
      16A     -4.973657    17A     -4.971750    18A     -4.970975
      19A     -0.996190    20A     -0.890903    21A     -0.841566
      22A     -0.811119    23A     -0.776371    24A     -0.765231
      25A     -0.705979    26A     -0.580371    27A     -0.351197
      28A     -0.288566    29A     -0.271808    30A     -0.249227
      31A     -0.190040    32A     -0.153888    33A     -0.145381
      34A     -0.121597    35A     -0.100290    36A     -0.094203
      37A     -0.073090    38A     -0.058968    39A     -0.048025
      40A     -0.028582    41A     -0.018993    42A      0.006633
      43A      0.019801    44A      0.023644    45A      0.033251
      46A      0.040131    47A      0.054235    48A      0.084657
      49A      0.100171

  @DF-RHF Final Energy: -1245.32522950818111

   => Energetics <=

    Nuclear Repulsion Energy =            823.1592954788642373
    One-Electron Energy =               -3411.1552587840915294
    Two-Electron Energy =                1342.6707337970460685
    Total Energy =                      -1245.3252295081811098
  Basis Set: (AUG-CC-PVTZ AUX)
    Blend: AUG-CC-PVTZ-RI
    Molecular point group: c1

    Geometry (in Angstrom), charge = -3, multiplicity = 1:

       Center              X                  Y                   Z               Mass
    ------------   -----------------  -----------------  -----------------  -----------------
         P            1.220163628997    -0.522915168329     0.025625721485    30.973761998420
         P           -1.736043371003     0.240911631671     0.023217121485    30.973761998420
         O            1.399519328997     1.023611131671    -0.380199278515    15.994914619570
         O           -0.345082671003    -0.824449868329    -0.203047278515    15.994914619570
         O            1.970878328997    -1.407955868329    -1.055278278515    15.994914619570
         O            1.660384328997    -0.776575868329     1.448796721485    15.994914619570
         O           -1.789711671003     1.098100131671    -1.226104278515    15.994914619570
         O           -1.612694671003     0.862801131671     1.356565721485    15.994914619570
         O           -2.853362671003    -0.934571868329    -0.036510278515    15.994914619570
         C            2.669399328997     1.571786131671    -0.015814278515    12.000000000000
         H            2.778518328997     1.618878131671     1.070908721485     1.007825032230
         H            3.491472328997     0.975421131671    -0.427778278515     1.007825032230
         H            2.718747328997     2.578282131671    -0.435883278515     1.007825032230

  Basis Set: AUG-CC-PVTZ
    Blend: AUG-CC-PVTZ
  Basis Set: (AUG-CC-PVTZ AUX)
    Blend: AUG-CC-PVTZ-JKFIT
	 Reference Energy          =   -1245.3252295081811098 [Eh]
	 Singles Energy            =      -0.0000000000000000 [Eh]
	 Same-Spin Energy          =      -0.6470691245443685 [Eh]
	 Opposite-Spin Energy      =      -1.8085298815784792 [Eh]
	 Correlation Energy        =      -2.4555990061228474 [Eh]
	 Total Energy              =   -1247.7808285143039484 [Eh]

	 ================> DF-SCS-MP2 Energies <==================
	-----------------------------------------------------------
	 SCS Same-Spin Scale       =       0.3333333333333333 [-]
	 SCS Opposite-Spin Scale   =       1.2000000000000000 [-]
	 SCS Same-Spin Energy      =      -0.2156897081814562 [Eh]
	 SCS Opposite-Spin Energy  =      -2.1702358578941747 [Eh]
	 SCS Correlation Energy    =      -2.3859255660756311 [Eh]
	 SCS Total Energy          =   -1247.7111550742567943 [Eh]
	-----------------------------------------------------------

  Dipole Moment: [D]
     X:     8.6046      Y:     4.3270      Z:     0.2688     Total:     9.6350

*** Psi4 exiting successfully. Buy a developer a beer!
