                               Psi4 1.3.2 release

  ==> Input File <==

--------------------------------------------------------------------------
#psi4
#
memory 32 gb

molecule  {
-3 1
  P        1.1931290    -0.6069630     0.0087730
  P       -1.8341790     0.1663700     0.0034510
  O        1.3559990     1.0186560    -0.3729610
  O       -0.3779157    -0.8138519    -0.2779777
  O        1.9273580    -1.4129110    -1.0480400
  O        1.6915347    -0.7656838     1.4339018
  O       -1.8332320     1.0931450    -1.2188660
  O       -1.6562150     0.8578460     1.3638040
  O       -2.8968830    -0.9395270    -0.0292720
  C        2.6258790     1.5668310    -0.0085760
  H        2.7349980     1.6139230     1.0781470
  H        3.4479520     0.9704660    -0.4205400
  H        2.6752270     2.5733270    -0.4286450
units angstrom
no_reorient  #important for SAPT in psi4, default
symmetry c1  #important for SAPT in psi4, default
}

set PROPERTIES_ORIGIN ["COM"]
properties('MP2/aug-cc-pvtz', properties = ['dipole'])
--------------------------------------------------------------------------

    Molecular point group: c1
  Charge       = -3
  Multiplicity = 1
  Basis Set: AUG-CC-PVTZ
    Blend: AUG-CC-PVTZ
  Basis Set: (AUG-CC-PVTZ AUX)
    Blend: AUG-CC-PVTZ-JKFIT

    Orbital Energies [Eh]
    ---------------------

    Doubly Occupied:

       1A    -79.621395     2A    -79.561776     3A    -20.149176
       4A    -20.085019     5A    -20.054730     6A    -20.048312
       7A    -20.002750     8A    -20.001925     9A    -19.998347
      10A    -10.913783    11A     -7.135468    12A     -7.075613
      13A     -5.034791    14A     -5.033156    15A     -5.032526
      16A     -4.975164    17A     -4.972699    18A     -4.972569
      19A     -0.963030    20A     -0.886066    21A     -0.842491
      22A     -0.805361    23A     -0.797499    24A     -0.744341
      25A     -0.742420    26A     -0.557529    27A     -0.334476
      28A     -0.279966    29A     -0.251075    30A     -0.225770
      31A     -0.188822    32A     -0.148579    33A     -0.141926
      34A     -0.112815    35A     -0.093537    36A     -0.089058
      37A     -0.060373    38A     -0.059502    39A     -0.045283
      40A     -0.039261    41A     -0.020417    42A      0.005482
      43A      0.018823    44A      0.021493    45A      0.024188
      46A      0.029786    47A      0.061438    48A      0.066706
      49A      0.090892

  @DF-RHF Final Energy: -1245.34456150855522

   => Energetics <=

    Nuclear Repulsion Energy =            819.8869288672627818
    One-Electron Energy =               -3404.9030086979391854
    Two-Electron Energy =                1339.6715183221213010
    Total Energy =                      -1245.3445615085552163
  Basis Set: (AUG-CC-PVTZ AUX)
    Blend: AUG-CC-PVTZ-RI
    Molecular point group: c1

    Geometry (in Angstrom), charge = -3, multiplicity = 1:

       Center              X                  Y                   Z               Mass
    ------------   -----------------  -----------------  -----------------  -----------------
         P            1.235673986286    -0.580291932584     0.018741220211    30.973761998420
         P           -1.791634013714     0.193041067416     0.013419220211    30.973761998420
         O            1.398543986286     1.045327067416    -0.362992779789    15.994914619570
         O           -0.335370713714    -0.787180832584    -0.268009479789    15.994914619570
         O            1.969902986286    -1.386239932584    -1.038071779789    15.994914619570
         O            1.734079686286    -0.739012732584     1.443870020211    15.994914619570
         O           -1.790687013714     1.119816067416    -1.208897779789    15.994914619570
         O           -1.613670013714     0.884517067416     1.373772220211    15.994914619570
         O           -2.854338013714    -0.912855932584    -0.019303779789    15.994914619570
         C            2.668423986286     1.593502067416     0.001392220211    12.000000000000
         H            2.777542986286     1.640594067416     1.088115220211     1.007825032230
         H            3.490496986286     0.997137067416    -0.410571779789     1.007825032230
         H            2.717771986286     2.599998067416    -0.418676779789     1.007825032230

  Basis Set: AUG-CC-PVTZ
    Blend: AUG-CC-PVTZ
  Basis Set: (AUG-CC-PVTZ AUX)
    Blend: AUG-CC-PVTZ-JKFIT
	 Reference Energy          =   -1245.3445615085552163 [Eh]
	 Singles Energy            =      -0.0000000000000000 [Eh]
	 Same-Spin Energy          =      -0.6462769233957715 [Eh]
	 Opposite-Spin Energy      =      -1.8068786112942792 [Eh]
	 Correlation Energy        =      -2.4531555346900507 [Eh]
	 Total Energy              =   -1247.7977170432452567 [Eh]

	 ================> DF-SCS-MP2 Energies <==================
	-----------------------------------------------------------
	 SCS Same-Spin Scale       =       0.3333333333333333 [-]
	 SCS Opposite-Spin Scale   =       1.2000000000000000 [-]
	 SCS Same-Spin Energy      =      -0.2154256411319238 [Eh]
	 SCS Opposite-Spin Energy  =      -2.1682543335531350 [Eh]
	 SCS Correlation Energy    =      -2.3836799746850588 [Eh]
	 SCS Total Energy          =   -1247.7282414832402537 [Eh]
	-----------------------------------------------------------

  Dipole Moment: [D]
     X:     7.6026      Y:     2.3101      Z:    -0.2728     Total:     7.9505

*** Psi4 exiting successfully. Buy a developer a beer!
