                               Psi4 1.3.2 release

  ==> Input File <==

--------------------------------------------------------------------------
#psi4
#
memory 32 gb

molecule  {
-3 1
  P        1.1931290    -0.6069630     0.0087730
  P       -1.8341790     0.1663700     0.0034510
  O        1.3559990     1.0186560    -0.3729610
  O       -0.4246596    -0.8793743    -0.1981329
  O        1.9273580    -1.4129110    -1.0480400
  O        1.6168640    -0.7815310     1.4560350
  O       -1.8332320     1.0931450    -1.2188660
  O       -1.6562150     0.8578460     1.3638040
  O       -2.8578067    -0.9755950    -0.0355505
  C        2.6258790     1.5668310    -0.0085760
  H        2.7349980     1.6139230     1.0781470
  H        3.4479520     0.9704660    -0.4205400
  H        2.6752270     2.5733270    -0.4286450
units angstrom
no_reorient  #important for SAPT in psi4, default
symmetry c1  #important for SAPT in psi4, default
}

set PROPERTIES_ORIGIN ["COM"]
properties('MP2/aug-cc-pvtz', properties = ['dipole'])
--------------------------------------------------------------------------

    Molecular point group: c1
  Charge       = -3
  Multiplicity = 1
  Basis Set: AUG-CC-PVTZ
    Blend: AUG-CC-PVTZ
  Basis Set: (AUG-CC-PVTZ AUX)
    Blend: AUG-CC-PVTZ-JKFIT

    Orbital Energies [Eh]
    ---------------------

    Doubly Occupied:

       1A    -79.625369     2A    -79.556371     3A    -20.156193
       4A    -20.078859     5A    -20.055763     6A    -20.052768
       7A    -20.000369     8A    -19.998637     9A    -19.993862
      10A    -10.919369    11A     -7.138905    12A     -7.070365
      13A     -5.038121    14A     -5.036598    15A     -5.035894
      16A     -4.969924    17A     -4.967449    18A     -4.967405
      19A     -0.966143    20A     -0.879910    21A     -0.841545
      22A     -0.804086    23A     -0.792824    24A     -0.741465
      25A     -0.739181    26A     -0.562816    27A     -0.333410
      28A     -0.276602    29A     -0.256272    30A     -0.229458
      31A     -0.187766    32A     -0.145699    33A     -0.141113
      34A     -0.115272    35A     -0.089802    36A     -0.087479
      37A     -0.064854    38A     -0.058983    39A     -0.039923
      40A     -0.035036    41A     -0.023194    42A      0.006629
      43A      0.022052    44A      0.024884    45A      0.025709
      46A      0.030237    47A      0.067903    48A      0.068821
      49A      0.093650

  @DF-RHF Final Energy: -1245.33794502437945

   => Energetics <=

    Nuclear Repulsion Energy =            819.1460040074921380
    One-Electron Energy =               -3403.4975626551386085
    Two-Electron Energy =                1339.0136136232670196
    Total Energy =                      -1245.3379450243794508
  Basis Set: (AUG-CC-PVTZ AUX)
    Blend: AUG-CC-PVTZ-RI
    Molecular point group: c1

    Geometry (in Angstrom), charge = -3, multiplicity = 1:

       Center              X                  Y                   Z               Mass
    ------------   -----------------  -----------------  -----------------  -----------------
         P            1.242644591416    -0.570349886938     0.010639481097    30.973761998420
         P           -1.784663408584     0.202983113062     0.005317481097    30.973761998420
         O            1.405514591416     1.055269113062    -0.371094518903    15.994914619570
         O           -0.375144008584    -0.842761186938    -0.196266418903    15.994914619570
         O            1.976873591416    -1.376297886938    -1.046173518903    15.994914619570
         O            1.666379591416    -0.744917886938     1.457901481097    15.994914619570
         O           -1.783716408584     1.129758113062    -1.216999518903    15.994914619570
         O           -1.606699408584     0.894459113062     1.365670481097    15.994914619570
         O           -2.808291108584    -0.938981886938    -0.033684018903    15.994914619570
         C            2.675394591416     1.603444113062    -0.006709518903    12.000000000000
         H            2.784513591416     1.650536113062     1.080013481097     1.007825032230
         H            3.497467591416     1.007079113062    -0.418673518903     1.007825032230
         H            2.724742591416     2.609940113062    -0.426778518903     1.007825032230

  Basis Set: AUG-CC-PVTZ
    Blend: AUG-CC-PVTZ
  Basis Set: (AUG-CC-PVTZ AUX)
    Blend: AUG-CC-PVTZ-JKFIT
	 Reference Energy          =   -1245.3379450243794508 [Eh]
	 Singles Energy            =      -0.0000000000000000 [Eh]
	 Same-Spin Energy          =      -0.6467921873859438 [Eh]
	 Opposite-Spin Energy      =      -1.8083159422495991 [Eh]
	 Correlation Energy        =      -2.4551081296355428 [Eh]
	 Total Energy              =   -1247.7930531540150696 [Eh]

	 ================> DF-SCS-MP2 Energies <==================
	-----------------------------------------------------------
	 SCS Same-Spin Scale       =       0.3333333333333333 [-]
	 SCS Opposite-Spin Scale   =       1.2000000000000000 [-]
	 SCS Same-Spin Energy      =      -0.2155973957953146 [Eh]
	 SCS Opposite-Spin Energy  =      -2.1699791306995189 [Eh]
	 SCS Correlation Energy    =      -2.3855765264948334 [Eh]
	 SCS Total Energy          =   -1247.7235215508742385 [Eh]
	-----------------------------------------------------------

  Dipole Moment: [D]
     X:     8.0828      Y:     2.4886      Z:    -0.4364     Total:     8.4685

*** Psi4 exiting successfully. Buy a developer a beer!
