                               Psi4 1.3.2 release

  ==> Input File <==

--------------------------------------------------------------------------
#psi4
#
memory 32 gb

molecule  {
-3 1
  P        1.1931290    -0.6069630     0.0087730
  P       -1.8341790     0.1663700     0.0034510
  O        1.3559990     1.0186560    -0.3729610
  O       -0.3919274    -0.8367420    -0.1826641
  O        1.9273580    -1.4129110    -1.0480400
  O        1.6168640    -0.7815310     1.4560350
  O       -1.8445472     1.0988129    -1.2145040
  O       -1.6562150     0.8578460     1.3638040
  O       -2.8968830    -0.9395270    -0.0292720
  C        2.6258790     1.5668310    -0.0085760
  H        2.7349980     1.6139230     1.0781470
  H        3.4479520     0.9704660    -0.4205400
  H        2.6752270     2.5733270    -0.4286450
units angstrom
no_reorient  #important for SAPT in psi4, default
symmetry c1  #important for SAPT in psi4, default
}

set PROPERTIES_ORIGIN ["COM"]
properties('MP2/aug-cc-pvtz', properties = ['dipole'])
--------------------------------------------------------------------------

    Molecular point group: c1
  Charge       = -3
  Multiplicity = 1
  Basis Set: AUG-CC-PVTZ
    Blend: AUG-CC-PVTZ
  Basis Set: (AUG-CC-PVTZ AUX)
    Blend: AUG-CC-PVTZ-JKFIT

    Orbital Energies [Eh]
    ---------------------

    Doubly Occupied:

       1A    -79.622663     2A    -79.558879     3A    -20.153691
       4A    -20.081271     5A    -20.055512     6A    -20.050592
       7A    -19.999837     8A    -19.997994     9A    -19.996368
      10A    -10.917662    11A     -7.136671    12A     -7.072695
      13A     -5.035969    14A     -5.034459    15A     -5.033646
      16A     -4.972246    17A     -4.969812    18A     -4.969684
      19A     -0.965734    20A     -0.886658    21A     -0.841613
      22A     -0.803104    23A     -0.798897    24A     -0.741535
      25A     -0.739565    26A     -0.561190    27A     -0.336316
      28A     -0.282364    29A     -0.254698    30A     -0.229045
      31A     -0.187046    32A     -0.147304    33A     -0.143867
      34A     -0.114871    35A     -0.092781    36A     -0.088743
      37A     -0.063779    38A     -0.057825    39A     -0.042914
      40A     -0.038116    41A     -0.022658    42A      0.007292
      43A      0.021442    44A      0.022664    45A      0.025928
      46A      0.028161    47A      0.065510    48A      0.068862
      49A      0.093725

  @DF-RHF Final Energy: -1245.34485670159847

   => Energetics <=

    Nuclear Repulsion Energy =            820.1702671945265593
    One-Electron Energy =               -3405.4968690133746350
    Two-Electron Energy =                1339.9817451172493747
    Total Energy =                      -1245.3448567015984736
  Basis Set: (AUG-CC-PVTZ AUX)
    Blend: AUG-CC-PVTZ-RI
    Molecular point group: c1

    Geometry (in Angstrom), charge = -3, multiplicity = 1:

       Center              X                  Y                   Z               Mass
    ------------   -----------------  -----------------  -----------------  -----------------
         P            1.244139594436    -0.577492339572     0.008429117020    30.973761998420
         P           -1.783168405564     0.195840660428     0.003107117020    30.973761998420
         O            1.407009594436     1.048126660428    -0.373304882980    15.994914619570
         O           -0.340916805564    -0.807271339572    -0.183007982980    15.994914619570
         O            1.978368594436    -1.383440339572    -1.048383882980    15.994914619570
         O            1.667874594436    -0.752060339572     1.455691117020    15.994914619570
         O           -1.793536605564     1.128283560428    -1.214847882980    15.994914619570
         O           -1.605204405564     0.887316660428     1.363460117020    15.994914619570
         O           -2.845872405564    -0.910056339572    -0.029615882980    15.994914619570
         C            2.676889594436     1.596301660428    -0.008919882980    12.000000000000
         H            2.786008594436     1.643393660428     1.077803117020     1.007825032230
         H            3.498962594436     0.999936660428    -0.420883882980     1.007825032230
         H            2.726237594436     2.602797660428    -0.428988882980     1.007825032230

  Basis Set: AUG-CC-PVTZ
    Blend: AUG-CC-PVTZ
  Basis Set: (AUG-CC-PVTZ AUX)
    Blend: AUG-CC-PVTZ-JKFIT
	 Reference Energy          =   -1245.3448567015984736 [Eh]
	 Singles Energy            =      -0.0000000000000000 [Eh]
	 Same-Spin Energy          =      -0.6460351668594999 [Eh]
	 Opposite-Spin Energy      =      -1.8063743641613095 [Eh]
	 Correlation Energy        =      -2.4524095310208094 [Eh]
	 Total Energy              =   -1247.7972662326192221 [Eh]

	 ================> DF-SCS-MP2 Energies <==================
	-----------------------------------------------------------
	 SCS Same-Spin Scale       =       0.3333333333333333 [-]
	 SCS Opposite-Spin Scale   =       1.2000000000000000 [-]
	 SCS Same-Spin Energy      =      -0.2153450556198333 [Eh]
	 SCS Opposite-Spin Energy  =      -2.1676492369935714 [Eh]
	 SCS Correlation Energy    =      -2.3829942926134047 [Eh]
	 SCS Total Energy          =   -1247.7278509942118490 [Eh]
	-----------------------------------------------------------

  Dipole Moment: [D]
     X:     7.9702      Y:     2.3311      Z:    -0.5020     Total:     8.3193

*** Psi4 exiting successfully. Buy a developer a beer!
