                               Psi4 1.3.2 release

  ==> Input File <==

--------------------------------------------------------------------------
#psi4
#
memory 32 gb

molecule  {
-3 1
  P        1.1931290    -0.6069630     0.0087730
  P       -1.8341790     0.1663700     0.0034510
  O        1.3559990     1.0186560    -0.3729610
  O       -0.3831566    -0.8463596    -0.2175529
  O        1.9040647    -1.4212818    -1.0575072
  O        1.6168640    -0.7815310     1.4560350
  O       -1.8332320     1.0931450    -1.2188660
  O       -1.6562150     0.8578460     1.3638040
  O       -2.8968830    -0.9395270    -0.0292720
  C        2.6258790     1.5668310    -0.0085760
  H        2.7349980     1.6139230     1.0781470
  H        3.4479520     0.9704660    -0.4205400
  H        2.6752270     2.5733270    -0.4286450
units angstrom
no_reorient  #important for SAPT in psi4, default
symmetry c1  #important for SAPT in psi4, default
}

set PROPERTIES_ORIGIN ["COM"]
properties('MP2/aug-cc-pvtz', properties = ['dipole'])
--------------------------------------------------------------------------

    Molecular point group: c1
  Charge       = -3
  Multiplicity = 1
  Basis Set: AUG-CC-PVTZ
    Blend: AUG-CC-PVTZ
  Basis Set: (AUG-CC-PVTZ AUX)
    Blend: AUG-CC-PVTZ-JKFIT

    Orbital Energies [Eh]
    ---------------------

    Doubly Occupied:

       1A    -79.620517     2A    -79.559904     3A    -20.153570
       4A    -20.078809     5A    -20.052189     6A    -20.052048
       7A    -19.999729     8A    -19.999184     9A    -19.999038
      10A    -10.917693    11A     -7.134690    12A     -7.073660
      13A     -5.033953    14A     -5.032499    15A     -5.031652
      16A     -4.973187    17A     -4.970756    18A     -4.970639
      19A     -0.965241    20A     -0.884540    21A     -0.840096
      22A     -0.803215    23A     -0.797660    24A     -0.741984
      25A     -0.741258    26A     -0.561124    27A     -0.334014
      28A     -0.279753    29A     -0.254698    30A     -0.228610
      31A     -0.187081    32A     -0.146847    33A     -0.142630
      34A     -0.114245    35A     -0.091215    36A     -0.087786
      37A     -0.063540    38A     -0.058332    39A     -0.042841
      40A     -0.036781    41A     -0.021180    42A      0.007225
      43A      0.020836    44A      0.022811    45A      0.025331
      46A      0.029844    47A      0.064426    48A      0.067665
      49A      0.092533

  @DF-RHF Final Energy: -1245.34355421146506

   => Energetics <=

    Nuclear Repulsion Energy =            819.9651689874950762
    One-Electron Energy =               -3405.1220178998160009
    Two-Electron Energy =                1339.8132947008559768
    Total Energy =                      -1245.3435542114650616
  Basis Set: (AUG-CC-PVTZ AUX)
    Blend: AUG-CC-PVTZ-RI
    Molecular point group: c1

    Geometry (in Angstrom), charge = -3, multiplicity = 1:

       Center              X                  Y                   Z               Mass
    ------------   -----------------  -----------------  -----------------  -----------------
         P            1.244411118402    -0.575489641846     0.012553490983    30.973761998420
         P           -1.782896881598     0.197843358154     0.007231490983    30.973761998420
         O            1.407281118402     1.050129358154    -0.369180509017    15.994914619570
         O           -0.331874481598    -0.814886241846    -0.213772409017    15.994914619570
         O            1.955346818402    -1.389808441846    -1.053726709017    15.994914619570
         O            1.668146118402    -0.750057641846     1.459815490983    15.994914619570
         O           -1.781949881598     1.124618358154    -1.215085509017    15.994914619570
         O           -1.604932881598     0.889319358154     1.367584490983    15.994914619570
         O           -2.845600881598    -0.908053641846    -0.025491509017    15.994914619570
         C            2.677161118402     1.598304358154    -0.004795509017    12.000000000000
         H            2.786280118402     1.645396358154     1.081927490983     1.007825032230
         H            3.499234118402     1.001939358154    -0.416759509017     1.007825032230
         H            2.726509118402     2.604800358154    -0.424864509017     1.007825032230

  Basis Set: AUG-CC-PVTZ
    Blend: AUG-CC-PVTZ
  Basis Set: (AUG-CC-PVTZ AUX)
    Blend: AUG-CC-PVTZ-JKFIT
	 Reference Energy          =   -1245.3435542114650616 [Eh]
	 Singles Energy            =      -0.0000000000000000 [Eh]
	 Same-Spin Energy          =      -0.6462374557087964 [Eh]
	 Opposite-Spin Energy      =      -1.8069066939711385 [Eh]
	 Correlation Energy        =      -2.4531441496799351 [Eh]
	 Total Energy              =   -1247.7966983611449905 [Eh]

	 ================> DF-SCS-MP2 Energies <==================
	-----------------------------------------------------------
	 SCS Same-Spin Scale       =       0.3333333333333333 [-]
	 SCS Opposite-Spin Scale   =       1.2000000000000000 [-]
	 SCS Same-Spin Energy      =      -0.2154124852362655 [Eh]
	 SCS Opposite-Spin Energy  =      -2.1682880327653660 [Eh]
	 SCS Correlation Energy    =      -2.3837005180016315 [Eh]
	 SCS Total Energy          =   -1247.7272547294667220 [Eh]
	-----------------------------------------------------------

  Dipole Moment: [D]
     X:     7.8807      Y:     2.4144      Z:    -0.4010     Total:     8.2520

*** Psi4 exiting successfully. Buy a developer a beer!
