                               Psi4 1.3.2 release

  ==> Input File <==

--------------------------------------------------------------------------
#psi4
#
memory 32 gb

molecule  {
-3 1
  P        1.1931290    -0.6069630     0.0087730
  P       -1.8341790     0.1663700     0.0034510
  O        1.3559990     1.0186560    -0.3729610
  O       -0.4064138    -0.8545452    -0.1970015
  O        1.9273580    -1.4129110    -1.0480400
  O        1.6168640    -0.7815310     1.4560350
  O       -1.8332320     1.0931450    -1.2188660
  O       -1.6562150     0.8578460     1.3638040
  O       -2.8775037    -0.9577322    -0.0324167
  C        2.6258790     1.5668310    -0.0085760
  H        2.7349980     1.6139230     1.0781470
  H        3.4479520     0.9704660    -0.4205400
  H        2.6752270     2.5733270    -0.4286450
units angstrom
no_reorient  #important for SAPT in psi4, default
symmetry c1  #important for SAPT in psi4, default
}

set PROPERTIES_ORIGIN ["COM"]
properties('MP2/aug-cc-pvtz', properties = ['dipole'])
--------------------------------------------------------------------------

    Molecular point group: c1
  Charge       = -3
  Multiplicity = 1
  Basis Set: AUG-CC-PVTZ
    Blend: AUG-CC-PVTZ
  Basis Set: (AUG-CC-PVTZ AUX)
    Blend: AUG-CC-PVTZ-JKFIT

    Orbital Energies [Eh]
    ---------------------

    Doubly Occupied:

       1A    -79.623761     2A    -79.557689     3A    -20.154581
       4A    -20.079709     5A    -20.055244     6A    -20.051802
       7A    -19.999783     8A    -19.997913     9A    -19.996314
      10A    -10.918261    11A     -7.137528    12A     -7.071590
      13A     -5.036790    14A     -5.035266    15A     -5.034519
      16A     -4.971149    17A     -4.968692    18A     -4.968604
      19A     -0.965613    20A     -0.883146    21A     -0.841533
      22A     -0.803501    23A     -0.795944    24A     -0.741340
      25A     -0.739946    26A     -0.561749    27A     -0.334559
      28A     -0.279514    29A     -0.255238    30A     -0.228988
      31A     -0.187382    32A     -0.146418    33A     -0.142327
      34A     -0.114868    35A     -0.091187    36A     -0.088211
      37A     -0.064055    38A     -0.058266    39A     -0.041455
      40A     -0.036639    41A     -0.022718    42A      0.006974
      43A      0.021724    44A      0.024020    45A      0.025730
      46A      0.028941    47A      0.066483    48A      0.068589
      49A      0.093474

  @DF-RHF Final Energy: -1245.34213713251347

   => Energetics <=

    Nuclear Repulsion Energy =            819.7853839553783928
    One-Electron Energy =               -3404.7593276170227909
    Two-Electron Energy =                1339.6318065291311541
    Total Energy =                      -1245.3421371325134714
  Basis Set: (AUG-CC-PVTZ AUX)
    Blend: AUG-CC-PVTZ-RI
    Molecular point group: c1

    Geometry (in Angstrom), charge = -3, multiplicity = 1:

       Center              X                  Y                   Z               Mass
    ------------   -----------------  -----------------  -----------------  -----------------
         P            1.242767447270    -0.573964102645     0.010278397313    30.973761998420
         P           -1.784540552730     0.199368897355     0.004956397313    30.973761998420
         O            1.405637447270     1.051654897355    -0.371455602687    15.994914619570
         O           -0.356775352730    -0.821546302645    -0.195496102687    15.994914619570
         O            1.976996447270    -1.379912102645    -1.046534602687    15.994914619570
         O            1.666502447270    -0.748532102645     1.457540397313    15.994914619570
         O           -1.783593552730     1.126143897355    -1.217360602687    15.994914619570
         O           -1.606576552730     0.890844897355     1.365309397313    15.994914619570
         O           -2.827865252730    -0.924733302645    -0.030911302687    15.994914619570
         C            2.675517447270     1.599829897355    -0.007070602687    12.000000000000
         H            2.784636447270     1.646921897355     1.079652397313     1.007825032230
         H            3.497590447270     1.003464897355    -0.419034602687     1.007825032230
         H            2.724865447270     2.606325897355    -0.427139602687     1.007825032230

  Basis Set: AUG-CC-PVTZ
    Blend: AUG-CC-PVTZ
  Basis Set: (AUG-CC-PVTZ AUX)
    Blend: AUG-CC-PVTZ-JKFIT
	 Reference Energy          =   -1245.3421371325134714 [Eh]
	 Singles Energy            =      -0.0000000000000000 [Eh]
	 Same-Spin Energy          =      -0.6463860894888012 [Eh]
	 Opposite-Spin Energy      =      -1.8072698889300201 [Eh]
	 Correlation Energy        =      -2.4536559784188210 [Eh]
	 Total Energy              =   -1247.7957931109322089 [Eh]

	 ================> DF-SCS-MP2 Energies <==================
	-----------------------------------------------------------
	 SCS Same-Spin Scale       =       0.3333333333333333 [-]
	 SCS Opposite-Spin Scale   =       1.2000000000000000 [-]
	 SCS Same-Spin Energy      =      -0.2154620298296004 [Eh]
	 SCS Opposite-Spin Energy  =      -2.1687238667160238 [Eh]
	 SCS Correlation Energy    =      -2.3841858965456240 [Eh]
	 SCS Total Energy          =   -1247.7263230290591309 [Eh]
	-----------------------------------------------------------

  Dipole Moment: [D]
     X:     8.0008      Y:     2.4110      Z:    -0.4541     Total:     8.3685

*** Psi4 exiting successfully. Buy a developer a beer!
