                               Psi4 1.3.2 release

  ==> Input File <==

--------------------------------------------------------------------------
#psi4
#
memory 32 gb

molecule  {
-3 1
  P        1.1931290    -0.6069630     0.0087730
  P       -1.8341790     0.1663700     0.0034510
  O        1.3559990     1.0186560    -0.3729610
  O       -0.3886030    -0.8294050    -0.1958090
  O        1.9273580    -1.4129110    -1.0480400
  O        1.6168640    -0.7815310     1.4560350
  O       -1.8332320     1.0931450    -1.2188660
  O       -1.6182250     0.8888097     1.3420381
  O       -2.8857394    -0.9474069    -0.0810504
  C        2.6258790     1.5668310    -0.0085760
  H        2.7349980     1.6139230     1.0781470
  H        3.4479520     0.9704660    -0.4205400
  H        2.6752270     2.5733270    -0.4286450
units angstrom
no_reorient  #important for SAPT in psi4, default
symmetry c1  #important for SAPT in psi4, default
}

set PROPERTIES_ORIGIN ["COM"]
properties('MP2/aug-cc-pvtz', properties = ['dipole'])
--------------------------------------------------------------------------

    Molecular point group: c1
  Charge       = -3
  Multiplicity = 1
  Basis Set: AUG-CC-PVTZ
    Blend: AUG-CC-PVTZ
  Basis Set: (AUG-CC-PVTZ AUX)
    Blend: AUG-CC-PVTZ-JKFIT

    Orbital Energies [Eh]
    ---------------------

    Doubly Occupied:

       1A    -79.620685     2A    -79.559177     3A    -20.151430
       4A    -20.078458     5A    -20.053649     6A    -20.049939
       7A    -20.001871     8A    -20.000441     9A    -19.994587
      10A    -10.916001    11A     -7.134732    12A     -7.073006
      13A     -5.034037    14A     -5.032512    15A     -5.031726
      16A     -4.972602    17A     -4.970153    18A     -4.969939
      19A     -0.963786    20A     -0.885412    21A     -0.840997
      22A     -0.801961    23A     -0.798044    24A     -0.745338
      25A     -0.737796    26A     -0.559471    27A     -0.334781
      28A     -0.280883    29A     -0.252976    30A     -0.227082
      31A     -0.186403    32A     -0.146803    33A     -0.142673
      34A     -0.113182    35A     -0.092257    36A     -0.088279
      37A     -0.061881    38A     -0.058496    39A     -0.041101
      40A     -0.037559    41A     -0.021045    42A      0.008242
      43A      0.021170    44A      0.021819    45A      0.026940
      46A      0.028608    47A      0.062390    48A      0.070587
      49A      0.093009

  @DF-RHF Final Energy: -1245.34397461888057

   => Energetics <=

    Nuclear Repulsion Energy =            821.0197082399532746
    One-Electron Energy =               -3407.2665886082022553
    Two-Electron Energy =                1340.9029057493685286
    Total Energy =                      -1245.3439746188805657
  Basis Set: (AUG-CC-PVTZ AUX)
    Blend: AUG-CC-PVTZ-RI
    Molecular point group: c1

    Geometry (in Angstrom), charge = -3, multiplicity = 1:

       Center              X                  Y                   Z               Mass
    ------------   -----------------  -----------------  -----------------  -----------------
         P            1.238740675645    -0.579587873385     0.016137339825    30.973761998420
         P           -1.788567324355     0.193745126615     0.010815339825    30.973761998420
         O            1.401610675645     1.046031126615    -0.365596660175    15.994914619570
         O           -0.342991324355    -0.802029873385    -0.188444660175    15.994914619570
         O            1.972969675645    -1.385535873385    -1.040675660175    15.994914619570
         O            1.662475675645    -0.754155873385     1.463399339825    15.994914619570
         O           -1.787620324355     1.120520126615    -1.211501660175    15.994914619570
         O           -1.572613324355     0.916184826615     1.349402439825    15.994914619570
         O           -2.840127724355    -0.920031773385    -0.073686060175    15.994914619570
         C            2.671490675645     1.594206126615    -0.001211660175    12.000000000000
         H            2.780609675645     1.641298126615     1.085511339825     1.007825032230
         H            3.493563675645     0.997841126615    -0.413175660175     1.007825032230
         H            2.720838675645     2.600702126615    -0.421280660175     1.007825032230

  Basis Set: AUG-CC-PVTZ
    Blend: AUG-CC-PVTZ
  Basis Set: (AUG-CC-PVTZ AUX)
    Blend: AUG-CC-PVTZ-JKFIT
	 Reference Energy          =   -1245.3439746188805657 [Eh]
	 Singles Energy            =      -0.0000000000000000 [Eh]
	 Same-Spin Energy          =      -0.6461662196681131 [Eh]
	 Opposite-Spin Energy      =      -1.8065634793213869 [Eh]
	 Correlation Energy        =      -2.4527296989894998 [Eh]
	 Total Energy              =   -1247.7967043178700806 [Eh]

	 ================> DF-SCS-MP2 Energies <==================
	-----------------------------------------------------------
	 SCS Same-Spin Scale       =       0.3333333333333333 [-]
	 SCS Opposite-Spin Scale   =       1.2000000000000000 [-]
	 SCS Same-Spin Energy      =      -0.2153887398893710 [Eh]
	 SCS Opposite-Spin Energy  =      -2.1678761751856643 [Eh]
	 SCS Correlation Energy    =      -2.3832649150750354 [Eh]
	 SCS Total Energy          =   -1247.7272395339555260 [Eh]
	-----------------------------------------------------------

  Dipole Moment: [D]
     X:     7.7611      Y:     2.2694      Z:    -0.2760     Total:     8.0908

*** Psi4 exiting successfully. Buy a developer a beer!
