                               Psi4 1.3.2 release

  ==> Input File <==

--------------------------------------------------------------------------
#psi4
#
memory 32 gb

molecule  {
-3 1
  P        1.1931290    -0.6069630     0.0087730
  P       -1.8341790     0.1663700     0.0034510
  O        1.3559990     1.0186560    -0.3729610
  O       -0.3886030    -0.8294050    -0.1958090
  O        1.9273580    -1.4129110    -1.0480400
  O        1.6168640    -0.7815310     1.4560350
  O       -1.8434406     1.0862140    -1.2240558
  O       -1.6562150     0.8578460     1.3638040
  O       -2.9011126    -0.9350301    -0.0411510
  C        2.6258790     1.5668310    -0.0085760
  H        2.7349980     1.6139230     1.0781470
  H        3.4479520     0.9704660    -0.4205400
  H        2.6752270     2.5733270    -0.4286450
units angstrom
no_reorient  #important for SAPT in psi4, default
symmetry c1  #important for SAPT in psi4, default
}

set PROPERTIES_ORIGIN ["COM"]
properties('MP2/aug-cc-pvtz', properties = ['dipole'])
--------------------------------------------------------------------------

    Molecular point group: c1
  Charge       = -3
  Multiplicity = 1
  Basis Set: AUG-CC-PVTZ
    Blend: AUG-CC-PVTZ
  Basis Set: (AUG-CC-PVTZ AUX)
    Blend: AUG-CC-PVTZ-JKFIT

    Orbital Energies [Eh]
    ---------------------

    Doubly Occupied:

       1A    -79.622332     2A    -79.559054     3A    -20.153240
       4A    -20.081065     5A    -20.054962     6A    -20.051124
       7A    -19.998402     8A    -19.998379     9A    -19.997921
      10A    -10.917372    11A     -7.136375    12A     -7.072866
      13A     -5.035682    14A     -5.034161    15A     -5.033357
      16A     -4.972421    17A     -4.970003    18A     -4.969830
      19A     -0.965554    20A     -0.886887    21A     -0.841635
      22A     -0.803184    23A     -0.799107    24A     -0.741062
      25A     -0.740412    26A     -0.560923    27A     -0.336438
      28A     -0.282398    29A     -0.254455    30A     -0.228721
      31A     -0.187249    32A     -0.147401    33A     -0.143878
      34A     -0.114733    35A     -0.092637    36A     -0.088923
      37A     -0.063483    38A     -0.057818    39A     -0.043031
      40A     -0.038320    41A     -0.022443    42A      0.007001
      43A      0.020840    44A      0.022785    45A      0.026193
      46A      0.027972    47A      0.065489    48A      0.068478
      49A      0.093552

  @DF-RHF Final Energy: -1245.34525456613960

   => Energetics <=

    Nuclear Repulsion Energy =            820.2894101540090332
    One-Electron Energy =               -3405.7354832634314334
    Two-Electron Energy =                1340.1008185432826849
    Total Energy =                      -1245.3452545661396016
  Basis Set: (AUG-CC-PVTZ AUX)
    Blend: AUG-CC-PVTZ-RI
    Molecular point group: c1

    Geometry (in Angstrom), charge = -3, multiplicity = 1:

       Center              X                  Y                   Z               Mass
    ------------   -----------------  -----------------  -----------------  -----------------
         P            1.244122544292    -0.577427576115     0.011356230548    30.973761998420
         P           -1.783185455708     0.195905423885     0.006034230548    30.973761998420
         O            1.406992544292     1.048191423885    -0.370377769452    15.994914619570
         O           -0.337609455708    -0.799869576115    -0.193225769452    15.994914619570
         O            1.978351544292    -1.383375576115    -1.045456769452    15.994914619570
         O            1.667857544292    -0.751995576115     1.458618230548    15.994914619570
         O           -1.792447055708     1.115749423885    -1.221472569452    15.994914619570
         O           -1.605221455708     0.887381423885     1.366387230548    15.994914619570
         O           -2.850119055708    -0.905494676115    -0.038567769452    15.994914619570
         C            2.676872544292     1.596366423885    -0.005992769452    12.000000000000
         H            2.785991544292     1.643458423885     1.080730230548     1.007825032230
         H            3.498945544292     1.000001423885    -0.417956769452     1.007825032230
         H            2.726220544292     2.602862423885    -0.426061769452     1.007825032230

  Basis Set: AUG-CC-PVTZ
    Blend: AUG-CC-PVTZ
  Basis Set: (AUG-CC-PVTZ AUX)
    Blend: AUG-CC-PVTZ-JKFIT
	 Reference Energy          =   -1245.3452545661396016 [Eh]
	 Singles Energy            =      -0.0000000000000000 [Eh]
	 Same-Spin Energy          =      -0.6460169651559300 [Eh]
	 Opposite-Spin Energy      =      -1.8063111475770750 [Eh]
	 Correlation Energy        =      -2.4523281127330048 [Eh]
	 Total Energy              =   -1247.7975826788726863 [Eh]

	 ================> DF-SCS-MP2 Energies <==================
	-----------------------------------------------------------
	 SCS Same-Spin Scale       =       0.3333333333333333 [-]
	 SCS Opposite-Spin Scale   =       1.2000000000000000 [-]
	 SCS Same-Spin Energy      =      -0.2153389883853100 [Eh]
	 SCS Opposite-Spin Energy  =      -2.1675733770924901 [Eh]
	 SCS Correlation Energy    =      -2.3829123654778002 [Eh]
	 SCS Total Energy          =   -1247.7281669316173520 [Eh]
	-----------------------------------------------------------

  Dipole Moment: [D]
     X:     7.9582      Y:     2.3393      Z:    -0.4246     Total:     8.3058

*** Psi4 exiting successfully. Buy a developer a beer!
