                               Psi4 1.3.2 release

  ==> Input File <==

--------------------------------------------------------------------------
#psi4
#
memory 32 gb

molecule  {
-3 1
  P        1.1931290    -0.6069630     0.0087730
  P       -1.8341790     0.1663700     0.0034510
  O        1.3748351     1.0285270    -0.3183967
  O       -0.3886030    -0.8294050    -0.1958090
  O        1.9273580    -1.4129110    -1.0480400
  O        1.6266712    -0.7295147     1.4584678
  O       -1.8332320     1.0931450    -1.2188660
  O       -1.6562150     0.8578460     1.3638040
  O       -2.8968830    -0.9395270    -0.0292720
  C        2.6258790     1.5668310    -0.0085760
  H        2.7349980     1.6139230     1.0781470
  H        3.4479520     0.9704660    -0.4205400
  H        2.6752270     2.5733270    -0.4286450
units angstrom
no_reorient  #important for SAPT in psi4, default
symmetry c1  #important for SAPT in psi4, default
}

set PROPERTIES_ORIGIN ["COM"]
properties('MP2/aug-cc-pvtz', properties = ['dipole'])
--------------------------------------------------------------------------

    Molecular point group: c1
  Charge       = -3
  Multiplicity = 1
  Basis Set: AUG-CC-PVTZ
    Blend: AUG-CC-PVTZ
  Basis Set: (AUG-CC-PVTZ AUX)
    Blend: AUG-CC-PVTZ-JKFIT

    Orbital Energies [Eh]
    ---------------------

    Doubly Occupied:

       1A    -79.623576     2A    -79.560056     3A    -20.146968
       4A    -20.083733     5A    -20.058940     6A    -20.048387
       7A    -20.000256     8A    -19.999755     9A    -19.997528
      10A    -10.911818    11A     -7.137477    12A     -7.073889
      13A     -5.036814    14A     -5.035310    15A     -5.034420
      16A     -4.973467    17A     -4.970991    18A     -4.970852
      19A     -0.971717    20A     -0.889845    21A     -0.842683
      22A     -0.804094    23A     -0.800350    24A     -0.742702
      25A     -0.740670    26A     -0.555999    27A     -0.338424
      28A     -0.284639    29A     -0.255911    30A     -0.233724
      31A     -0.186724    32A     -0.147767    33A     -0.144339
      34A     -0.110619    35A     -0.094459    36A     -0.089193
      37A     -0.059199    38A     -0.058937    39A     -0.043654
      40A     -0.039286    41A     -0.022161    42A      0.007645
      43A      0.020185    44A      0.021682    45A      0.025070
      46A      0.026897    47A      0.064184    48A      0.067750
      49A      0.092600

  @DF-RHF Final Energy: -1245.34641239309008

   => Energetics <=

    Nuclear Repulsion Energy =            821.0408639870910292
    One-Electron Energy =               -3407.1839096429725942
    Two-Electron Energy =                1340.7966332627913744
    Total Energy =                      -1245.3464123930900769
  Basis Set: (AUG-CC-PVTZ AUX)
    Blend: AUG-CC-PVTZ-RI
    Molecular point group: c1

    Geometry (in Angstrom), charge = -3, multiplicity = 1:

       Center              X                  Y                   Z               Mass
    ------------   -----------------  -----------------  -----------------  -----------------
         P            1.240475345784    -0.582872904484     0.005085951194    30.973761998420
         P           -1.786832654216     0.190460095516    -0.000236048806    30.973761998420
         O            1.422181445784     1.052617095516    -0.322083748806    15.994914619570
         O           -0.341256654216    -0.805314904484    -0.199496048806    15.994914619570
         O            1.974704345784    -1.388820904484    -1.051727048806    15.994914619570
         O            1.674017545784    -0.705424604484     1.454780751194    15.994914619570
         O           -1.785885654216     1.117235095516    -1.222553048806    15.994914619570
         O           -1.608868654216     0.881936095516     1.360116951194    15.994914619570
         O           -2.849536654216    -0.915436904484    -0.032959048806    15.994914619570
         C            2.673225345784     1.590921095516    -0.012263048806    12.000000000000
         H            2.782344345784     1.638013095516     1.074459951194     1.007825032230
         H            3.495298345784     0.994556095516    -0.424227048806     1.007825032230
         H            2.722573345784     2.597417095516    -0.432332048806     1.007825032230

  Basis Set: AUG-CC-PVTZ
    Blend: AUG-CC-PVTZ
  Basis Set: (AUG-CC-PVTZ AUX)
    Blend: AUG-CC-PVTZ-JKFIT
	 Reference Energy          =   -1245.3464123930900769 [Eh]
	 Singles Energy            =      -0.0000000000000000 [Eh]
	 Same-Spin Energy          =      -0.6459023963015678 [Eh]
	 Opposite-Spin Energy      =      -1.8054577230768110 [Eh]
	 Correlation Energy        =      -2.4513601193783785 [Eh]
	 Total Energy              =   -1247.7977725124685549 [Eh]

	 ================> DF-SCS-MP2 Energies <==================
	-----------------------------------------------------------
	 SCS Same-Spin Scale       =       0.3333333333333333 [-]
	 SCS Opposite-Spin Scale   =       1.2000000000000000 [-]
	 SCS Same-Spin Energy      =      -0.2153007987671892 [Eh]
	 SCS Opposite-Spin Energy  =      -2.1665492676921732 [Eh]
	 SCS Correlation Energy    =      -2.3818500664593625 [Eh]
	 SCS Total Energy          =   -1247.7282624595493417 [Eh]
	-----------------------------------------------------------

  Dipole Moment: [D]
     X:     7.7609      Y:     2.1349      Z:    -0.5582     Total:     8.0685

*** Psi4 exiting successfully. Buy a developer a beer!
