                               Psi4 1.3.2 release

  ==> Input File <==

--------------------------------------------------------------------------
#psi4
#
memory 32 gb

molecule  {
-3 1
  P        1.1826177    -0.5541534     0.0249001
  P       -1.7982000     0.2130762     0.0215192
  O        1.3559990     1.0186560    -0.3729610
  O       -0.3886030    -0.8294050    -0.1958090
  O        1.9273580    -1.4129110    -1.0480400
  O        1.6168640    -0.7815310     1.4560350
  O       -1.8332320     1.0931450    -1.2188660
  O       -1.6562150     0.8578460     1.3638040
  O       -2.8968830    -0.9395270    -0.0292720
  C        2.6258790     1.5668310    -0.0085760
  H        2.7349980     1.6139230     1.0781470
  H        3.4479520     0.9704660    -0.4205400
  H        2.6752270     2.5733270    -0.4286450
units angstrom
no_reorient  #important for SAPT in psi4, default
symmetry c1  #important for SAPT in psi4, default
}

set PROPERTIES_ORIGIN ["COM"]
properties('MP2/aug-cc-pvtz', properties = ['dipole'])
--------------------------------------------------------------------------

    Molecular point group: c1
  Charge       = -3
  Multiplicity = 1
  Basis Set: AUG-CC-PVTZ
    Blend: AUG-CC-PVTZ
  Basis Set: (AUG-CC-PVTZ AUX)
    Blend: AUG-CC-PVTZ-JKFIT

    Orbital Energies [Eh]
    ---------------------

    Doubly Occupied:

       1A    -79.623407     2A    -79.559383     3A    -20.166798
       4A    -20.083624     5A    -20.052551     6A    -20.045707
       7A    -20.007017     8A    -20.003158     9A    -19.987707
      10A    -10.926713    11A     -7.137434    12A     -7.073653
      13A     -5.036817    14A     -5.035261    15A     -5.034221
      16A     -4.973112    17A     -4.970961    18A     -4.970474
      19A     -0.985253    20A     -0.888887    21A     -0.839487
      22A     -0.806106    23A     -0.786036    24A     -0.757856
      25A     -0.718948    26A     -0.573685    27A     -0.345425
      28A     -0.286678    29A     -0.265799    30A     -0.242233
      31A     -0.188330    32A     -0.150496    33A     -0.143907
      34A     -0.119363    35A     -0.096593    36A     -0.091651
      37A     -0.070071    38A     -0.058343    39A     -0.046139
      40A     -0.031291    41A     -0.019729    42A      0.008598
      43A      0.021436    44A      0.022125    45A      0.029242
      46A      0.035142    47A      0.058597    48A      0.077145
      49A      0.096264

  @DF-RHF Final Energy: -1245.33597083100244

   => Energetics <=

    Nuclear Repulsion Energy =            822.2221384754834617
    One-Electron Energy =               -3409.4127063664482193
    Two-Electron Energy =                1341.8545970599623161
    Total Energy =                      -1245.3359708310024416
  Basis Set: (AUG-CC-PVTZ AUX)
    Blend: AUG-CC-PVTZ-RI
    Molecular point group: c1

    Geometry (in Angstrom), charge = -3, multiplicity = 1:

       Center              X                  Y                   Z               Mass
    ------------   -----------------  -----------------  -----------------  -----------------
         P            1.228213800261    -0.541138500603     0.020432396354    30.973761998420
         P           -1.752603899739     0.226091099397     0.017051496354    30.973761998420
         O            1.401595100261     1.031670899397    -0.377428703646    15.994914619570
         O           -0.343006899739    -0.816390100603    -0.200276703646    15.994914619570
         O            1.972954100261    -1.399896100603    -1.052507703646    15.994914619570
         O            1.662460100261    -0.768516100603     1.451567296354    15.994914619570
         O           -1.787635899739     1.106159899397    -1.223333703646    15.994914619570
         O           -1.610618899739     0.870860899397     1.359336296354    15.994914619570
         O           -2.851286899739    -0.926512100603    -0.033739703646    15.994914619570
         C            2.671475100261     1.579845899397    -0.013043703646    12.000000000000
         H            2.780594100261     1.626937899397     1.073679296354     1.007825032230
         H            3.493548100261     0.983480899397    -0.425007703646     1.007825032230
         H            2.720823100261     2.586341899397    -0.433112703646     1.007825032230

  Basis Set: AUG-CC-PVTZ
    Blend: AUG-CC-PVTZ
  Basis Set: (AUG-CC-PVTZ AUX)
    Blend: AUG-CC-PVTZ-JKFIT
	 Reference Energy          =   -1245.3359708310024416 [Eh]
	 Singles Energy            =      -0.0000000000000000 [Eh]
	 Same-Spin Energy          =      -0.6466184381084185 [Eh]
	 Opposite-Spin Energy      =      -1.8075494668419230 [Eh]
	 Correlation Energy        =      -2.4541679049503413 [Eh]
	 Total Energy              =   -1247.7901387359527234 [Eh]

	 ================> DF-SCS-MP2 Energies <==================
	-----------------------------------------------------------
	 SCS Same-Spin Scale       =       0.3333333333333333 [-]
	 SCS Opposite-Spin Scale   =       1.2000000000000000 [-]
	 SCS Same-Spin Energy      =      -0.2155394793694728 [Eh]
	 SCS Opposite-Spin Energy  =      -2.1690593602103077 [Eh]
	 SCS Correlation Energy    =      -2.3845988395797804 [Eh]
	 SCS Total Energy          =   -1247.7205696705823357 [Eh]
	-----------------------------------------------------------

  Dipole Moment: [D]
     X:     8.3684      Y:     3.6657      Z:     0.0247     Total:     9.1361

*** Psi4 exiting successfully. Buy a developer a beer!
