                               Psi4 1.3.2 release

  ==> Input File <==

--------------------------------------------------------------------------
#psi4
#
memory 32 gb

molecule  {
-3 1
  P        1.1931290    -0.6069630     0.0087730
  P       -1.8341790     0.1663700     0.0034510
  O        1.3559990     1.0186560    -0.3729610
  O       -0.3886030    -0.8294050    -0.1958090
  O        1.9717674    -1.4444525    -0.9901423
  O        1.6714738    -0.8338306     1.4315555
  O       -1.8332320     1.0931450    -1.2188660
  O       -1.6562150     0.8578460     1.3638040
  O       -2.8968830    -0.9395270    -0.0292720
  C        2.6258790     1.5668310    -0.0085760
  H        2.7349980     1.6139230     1.0781470
  H        3.4479520     0.9704660    -0.4205400
  H        2.6752270     2.5733270    -0.4286450
units angstrom
no_reorient  #important for SAPT in psi4, default
symmetry c1  #important for SAPT in psi4, default
}

set PROPERTIES_ORIGIN ["COM"]
properties('MP2/aug-cc-pvtz', properties = ['dipole'])
--------------------------------------------------------------------------

    Molecular point group: c1
  Charge       = -3
  Multiplicity = 1
  Basis Set: AUG-CC-PVTZ
    Blend: AUG-CC-PVTZ
  Basis Set: (AUG-CC-PVTZ AUX)
    Blend: AUG-CC-PVTZ-JKFIT

    Orbital Energies [Eh]
    ---------------------

    Doubly Occupied:

       1A    -79.621716     2A    -79.561789     3A    -20.157157
       4A    -20.086098     5A    -20.049554     6A    -20.045626
       7A    -20.001660     8A    -20.000999     9A    -19.999944
      10A    -10.918371    11A     -7.135759    12A     -7.075634
      13A     -5.035034    14A     -5.033339    15A     -5.032901
      16A     -4.975214    17A     -4.972726    18A     -4.972602
      19A     -0.967437    20A     -0.889084    21A     -0.842883
      22A     -0.802293    23A     -0.794896    24A     -0.744062
      25A     -0.742766    26A     -0.562252    27A     -0.338535
      28A     -0.284120    29A     -0.255715    30A     -0.230824
      31A     -0.186676    32A     -0.149041    33A     -0.142026
      34A     -0.116359    35A     -0.095832    36A     -0.089848
      37A     -0.063392    38A     -0.058886    39A     -0.044790
      40A     -0.037789    41A     -0.022592    42A      0.011008
      43A      0.020145    44A      0.021596    45A      0.023531
      46A      0.031959    47A      0.062659    48A      0.065887
      49A      0.090882

  @DF-RHF Final Energy: -1245.34491770727777

   => Energetics <=

    Nuclear Repulsion Energy =            819.4584358424407355
    One-Electron Energy =               -3403.9855984440973771
    Two-Electron Energy =                1339.1822448943787549
    Total Energy =                      -1245.3449177072777729
  Basis Set: (AUG-CC-PVTZ AUX)
    Blend: AUG-CC-PVTZ-RI
    Molecular point group: c1

    Geometry (in Angstrom), charge = -3, multiplicity = 1:

       Center              X                  Y                   Z               Mass
    ------------   -----------------  -----------------  -----------------  -----------------
         P            1.234517454868    -0.570535813086     0.007082096382    30.973761998420
         P           -1.792790545132     0.202797186914     0.001760096382    30.973761998420
         O            1.397387454868     1.055083186914    -0.374651903618    15.994914619570
         O           -0.347214545132    -0.792977813086    -0.197499903618    15.994914619570
         O            2.013155854868    -1.408025313086    -0.991833203618    15.994914619570
         O            1.712862254868    -0.797403413086     1.429864596382    15.994914619570
         O           -1.791843545132     1.129572186914    -1.220556903618    15.994914619570
         O           -1.614826545132     0.894273186914     1.362113096382    15.994914619570
         O           -2.855494545132    -0.903099813086    -0.030962903618    15.994914619570
         C            2.667267454868     1.603258186914    -0.010266903618    12.000000000000
         H            2.776386454868     1.650350186914     1.076456096382     1.007825032230
         H            3.489340454868     1.006893186914    -0.422230903618     1.007825032230
         H            2.716615454868     2.609754186914    -0.430335903618     1.007825032230

  Basis Set: AUG-CC-PVTZ
    Blend: AUG-CC-PVTZ
  Basis Set: (AUG-CC-PVTZ AUX)
    Blend: AUG-CC-PVTZ-JKFIT
	 Reference Energy          =   -1245.3449177072777729 [Eh]
	 Singles Energy            =      -0.0000000000000000 [Eh]
	 Same-Spin Energy          =      -0.6459081465720165 [Eh]
	 Opposite-Spin Energy      =      -1.8061403635336173 [Eh]
	 Correlation Energy        =      -2.4520485101056337 [Eh]
	 Total Energy              =   -1247.7969662173834422 [Eh]

	 ================> DF-SCS-MP2 Energies <==================
	-----------------------------------------------------------
	 SCS Same-Spin Scale       =       0.3333333333333333 [-]
	 SCS Opposite-Spin Scale   =       1.2000000000000000 [-]
	 SCS Same-Spin Energy      =      -0.2153027155240055 [Eh]
	 SCS Opposite-Spin Energy  =      -2.1673684362403405 [Eh]
	 SCS Correlation Energy    =      -2.3826711517643462 [Eh]
	 SCS Total Energy          =   -1247.7275888590420436 [Eh]
	-----------------------------------------------------------

  Dipole Moment: [D]
     X:     7.6296      Y:     2.5671      Z:    -0.5542     Total:     8.0689

*** Psi4 exiting successfully. Buy a developer a beer!
