                               Psi4 1.3.2 release

  ==> Input File <==

--------------------------------------------------------------------------
#psi4
#
memory 32 gb

molecule  {
-3 1
  P        1.1931290    -0.6069630     0.0087730
  P       -1.8341790     0.1663700     0.0034510
  O        1.3559990     1.0186560    -0.3729610
  O       -0.3886030    -0.8294050    -0.1958090
  O        1.9273580    -1.4129110    -1.0480400
  O        1.6168640    -0.7815310     1.4560350
  O       -1.8332320     1.0931450    -1.2188660
  O       -1.6371900     0.8734355     1.3531266
  O       -2.8914722    -0.9436360    -0.0551701
  C        2.6258790     1.5668310    -0.0085760
  H        2.7349980     1.6139230     1.0781470
  H        3.4479520     0.9704660    -0.4205400
  H        2.6752270     2.5733270    -0.4286450
units angstrom
no_reorient  #important for SAPT in psi4, default
symmetry c1  #important for SAPT in psi4, default
}

set PROPERTIES_ORIGIN ["COM"]
properties('MP2/aug-cc-pvtz', properties = ['dipole'])
--------------------------------------------------------------------------

    Molecular point group: c1
  Charge       = -3
  Multiplicity = 1
  Basis Set: AUG-CC-PVTZ
    Blend: AUG-CC-PVTZ
  Basis Set: (AUG-CC-PVTZ AUX)
    Blend: AUG-CC-PVTZ-JKFIT

    Orbital Energies [Eh]
    ---------------------

    Doubly Occupied:

       1A    -79.621335     2A    -79.559122     3A    -20.152151
       4A    -20.079487     5A    -20.054176     6A    -20.050371
       7A    -20.000345     8A    -19.998872     9A    -19.996926
      10A    -10.916543    11A     -7.135379    12A     -7.072940
      13A     -5.034685    14A     -5.033161    15A     -5.032368
      16A     -4.972520    17A     -4.970057    18A     -4.969915
      19A     -0.964488    20A     -0.885984    21A     -0.841231
      22A     -0.802424    23A     -0.798464    24A     -0.743071
      25A     -0.739525    26A     -0.560047    27A     -0.335437
      28A     -0.281487    29A     -0.253562    30A     -0.227734
      31A     -0.186716    32A     -0.147006    33A     -0.143171
      34A     -0.113806    35A     -0.092459    36A     -0.088480
      37A     -0.062553    38A     -0.058078    39A     -0.042077
      40A     -0.037802    41A     -0.021603    42A      0.007792
      43A      0.021143    44A      0.022414    45A      0.026259
      46A      0.028409    47A      0.063855    48A      0.069432
      49A      0.092983

  @DF-RHF Final Energy: -1245.34485576471388

   => Energetics <=

    Nuclear Repulsion Energy =            820.7212620566446049
    One-Electron Energy =               -3406.6416938782076613
    Two-Electron Energy =                1340.5755760568490587
    Total Energy =                      -1245.3448557647138841
  Basis Set: (AUG-CC-PVTZ AUX)
    Blend: AUG-CC-PVTZ-RI
    Molecular point group: c1

    Geometry (in Angstrom), charge = -3, multiplicity = 1:

       Center              X                  Y                   Z               Mass
    ------------   -----------------  -----------------  -----------------  -----------------
         P            1.240831544795    -0.578605559899     0.013007630966    30.973761998420
         P           -1.786476455205     0.194727440101     0.007685630966    30.973761998420
         O            1.403701544795     1.047013440101    -0.368726369034    15.994914619570
         O           -0.340900455205    -0.801047559899    -0.191574369034    15.994914619570
         O            1.975060544795    -1.384553559899    -1.043805369034    15.994914619570
         O            1.664566544795    -0.753173559899     1.460269630966    15.994914619570
         O           -1.785529455205     1.121502440101    -1.214631369034    15.994914619570
         O           -1.589487455205     0.901792940101     1.357361230966    15.994914619570
         O           -2.843769655205    -0.915278559899    -0.050935469034    15.994914619570
         C            2.673581544795     1.595188440101    -0.004341369034    12.000000000000
         H            2.782700544795     1.642280440101     1.082381630966     1.007825032230
         H            3.495654544795     0.998823440101    -0.416305369034     1.007825032230
         H            2.722929544795     2.601684440101    -0.424410369034     1.007825032230

  Basis Set: AUG-CC-PVTZ
    Blend: AUG-CC-PVTZ
  Basis Set: (AUG-CC-PVTZ AUX)
    Blend: AUG-CC-PVTZ-JKFIT
	 Reference Energy          =   -1245.3448557647138841 [Eh]
	 Singles Energy            =      -0.0000000000000000 [Eh]
	 Same-Spin Energy          =      -0.6460864457595578 [Eh]
	 Opposite-Spin Energy      =      -1.8064248276386927 [Eh]
	 Correlation Energy        =      -2.4525112733982506 [Eh]
	 Total Energy              =   -1247.7973670381120428 [Eh]

	 ================> DF-SCS-MP2 Energies <==================
	-----------------------------------------------------------
	 SCS Same-Spin Scale       =       0.3333333333333333 [-]
	 SCS Opposite-Spin Scale   =       1.2000000000000000 [-]
	 SCS Same-Spin Energy      =      -0.2153621485865193 [Eh]
	 SCS Opposite-Spin Energy  =      -2.1677097931664311 [Eh]
	 SCS Correlation Energy    =      -2.3830719417529505 [Eh]
	 SCS Total Energy          =   -1247.7279277064667440 [Eh]
	-----------------------------------------------------------

  Dipole Moment: [D]
     X:     7.8367      Y:     2.3010      Z:    -0.3741     Total:     8.1761

*** Psi4 exiting successfully. Buy a developer a beer!
