                               Psi4 1.3.2 release

  ==> Input File <==

--------------------------------------------------------------------------
#psi4
#
memory 32 gb

molecule  {
-3 1
  P        1.1931290    -0.6069630     0.0087730
  P       -1.8341790     0.1663700     0.0034510
  O        1.3559990     1.0186560    -0.3729610
  O       -0.3886030    -0.8294050    -0.1958090
  O        1.9273580    -1.4129110    -1.0480400
  O        1.6168640    -0.7815310     1.4560350
  O       -1.8332320     1.0931450    -1.2188660
  O       -1.6562150     0.8578460     1.3638040
  O       -2.8968830    -0.9395270    -0.0292720
  C        2.6258790     1.5668310    -0.0085760
  H        2.7821253     1.5818110     1.0732993
  H        3.4675180     0.9632695    -0.3670825
  H        2.6752270     2.5733270    -0.4286450
units angstrom
no_reorient  #important for SAPT in psi4, default
symmetry c1  #important for SAPT in psi4, default
}

set PROPERTIES_ORIGIN ["COM"]
properties('MP2/aug-cc-pvtz', properties = ['dipole'])
--------------------------------------------------------------------------

    Molecular point group: c1
  Charge       = -3
  Multiplicity = 1
  Basis Set: AUG-CC-PVTZ
    Blend: AUG-CC-PVTZ
  Basis Set: (AUG-CC-PVTZ AUX)
    Blend: AUG-CC-PVTZ-JKFIT

    Orbital Energies [Eh]
    ---------------------

    Doubly Occupied:

       1A    -79.622314     2A    -79.559168     3A    -20.154496
       4A    -20.080740     5A    -20.054735     6A    -20.051109
       7A    -19.999369     8A    -19.998835     9A    -19.997284
      10A    -10.917349    11A     -7.136355    12A     -7.072984
      13A     -5.035669    14A     -5.034136    15A     -5.033333
      16A     -4.972548    17A     -4.970099    18A     -4.969966
      19A     -0.965670    20A     -0.886783    21A     -0.841635
      22A     -0.803078    23A     -0.799020    24A     -0.741817
      25A     -0.740236    26A     -0.561880    27A     -0.338784
      28A     -0.284812    29A     -0.245932    30A     -0.228705
      31A     -0.188826    32A     -0.147564    33A     -0.143155
      34A     -0.117760    35A     -0.092859    36A     -0.088384
      37A     -0.062140    38A     -0.057770    39A     -0.043287
      40A     -0.038186    41A     -0.022437    42A      0.007087
      43A      0.020904    44A      0.022607    45A      0.025772
      46A      0.028204    47A      0.065058    48A      0.068500
      49A      0.093222

  @DF-RHF Final Energy: -1245.34415311790394

   => Energetics <=

    Nuclear Repulsion Energy =            820.3714609463562510
    One-Electron Energy =               -3405.8915191040614445
    Two-Electron Energy =                1340.1759050398011368
    Total Energy =                      -1245.3441531179039430
  Basis Set: (AUG-CC-PVTZ AUX)
    Blend: AUG-CC-PVTZ-RI
    Molecular point group: c1

    Geometry (in Angstrom), charge = -3, multiplicity = 1:

       Center              X                  Y                   Z               Mass
    ------------   -----------------  -----------------  -----------------  -----------------
         P            1.242544476067    -0.577423961819     0.009651922253    30.973761998420
         P           -1.784763523933     0.195909038181     0.004329922253    30.973761998420
         O            1.405414476067     1.048195038181    -0.372082077747    15.994914619570
         O           -0.339187523933    -0.799865961819    -0.194930077747    15.994914619570
         O            1.976773476067    -1.383371961819    -1.047161077747    15.994914619570
         O            1.666279476067    -0.751991961819     1.456913922253    15.994914619570
         O           -1.783816523933     1.122684038181    -1.217987077747    15.994914619570
         O           -1.606799523933     0.887385038181     1.364682922253    15.994914619570
         O           -2.847467523933    -0.909987961819    -0.028393077747    15.994914619570
         C            2.675294476067     1.596370038181    -0.007697077747    12.000000000000
         H            2.831540776067     1.611350038181     1.074178222253     1.007825032230
         H            3.516933476067     0.992808538181    -0.366203577747     1.007825032230
         H            2.724642476067     2.602866038181    -0.427766077747     1.007825032230

  Basis Set: AUG-CC-PVTZ
    Blend: AUG-CC-PVTZ
  Basis Set: (AUG-CC-PVTZ AUX)
    Blend: AUG-CC-PVTZ-JKFIT
	 Reference Energy          =   -1245.3441531179039430 [Eh]
	 Singles Energy            =      -0.0000000000000000 [Eh]
	 Same-Spin Energy          =      -0.6461266165979309 [Eh]
	 Opposite-Spin Energy      =      -1.8064514651297785 [Eh]
	 Correlation Energy        =      -2.4525780817277094 [Eh]
	 Total Energy              =   -1247.7967311996317221 [Eh]

	 ================> DF-SCS-MP2 Energies <==================
	-----------------------------------------------------------
	 SCS Same-Spin Scale       =       0.3333333333333333 [-]
	 SCS Opposite-Spin Scale   =       1.2000000000000000 [-]
	 SCS Same-Spin Energy      =      -0.2153755388659770 [Eh]
	 SCS Opposite-Spin Energy  =      -2.1677417581557341 [Eh]
	 SCS Correlation Energy    =      -2.3831172970217112 [Eh]
	 SCS Total Energy          =   -1247.7272704149256697 [Eh]
	-----------------------------------------------------------

  Dipole Moment: [D]
     X:     7.9108      Y:     2.3097      Z:    -0.4609     Total:     8.2539

*** Psi4 exiting successfully. Buy a developer a beer!
