                               Psi4 1.3.2 release

  ==> Input File <==

--------------------------------------------------------------------------
#psi4
#
memory 32 gb

molecule  {
-3 1
  P        1.1931290    -0.6069630     0.0087730
  P       -1.8341790     0.1663700     0.0034510
  O        1.3559990     1.0186560    -0.3729610
  O       -0.3886030    -0.8294050    -0.1958090
  O        1.9273580    -1.4129110    -1.0480400
  O        1.6168640    -0.7815310     1.4560350
  O       -1.8332320     1.0931450    -1.2188660
  O       -1.6446314     0.9028537     1.4523485
  O       -2.8968830    -0.9395270    -0.0292720
  C        2.6258790     1.5668310    -0.0085760
  H        2.7349980     1.6139230     1.0781470
  H        3.4479520     0.9704660    -0.4205400
  H        2.6752270     2.5733270    -0.4286450
units angstrom
no_reorient  #important for SAPT in psi4, default
symmetry c1  #important for SAPT in psi4, default
}

set PROPERTIES_ORIGIN ["COM"]
properties('MP2/aug-cc-pvtz', properties = ['dipole'])
--------------------------------------------------------------------------

    Molecular point group: c1
  Charge       = -3
  Multiplicity = 1
  Basis Set: AUG-CC-PVTZ
    Blend: AUG-CC-PVTZ
  Basis Set: (AUG-CC-PVTZ AUX)
    Blend: AUG-CC-PVTZ-JKFIT

    Orbital Energies [Eh]
    ---------------------

    Doubly Occupied:

       1A    -79.624389     2A    -79.575735     3A    -20.154022
       4A    -20.087198     5A    -20.056806     6A    -20.051639
       7A    -20.008266     8A    -20.007650     9A    -20.002251
      10A    -10.917647    11A     -7.138430    12A     -7.087160
      13A     -5.037730    14A     -5.036243    15A     -5.035384
      16A     -4.986820    17A     -4.984418    18A     -4.983761
      19A     -0.966646    20A     -0.889445    21A     -0.841484
      22A     -0.804206    23A     -0.799072    24A     -0.749545
      25A     -0.717007    26A     -0.561309    27A     -0.339129
      28A     -0.285789    29A     -0.254744    30A     -0.230274
      31A     -0.189325    32A     -0.150191    33A     -0.145425
      34A     -0.115897    35A     -0.095059    36A     -0.089514
      37A     -0.064206    38A     -0.055672    39A     -0.044487
      40A     -0.039384    41A     -0.023618    42A      0.006626
      43A      0.017431    44A      0.022209    45A      0.028313
      46A      0.033814    47A      0.059669    48A      0.073625
      49A      0.090973

  @DF-RHF Final Energy: -1245.33178220771515

   => Energetics <=

    Nuclear Repulsion Energy =            816.2746810252622254
    One-Electron Energy =               -3397.4242931912140193
    Two-Electron Energy =                1335.8178299582368709
    Total Energy =                      -1245.3317822077151504
  Basis Set: (AUG-CC-PVTZ AUX)
    Blend: AUG-CC-PVTZ-RI
    Molecular point group: c1

    Geometry (in Angstrom), charge = -3, multiplicity = 1:

       Center              X                  Y                   Z               Mass
    ------------   -----------------  -----------------  -----------------  -----------------
         P            1.241919587799    -0.581443909395     0.002415207831    30.973761998420
         P           -1.785388412201     0.191889090605    -0.002906792169    30.973761998420
         O            1.404789587799     1.044175090605    -0.379318792169    15.994914619570
         O           -0.339812412201    -0.803885909395    -0.202166792169    15.994914619570
         O            1.976148587799    -1.387391909395    -1.054397792169    15.994914619570
         O            1.665654587799    -0.756011909395     1.449677207831    15.994914619570
         O           -1.784441412201     1.118664090605    -1.225223792169    15.994914619570
         O           -1.595840812201     0.928372790605     1.445990707831    15.994914619570
         O           -2.848092412201    -0.914007909395    -0.035629792169    15.994914619570
         C            2.674669587799     1.592350090605    -0.014933792169    12.000000000000
         H            2.783788587799     1.639442090605     1.071789207831     1.007825032230
         H            3.496742587799     0.995985090605    -0.426897792169     1.007825032230
         H            2.724017587799     2.598846090605    -0.435002792169     1.007825032230

  Basis Set: AUG-CC-PVTZ
    Blend: AUG-CC-PVTZ
  Basis Set: (AUG-CC-PVTZ AUX)
    Blend: AUG-CC-PVTZ-JKFIT
	 Reference Energy          =   -1245.3317822077151504 [Eh]
	 Singles Energy            =      -0.0000000000000000 [Eh]
	 Same-Spin Energy          =      -0.6477871336229019 [Eh]
	 Opposite-Spin Energy      =      -1.8110710316681704 [Eh]
	 Correlation Energy        =      -2.4588581652910722 [Eh]
	 Total Energy              =   -1247.7906403730062266 [Eh]

	 ================> DF-SCS-MP2 Energies <==================
	-----------------------------------------------------------
	 SCS Same-Spin Scale       =       0.3333333333333333 [-]
	 SCS Opposite-Spin Scale   =       1.2000000000000000 [-]
	 SCS Same-Spin Energy      =      -0.2159290445409673 [Eh]
	 SCS Opposite-Spin Energy  =      -2.1732852380018044 [Eh]
	 SCS Correlation Energy    =      -2.3892142825427718 [Eh]
	 SCS Total Energy          =   -1247.7209964902579031 [Eh]
	-----------------------------------------------------------

  Dipole Moment: [D]
     X:     7.9496      Y:     1.9956      Z:    -1.0910     Total:     8.2686

*** Psi4 exiting successfully. Buy a developer a beer!
