                               Psi4 1.3.2 release

  ==> Input File <==

--------------------------------------------------------------------------
#psi4
#
memory 32 gb

molecule  {
-3 1
  P        1.1931290    -0.6069630     0.0087730
  P       -1.8341790     0.1663700     0.0034510
  O        1.3559990     1.0186560    -0.3729610
  O       -0.3974537    -0.8420135    -0.1964129
  O        1.9273580    -1.4129110    -1.0480400
  O        1.6168640    -0.7815310     1.4560350
  O       -1.8332320     1.0931450    -1.2188660
  O       -1.6562150     0.8578460     1.3638040
  O       -2.8872335    -0.9486721    -0.0308457
  C        2.6258790     1.5668310    -0.0085760
  H        2.7349980     1.6139230     1.0781470
  H        3.4479520     0.9704660    -0.4205400
  H        2.6752270     2.5733270    -0.4286450
units angstrom
no_reorient  #important for SAPT in psi4, default
symmetry c1  #important for SAPT in psi4, default
}

set PROPERTIES_ORIGIN ["COM"]
properties('MP2/aug-cc-pvtz', properties = ['dipole'])
--------------------------------------------------------------------------

    Molecular point group: c1
  Charge       = -3
  Multiplicity = 1
  Basis Set: AUG-CC-PVTZ
    Blend: AUG-CC-PVTZ
  Basis Set: (AUG-CC-PVTZ AUX)
    Blend: AUG-CC-PVTZ-JKFIT

    Orbital Energies [Eh]
    ---------------------

    Doubly Occupied:

       1A    -79.622892     2A    -79.558373     3A    -20.153736
       4A    -20.080118     5A    -20.054975     6A    -20.051306
       7A    -19.999506     8A    -19.997570     9A    -19.997532
      10A    -10.917680    11A     -7.136790    12A     -7.072229
      13A     -5.036075    14A     -5.034552    15A     -5.033779
      16A     -4.971790    17A     -4.969338    18A     -4.969228
      19A     -0.965384    20A     -0.884837    21A     -0.841512
      22A     -0.803196    23A     -0.797442    24A     -0.741457
      25A     -0.740129    26A     -0.561191    27A     -0.335275
      28A     -0.280852    29A     -0.254698    30A     -0.228700
      31A     -0.187201    32A     -0.146805    33A     -0.142979
      34A     -0.114651    35A     -0.091964    36A     -0.088435
      37A     -0.063641    38A     -0.057933    39A     -0.042244
      40A     -0.037360    41A     -0.022448    42A      0.007155
      43A      0.021448    44A      0.023390    45A      0.025793
      46A      0.028548    47A      0.065787    48A      0.068588
      49A      0.093390

  @DF-RHF Final Energy: -1245.34381715345194

   => Energetics <=

    Nuclear Repulsion Energy =            820.1100815774748298
    One-Electron Energy =               -3405.4003884834150995
    Two-Electron Energy =                1339.9464897524883327
    Total Energy =                      -1245.3438171534519370
  Basis Set: (AUG-CC-PVTZ AUX)
    Blend: AUG-CC-PVTZ-RI
    Molecular point group: c1

    Geometry (in Angstrom), charge = -3, multiplicity = 1:

       Center              X                  Y                   Z               Mass
    ------------   -----------------  -----------------  -----------------  -----------------
         P            1.242832608619    -0.575792023696     0.010095569651    30.973761998420
         P           -1.784475391381     0.197540976304     0.004773569651    30.973761998420
         O            1.405702608619     1.049826976304    -0.371638430349    15.994914619570
         O           -0.347750091381    -0.810842523696    -0.195090330349    15.994914619570
         O            1.977061608619    -1.381740023696    -1.046717430349    15.994914619570
         O            1.666567608619    -0.750360023696     1.457357569651    15.994914619570
         O           -1.783528391381     1.124315976304    -1.217543430349    15.994914619570
         O           -1.606511391381     0.889016976304     1.365126569651    15.994914619570
         O           -2.837529891381    -0.917501123696    -0.029523130349    15.994914619570
         C            2.675582608619     1.598001976304    -0.007253430349    12.000000000000
         H            2.784701608619     1.645093976304     1.079469569651     1.007825032230
         H            3.497655608619     1.001636976304    -0.419217430349     1.007825032230
         H            2.724930608619     2.604497976304    -0.427322430349     1.007825032230

  Basis Set: AUG-CC-PVTZ
    Blend: AUG-CC-PVTZ
  Basis Set: (AUG-CC-PVTZ AUX)
    Blend: AUG-CC-PVTZ-JKFIT
	 Reference Energy          =   -1245.3438171534519370 [Eh]
	 Singles Energy            =      -0.0000000000000000 [Eh]
	 Same-Spin Energy          =      -0.6462038588836037 [Eh]
	 Opposite-Spin Energy      =      -1.8067907078987990 [Eh]
	 Correlation Energy        =      -2.4529945667824027 [Eh]
	 Total Energy              =   -1247.7968117202342455 [Eh]

	 ================> DF-SCS-MP2 Energies <==================
	-----------------------------------------------------------
	 SCS Same-Spin Scale       =       0.3333333333333333 [-]
	 SCS Opposite-Spin Scale   =       1.2000000000000000 [-]
	 SCS Same-Spin Energy      =      -0.2154012862945345 [Eh]
	 SCS Opposite-Spin Energy  =      -2.1681488494785586 [Eh]
	 SCS Correlation Energy    =      -2.3835501357730933 [Eh]
	 SCS Total Energy          =   -1247.7273672892249579 [Eh]
	-----------------------------------------------------------

  Dipole Moment: [D]
     X:     7.9575      Y:     2.3718      Z:    -0.4629     Total:     8.3163

*** Psi4 exiting successfully. Buy a developer a beer!
