                               Psi4 1.3.2 release

  ==> Input File <==

--------------------------------------------------------------------------
#psi4
#
memory 32 gb

molecule  {
-3 1
  P        1.1931290    -0.6069630     0.0087730
  P       -1.8341790     0.1663700     0.0034510
  O        1.3559990     1.0186560    -0.3729610
  O       -0.4103928    -0.8482160    -0.2503412
  O        1.9273580    -1.4129110    -1.0480400
  O        1.6168640    -0.7815310     1.4560350
  O       -1.8332320     1.0931450    -1.2188660
  O       -1.7034083     0.8822477     1.3565174
  O       -2.8968830    -0.9395270    -0.0292720
  C        2.6258790     1.5668310    -0.0085760
  H        2.7349980     1.6139230     1.0781470
  H        3.4479520     0.9704660    -0.4205400
  H        2.6752270     2.5733270    -0.4286450
units angstrom
no_reorient  #important for SAPT in psi4, default
symmetry c1  #important for SAPT in psi4, default
}

set PROPERTIES_ORIGIN ["COM"]
properties('MP2/aug-cc-pvtz', properties = ['dipole'])
--------------------------------------------------------------------------

    Molecular point group: c1
  Charge       = -3
  Multiplicity = 1
  Basis Set: AUG-CC-PVTZ
    Blend: AUG-CC-PVTZ
  Basis Set: (AUG-CC-PVTZ AUX)
    Blend: AUG-CC-PVTZ-JKFIT

    Orbital Energies [Eh]
    ---------------------

    Doubly Occupied:

       1A    -79.627584     2A    -79.556666     3A    -20.156270
       4A    -20.084556     5A    -20.057330     6A    -20.056368
       7A    -19.998899     8A    -19.994934     9A    -19.994671
      10A    -10.919527    11A     -7.141187    12A     -7.070611
      13A     -5.040435    14A     -5.038910    15A     -5.038188
      16A     -4.970086    17A     -4.967742    18A     -4.967641
      19A     -0.967341    20A     -0.883866    21A     -0.843077
      22A     -0.806982    23A     -0.796435    24A     -0.738992
      25A     -0.738185    26A     -0.563167    27A     -0.336317
      28A     -0.279955    29A     -0.256736    30A     -0.229979
      31A     -0.190071    32A     -0.146795    33A     -0.143356
      34A     -0.116805    35A     -0.090999    36A     -0.088427
      37A     -0.065366    38A     -0.059267    39A     -0.043153
      40A     -0.038294    41A     -0.024537    42A      0.003314
      43A      0.018178    44A      0.026415    45A      0.027019
      46A      0.028539    47A      0.066996    48A      0.070723
      49A      0.095755

  @DF-RHF Final Energy: -1245.34116702886604

   => Energetics <=

    Nuclear Repulsion Energy =            818.5959659601614931
    One-Electron Energy =               -3402.2887322229321398
    Two-Electron Energy =                1338.3515992339043805
    Total Energy =                      -1245.3411670288660389
  Basis Set: (AUG-CC-PVTZ AUX)
    Blend: AUG-CC-PVTZ-RI
    Molecular point group: c1

    Geometry (in Angstrom), charge = -3, multiplicity = 1:

       Center              X                  Y                   Z               Mass
    ------------   -----------------  -----------------  -----------------  -----------------
         P            1.248740212615    -0.578106940543     0.015144681118    30.973761998420
         P           -1.778567787385     0.195226059457     0.009822681118    30.973761998420
         O            1.411610212615     1.047512059457    -0.366589318882    15.994914619570
         O           -0.354781587385    -0.819359940543    -0.243969518882    15.994914619570
         O            1.982969212615    -1.384054940543    -1.041668318882    15.994914619570
         O            1.672475212615    -0.752674940543     1.462406681118    15.994914619570
         O           -1.777620787385     1.122001059457    -1.212494318882    15.994914619570
         O           -1.647797087385     0.911103759457     1.362889081118    15.994914619570
         O           -2.841271787385    -0.910670940543    -0.022900318882    15.994914619570
         C            2.681490212615     1.595687059457    -0.002204318882    12.000000000000
         H            2.790609212615     1.642779059457     1.084518681118     1.007825032230
         H            3.503563212615     0.999322059457    -0.414168318882     1.007825032230
         H            2.730838212615     2.602183059457    -0.422273318882     1.007825032230

  Basis Set: AUG-CC-PVTZ
    Blend: AUG-CC-PVTZ
  Basis Set: (AUG-CC-PVTZ AUX)
    Blend: AUG-CC-PVTZ-JKFIT
	 Reference Energy          =   -1245.3411670288660389 [Eh]
	 Singles Energy            =      -0.0000000000000000 [Eh]
	 Same-Spin Energy          =      -0.6464575944689074 [Eh]
	 Opposite-Spin Energy      =      -1.8075889876328630 [Eh]
	 Correlation Energy        =      -2.4540465821017703 [Eh]
	 Total Energy              =   -1247.7952136109677213 [Eh]

	 ================> DF-SCS-MP2 Energies <==================
	-----------------------------------------------------------
	 SCS Same-Spin Scale       =       0.3333333333333333 [-]
	 SCS Opposite-Spin Scale   =       1.2000000000000000 [-]
	 SCS Same-Spin Energy      =      -0.2154858648229691 [Eh]
	 SCS Opposite-Spin Energy  =      -2.1691067851594354 [Eh]
	 SCS Correlation Energy    =      -2.3845926499824044 [Eh]
	 SCS Total Energy          =   -1247.7257596788483625 [Eh]
	-----------------------------------------------------------

  Dipole Moment: [D]
     X:     8.2819      Y:     2.2980      Z:    -0.3522     Total:     8.6020

*** Psi4 exiting successfully. Buy a developer a beer!
