                               Psi4 1.3.2 release

  ==> Input File <==

--------------------------------------------------------------------------
#psi4
#
memory 32 gb

molecule  {
-3 1
  P        1.1660345    -0.6065910    -0.0023262
  P       -1.8341790     0.1663700     0.0034510
  O        1.3559990     1.0186560    -0.3729610
  O       -0.3886030    -0.8294050    -0.1958090
  O        1.9273580    -1.4129110    -1.0480400
  O        1.6168640    -0.7815310     1.4560350
  O       -1.8332320     1.0931450    -1.2188660
  O       -1.6562150     0.8578460     1.3638040
  O       -2.8968830    -0.9395270    -0.0292720
  C        2.6186692     1.5889623    -0.0175991
  H        2.7349980     1.6139230     1.0781470
  H        3.4479520     0.9704660    -0.4205400
  H        2.6752270     2.5733270    -0.4286450
units angstrom
no_reorient  #important for SAPT in psi4, default
symmetry c1  #important for SAPT in psi4, default
}

set PROPERTIES_ORIGIN ["COM"]
properties('MP2/aug-cc-pvtz', properties = ['dipole'])
--------------------------------------------------------------------------

    Molecular point group: c1
  Charge       = -3
  Multiplicity = 1
  Basis Set: AUG-CC-PVTZ
    Blend: AUG-CC-PVTZ
  Basis Set: (AUG-CC-PVTZ AUX)
    Blend: AUG-CC-PVTZ-JKFIT

    Orbital Energies [Eh]
    ---------------------

    Doubly Occupied:

       1A    -79.622017     2A    -79.562651     3A    -20.150478
       4A    -20.087269     5A    -20.052219     6A    -20.045803
       7A    -20.002123     8A    -20.001491     9A    -19.999844
      10A    -10.916030    11A     -7.135737    12A     -7.076500
      13A     -5.035106    14A     -5.033616    15A     -5.032620
      16A     -4.976112    17A     -4.973568    18A     -4.973435
      19A     -0.963403    20A     -0.893923    21A     -0.838234
      22A     -0.803713    23A     -0.793616    24A     -0.744560
      25A     -0.742827    26A     -0.560404    27A     -0.338368
      28A     -0.286442    29A     -0.247896    30A     -0.235024
      31A     -0.184207    32A     -0.150351    33A     -0.144276
      34A     -0.111519    35A     -0.097793    36A     -0.089634
      37A     -0.060527    38A     -0.059565    39A     -0.044822
      40A     -0.036037    41A     -0.017685    42A      0.012300
      43A      0.019376    44A      0.021282    45A      0.023239
      46A      0.030540    47A      0.061889    48A      0.065396
      49A      0.090685

  @DF-RHF Final Energy: -1245.34544662402618

   => Energetics <=

    Nuclear Repulsion Energy =            820.7740961639461830
    One-Electron Energy =               -3406.6456063216983239
    Two-Electron Energy =                1340.5260635337260737
    Total Energy =                      -1245.3454466240261809
  Basis Set: (AUG-CC-PVTZ AUX)
    Blend: AUG-CC-PVTZ-RI
    Molecular point group: c1

    Geometry (in Angstrom), charge = -3, multiplicity = 1:

       Center              X                  Y                   Z               Mass
    ------------   -----------------  -----------------  -----------------  -----------------
         P            1.220705483315    -0.578728269844     0.001204694030    30.973761998420
         P           -1.779508016685     0.194232730156     0.006981894030    30.973761998420
         O            1.410669983315     1.046518730156    -0.369430105970    15.994914619570
         O           -0.333932016685    -0.801542269844    -0.192278105970    15.994914619570
         O            1.982028983315    -1.385048269844    -1.044509105970    15.994914619570
         O            1.671534983315    -0.753668269844     1.459565894030    15.994914619570
         O           -1.778561016685     1.121007730156    -1.215335105970    15.994914619570
         O           -1.601544016685     0.885708730156     1.367334894030    15.994914619570
         O           -2.842212016685    -0.911664269844    -0.025741105970    15.994914619570
         C            2.673340183315     1.616825030156    -0.014068205970    12.000000000000
         H            2.789668983315     1.641785730156     1.081677894030     1.007825032230
         H            3.502622983315     0.998328730156    -0.417009105970     1.007825032230
         H            2.729897983315     2.601189730156    -0.425114105970     1.007825032230

  Basis Set: AUG-CC-PVTZ
    Blend: AUG-CC-PVTZ
  Basis Set: (AUG-CC-PVTZ AUX)
    Blend: AUG-CC-PVTZ-JKFIT
	 Reference Energy          =   -1245.3454466240261809 [Eh]
	 Singles Energy            =      -0.0000000000000000 [Eh]
	 Same-Spin Energy          =      -0.6460206188318036 [Eh]
	 Opposite-Spin Energy      =      -1.8062590627851796 [Eh]
	 Correlation Energy        =      -2.4522796816169832 [Eh]
	 Total Energy              =   -1247.7977263056432093 [Eh]

	 ================> DF-SCS-MP2 Energies <==================
	-----------------------------------------------------------
	 SCS Same-Spin Scale       =       0.3333333333333333 [-]
	 SCS Opposite-Spin Scale   =       1.2000000000000000 [-]
	 SCS Same-Spin Energy      =      -0.2153402062772679 [Eh]
	 SCS Opposite-Spin Energy  =      -2.1675108753422152 [Eh]
	 SCS Correlation Energy    =      -2.3828510816194832 [Eh]
	 SCS Total Energy          =   -1247.7282977056456730 [Eh]
	-----------------------------------------------------------

  Dipole Moment: [D]
     X:     7.4426      Y:     2.4534      Z:    -0.6295     Total:     7.8618

*** Psi4 exiting successfully. Buy a developer a beer!
