                               Psi4 1.3.2 release

  ==> Input File <==

--------------------------------------------------------------------------
#psi4
#
memory 32 gb

molecule  {
-3 1
  P        1.1931290    -0.6069630     0.0087730
  P       -1.8341790     0.1663700     0.0034510
  O        1.3875172     1.0034193    -0.4199072
  O       -0.3886030    -0.8294050    -0.1958090
  O        1.9406447    -1.3675725    -1.0720562
  O        1.6168640    -0.7815310     1.4560350
  O       -1.8332320     1.0931450    -1.2188660
  O       -1.6562150     0.8578460     1.3638040
  O       -2.8968830    -0.9395270    -0.0292720
  C        2.6258790     1.5668310    -0.0085760
  H        2.7349980     1.6139230     1.0781470
  H        3.4479520     0.9704660    -0.4205400
  H        2.6752270     2.5733270    -0.4286450
units angstrom
no_reorient  #important for SAPT in psi4, default
symmetry c1  #important for SAPT in psi4, default
}

set PROPERTIES_ORIGIN ["COM"]
properties('MP2/aug-cc-pvtz', properties = ['dipole'])
--------------------------------------------------------------------------

    Molecular point group: c1
  Charge       = -3
  Multiplicity = 1
  Basis Set: AUG-CC-PVTZ
    Blend: AUG-CC-PVTZ
  Basis Set: (AUG-CC-PVTZ AUX)
    Blend: AUG-CC-PVTZ-JKFIT

    Orbital Energies [Eh]
    ---------------------

    Doubly Occupied:

       1A    -79.622529     2A    -79.560128     3A    -20.149088
       4A    -20.082607     5A    -20.054561     6A    -20.052008
       7A    -19.999873     8A    -19.999658     9A    -19.998432
      10A    -10.914579    11A     -7.136552    12A     -7.073948
      13A     -5.035882    14A     -5.034368    15A     -5.033496
      16A     -4.973521    17A     -4.971052    18A     -4.970921
      19A     -0.965799    20A     -0.887628    21A     -0.841793
      22A     -0.804493    23A     -0.799761    24A     -0.742461
      25A     -0.741220    26A     -0.558033    27A     -0.336182
      28A     -0.282877    29A     -0.253300    30A     -0.228454
      31A     -0.187528    32A     -0.148007    33A     -0.143619
      34A     -0.112082    35A     -0.094080    36A     -0.089211
      37A     -0.062794    38A     -0.058784    39A     -0.044268
      40A     -0.038013    41A     -0.020190    42A      0.006432
      43A      0.020039    44A      0.021917    45A      0.025039
      46A      0.027262    47A      0.064173    48A      0.067635
      49A      0.092431

  @DF-RHF Final Energy: -1245.34554069977412

   => Energetics <=

    Nuclear Repulsion Energy =            820.3308511724769687
    One-Electron Energy =               -3405.7950748391044726
    Two-Electron Energy =                1340.1186829668536120
    Total Energy =                      -1245.3455406997741193
  Basis Set: (AUG-CC-PVTZ AUX)
    Blend: AUG-CC-PVTZ-RI
    Molecular point group: c1

    Geometry (in Angstrom), charge = -3, multiplicity = 1:

       Center              X                  Y                   Z               Mass
    ------------   -----------------  -----------------  -----------------  -----------------
         P            1.239107135220    -0.580182004024     0.015918761042    30.973761998420
         P           -1.788200864780     0.193150995976     0.010596761042    30.973761998420
         O            1.433495335220     1.030200295976    -0.412761438958    15.994914619570
         O           -0.342624864780    -0.802624004024    -0.188663238958    15.994914619570
         O            1.986622835220    -1.340791504024    -1.064910438958    15.994914619570
         O            1.662842135220    -0.754750004024     1.463180761042    15.994914619570
         O           -1.787253864780     1.119925995976    -1.211720238958    15.994914619570
         O           -1.610236864780     0.884626995976     1.370949761042    15.994914619570
         O           -2.850904864780    -0.912746004024    -0.022126238958    15.994914619570
         C            2.671857135220     1.593611995976    -0.001430238958    12.000000000000
         H            2.780976135220     1.640703995976     1.085292761042     1.007825032230
         H            3.493930135220     0.997246995976    -0.413394238958     1.007825032230
         H            2.721205135220     2.600107995976    -0.421499238958     1.007825032230

  Basis Set: AUG-CC-PVTZ
    Blend: AUG-CC-PVTZ
  Basis Set: (AUG-CC-PVTZ AUX)
    Blend: AUG-CC-PVTZ-JKFIT
	 Reference Energy          =   -1245.3455406997741193 [Eh]
	 Singles Energy            =      -0.0000000000000000 [Eh]
	 Same-Spin Energy          =      -0.6459967846948376 [Eh]
	 Opposite-Spin Energy      =      -1.8060837842650534 [Eh]
	 Correlation Energy        =      -2.4520805689598912 [Eh]
	 Total Energy              =   -1247.7976212687340194 [Eh]

	 ================> DF-SCS-MP2 Energies <==================
	-----------------------------------------------------------
	 SCS Same-Spin Scale       =       0.3333333333333333 [-]
	 SCS Opposite-Spin Scale   =       1.2000000000000000 [-]
	 SCS Same-Spin Energy      =      -0.2153322615649458 [Eh]
	 SCS Opposite-Spin Energy  =      -2.1673005411180641 [Eh]
	 SCS Correlation Energy    =      -2.3826328026830099 [Eh]
	 SCS Total Energy          =   -1247.7281735024571390 [Eh]
	-----------------------------------------------------------

  Dipole Moment: [D]
     X:     7.7870      Y:     2.2267      Z:    -0.3566     Total:     8.1070

*** Psi4 exiting successfully. Buy a developer a beer!
