                               Psi4 1.3.2 release

  ==> Input File <==

--------------------------------------------------------------------------
#psi4
#
memory 32 gb

molecule  {
-3 1
  P        1.1931290    -0.6069630     0.0087730
  P       -1.8341790     0.1663700     0.0034510
  O        1.4031899     0.9950639    -0.4431881
  O       -0.3886030    -0.8294050    -0.1958090
  O        1.9469475    -1.3445522    -1.0835722
  O        1.6168640    -0.7815310     1.4560350
  O       -1.8332320     1.0931450    -1.2188660
  O       -1.6562150     0.8578460     1.3638040
  O       -2.8968830    -0.9395270    -0.0292720
  C        2.6258790     1.5668310    -0.0085760
  H        2.7349980     1.6139230     1.0781470
  H        3.4479520     0.9704660    -0.4205400
  H        2.6752270     2.5733270    -0.4286450
units angstrom
no_reorient  #important for SAPT in psi4, default
symmetry c1  #important for SAPT in psi4, default
}

set PROPERTIES_ORIGIN ["COM"]
properties('MP2/aug-cc-pvtz', properties = ['dipole'])
--------------------------------------------------------------------------

    Molecular point group: c1
  Charge       = -3
  Multiplicity = 1
  Basis Set: AUG-CC-PVTZ
    Blend: AUG-CC-PVTZ
  Basis Set: (AUG-CC-PVTZ AUX)
    Blend: AUG-CC-PVTZ-JKFIT

    Orbital Energies [Eh]
    ---------------------

    Doubly Occupied:

       1A    -79.622786     2A    -79.560647     3A    -20.147126
       4A    -20.083619     5A    -20.056412     6A    -20.050564
       7A    -20.000187     8A    -20.000104     9A    -19.999022
      10A    -10.913352    11A     -7.136809    12A     -7.074469
      13A     -5.036154    14A     -5.034635    15A     -5.033729
      16A     -4.974047    17A     -4.971569    18A     -4.971438
      19A     -0.965831    20A     -0.888074    21A     -0.841958
      22A     -0.805216    23A     -0.800096    24A     -0.742837
      25A     -0.741733    26A     -0.556735    27A     -0.336112
      28A     -0.283149    29A     -0.252806    30A     -0.228035
      31A     -0.187850    32A     -0.148382    33A     -0.143493
      34A     -0.111112    35A     -0.094627    36A     -0.089451
      37A     -0.062720    38A     -0.059317    39A     -0.044777
      40A     -0.037944    41A     -0.019329    42A      0.006404
      43A      0.019730    44A      0.021533    45A      0.024678
      46A      0.026800    47A      0.063686    48A      0.067172
      49A      0.092000

  @DF-RHF Final Energy: -1245.34463454726006

   => Energetics <=

    Nuclear Repulsion Energy =            820.2864575327322427
    One-Electron Energy =               -3405.6896856485172975
    Two-Electron Energy =                1340.0585935685251116
    Total Energy =                      -1245.3446345472600569
  Basis Set: (AUG-CC-PVTZ AUX)
    Blend: AUG-CC-PVTZ-RI
    Molecular point group: c1

    Geometry (in Angstrom), charge = -3, multiplicity = 1:

       Center              X                  Y                   Z               Mass
    ------------   -----------------  -----------------  -----------------  -----------------
         P            1.237246730851    -0.581423506789     0.018864600945    30.973761998420
         P           -1.790061269149     0.191909493211     0.013542600945    30.973761998420
         O            1.447307630851     1.020603393211    -0.433096499055    15.994914619570
         O           -0.344485269149    -0.803865506789    -0.185717399055    15.994914619570
         O            1.991065230851    -1.319012706789    -1.073480599055    15.994914619570
         O            1.660981730851    -0.755991506789     1.466126600945    15.994914619570
         O           -1.789114269149     1.118684493211    -1.208774399055    15.994914619570
         O           -1.612097269149     0.883385493211     1.373895600945    15.994914619570
         O           -2.852765269149    -0.913987506789    -0.019180399055    15.994914619570
         C            2.669996730851     1.592370493211     0.001515600945    12.000000000000
         H            2.779115730851     1.639462493211     1.088238600945     1.007825032230
         H            3.492069730851     0.996005493211    -0.410448399055     1.007825032230
         H            2.719344730851     2.598866493211    -0.418553399055     1.007825032230

  Basis Set: AUG-CC-PVTZ
    Blend: AUG-CC-PVTZ
  Basis Set: (AUG-CC-PVTZ AUX)
    Blend: AUG-CC-PVTZ-JKFIT
	 Reference Energy          =   -1245.3446345472600569 [Eh]
	 Singles Energy            =      -0.0000000000000000 [Eh]
	 Same-Spin Energy          =      -0.6460376527167404 [Eh]
	 Opposite-Spin Energy      =      -1.8060806489778565 [Eh]
	 Correlation Energy        =      -2.4521183016945969 [Eh]
	 Total Energy              =   -1247.7967528489546112 [Eh]

	 ================> DF-SCS-MP2 Energies <==================
	-----------------------------------------------------------
	 SCS Same-Spin Scale       =       0.3333333333333333 [-]
	 SCS Opposite-Spin Scale   =       1.2000000000000000 [-]
	 SCS Same-Spin Energy      =      -0.2153458842389135 [Eh]
	 SCS Opposite-Spin Energy  =      -2.1672967787734279 [Eh]
	 SCS Correlation Energy    =      -2.3826426630123412 [Eh]
	 SCS Total Energy          =   -1247.7272772102724048 [Eh]
	-----------------------------------------------------------

  Dipole Moment: [D]
     X:     7.7239      Y:     2.1740      Z:    -0.2993     Total:     8.0296

*** Psi4 exiting successfully. Buy a developer a beer!
