                               Psi4 1.3.2 release

  ==> Input File <==

--------------------------------------------------------------------------
#psi4
#
memory 32 gb

molecule  {
-3 1
  P        1.1931290    -0.6069630     0.0087730
  P       -1.8341790     0.1663700     0.0034510
  O        1.3559990     1.0186560    -0.3729610
  O       -0.3764088    -0.7993042    -0.2482271
  O        1.9273580    -1.4129110    -1.0480400
  O        1.6168640    -0.7815310     1.4560350
  O       -1.7879803     1.0697718    -1.2353801
  O       -1.6562150     0.8578460     1.3638040
  O       -2.8968830    -0.9395270    -0.0292720
  C        2.6258790     1.5668310    -0.0085760
  H        2.7349980     1.6139230     1.0781470
  H        3.4479520     0.9704660    -0.4205400
  H        2.6752270     2.5733270    -0.4286450
units angstrom
no_reorient  #important for SAPT in psi4, default
symmetry c1  #important for SAPT in psi4, default
}

set PROPERTIES_ORIGIN ["COM"]
properties('MP2/aug-cc-pvtz', properties = ['dipole'])
--------------------------------------------------------------------------

    Molecular point group: c1
  Charge       = -3
  Multiplicity = 1
  Basis Set: AUG-CC-PVTZ
    Blend: AUG-CC-PVTZ
  Basis Set: (AUG-CC-PVTZ AUX)
    Blend: AUG-CC-PVTZ-JKFIT

    Orbital Energies [Eh]
    ---------------------

    Doubly Occupied:

       1A    -79.619453     2A    -79.559672     3A    -20.149627
       4A    -20.077334     5A    -20.051784     6A    -20.051636
       7A    -20.001658     8A    -20.000607     9A    -19.996624
      10A    -10.914793    11A     -7.133600    12A     -7.073495
      13A     -5.032939    14A     -5.031372    15A     -5.030621
      16A     -4.973107    17A     -4.970620    18A     -4.970438
      19A     -0.963029    20A     -0.885749    21A     -0.841086
      22A     -0.802670    23A     -0.798024    24A     -0.743131
      25A     -0.741426    26A     -0.558375    27A     -0.335025
      28A     -0.280552    29A     -0.251971    30A     -0.225681
      31A     -0.187185    32A     -0.146989    33A     -0.142528
      34A     -0.112594    35A     -0.092448    36A     -0.087881
      37A     -0.060945    38A     -0.056817    39A     -0.043323
      40A     -0.037554    41A     -0.020330    42A      0.007228
      43A      0.019430    44A      0.022746    45A      0.025972
      46A      0.029522    47A      0.063248    48A      0.068943
      49A      0.091835

  @DF-RHF Final Energy: -1245.34497567140056

   => Energetics <=

    Nuclear Repulsion Energy =            821.4711504074214190
    One-Electron Energy =               -3408.1807058249792135
    Two-Electron Energy =                1341.3645797461570055
    Total Energy =                      -1245.3449756714005616
  Basis Set: (AUG-CC-PVTZ AUX)
    Blend: AUG-CC-PVTZ-RI
    Molecular point group: c1

    Geometry (in Angstrom), charge = -3, multiplicity = 1:

       Center              X                  Y                   Z               Mass
    ------------   -----------------  -----------------  -----------------  -----------------
         P            1.238036972010    -0.578203188352     0.015746888141    30.973761998420
         P           -1.789271027990     0.195129811648     0.010424888141    30.973761998420
         O            1.400906972010     1.047415811648    -0.365987111859    15.994914619570
         O           -0.331500827990    -0.770544388352    -0.241253211859    15.994914619570
         O            1.972265972010    -1.384151188352    -1.041066111859    15.994914619570
         O            1.661771972010    -0.752771188352     1.463008888141    15.994914619570
         O           -1.743072327990     1.098531611648    -1.228406211859    15.994914619570
         O           -1.611307027990     0.886605811648     1.370777888141    15.994914619570
         O           -2.851975027990    -0.910767188352    -0.022298111859    15.994914619570
         C            2.670786972010     1.595590811648    -0.001602111859    12.000000000000
         H            2.779905972010     1.642682811648     1.085120888141     1.007825032230
         H            3.492859972010     0.999225811648    -0.413566111859     1.007825032230
         H            2.720134972010     2.602086811648    -0.421671111859     1.007825032230

  Basis Set: AUG-CC-PVTZ
    Blend: AUG-CC-PVTZ
  Basis Set: (AUG-CC-PVTZ AUX)
    Blend: AUG-CC-PVTZ-JKFIT
	 Reference Energy          =   -1245.3449756714005616 [Eh]
	 Singles Energy            =      -0.0000000000000000 [Eh]
	 Same-Spin Energy          =      -0.6461636804087585 [Eh]
	 Opposite-Spin Energy      =      -1.8064716874992173 [Eh]
	 Correlation Energy        =      -2.4526353679079760 [Eh]
	 Total Energy              =   -1247.7976110393085492 [Eh]

	 ================> DF-SCS-MP2 Energies <==================
	-----------------------------------------------------------
	 SCS Same-Spin Scale       =       0.3333333333333333 [-]
	 SCS Opposite-Spin Scale   =       1.2000000000000000 [-]
	 SCS Same-Spin Energy      =      -0.2153878934695861 [Eh]
	 SCS Opposite-Spin Energy  =      -2.1677660249990605 [Eh]
	 SCS Correlation Energy    =      -2.3831539184686465 [Eh]
	 SCS Total Energy          =   -1247.7281295898692406 [Eh]
	-----------------------------------------------------------

  Dipole Moment: [D]
     X:     7.6941      Y:     2.3348      Z:    -0.3510     Total:     8.0483

*** Psi4 exiting successfully. Buy a developer a beer!
