                               Psi4 1.3.2 release

  ==> Input File <==

--------------------------------------------------------------------------
#psi4
#
memory 32 gb

molecule  {
-3 1
  P        1.1931290    -0.6069630     0.0087730
  P       -1.8341790     0.1663700     0.0034510
  O        1.3559990     1.0186560    -0.3729610
  O       -0.4101913    -0.8722705    -0.1167468
  O        1.9273580    -1.4129110    -1.0480400
  O        1.6168640    -0.7815310     1.4560350
  O       -1.9010944     1.1260791    -1.1913094
  O       -1.6562150     0.8578460     1.3638040
  O       -2.8968830    -0.9395270    -0.0292720
  C        2.6258790     1.5668310    -0.0085760
  H        2.7349980     1.6139230     1.0781470
  H        3.4479520     0.9704660    -0.4205400
  H        2.6752270     2.5733270    -0.4286450
units angstrom
no_reorient  #important for SAPT in psi4, default
symmetry c1  #important for SAPT in psi4, default
}

set PROPERTIES_ORIGIN ["COM"]
properties('MP2/aug-cc-pvtz', properties = ['dipole'])
--------------------------------------------------------------------------

    Molecular point group: c1
  Charge       = -3
  Multiplicity = 1
  Basis Set: AUG-CC-PVTZ
    Blend: AUG-CC-PVTZ
  Basis Set: (AUG-CC-PVTZ AUX)
    Blend: AUG-CC-PVTZ-JKFIT

    Orbital Energies [Eh]
    ---------------------

    Doubly Occupied:

       1A    -79.626318     2A    -79.557688     3A    -20.157870
       4A    -20.084828     5A    -20.059792     6A    -20.049753
       7A    -20.002498     8A    -19.994070     9A    -19.991922
      10A    -10.920582    11A     -7.140137    12A     -7.071554
      13A     -5.039375    14A     -5.037930    15A     -5.037065
      16A     -4.971042    17A     -4.968700    18A     -4.968529
      19A     -0.968531    20A     -0.886496    21A     -0.842452
      22A     -0.804828    23A     -0.798000    24A     -0.740419
      25A     -0.736227    26A     -0.564084    27A     -0.337271
      28A     -0.282964    29A     -0.257515    30A     -0.232249
      31A     -0.187457    32A     -0.147852    33A     -0.144580
      34A     -0.116997    35A     -0.092701    36A     -0.089219
      37A     -0.066433    38A     -0.058831    39A     -0.042150
      40A     -0.038331    41A     -0.025344    42A      0.006641
      43A      0.021848    44A      0.022873    45A      0.026822
      46A      0.028918    47A      0.066922    48A      0.071695
      49A      0.096070

  @DF-RHF Final Energy: -1245.34056231773707

   => Energetics <=

    Nuclear Repulsion Energy =            818.7815198796657796
    One-Electron Energy =               -3402.6465762275888665
    Two-Electron Energy =                1338.5244940301861334
    Total Energy =                      -1245.3405623177370671
  Basis Set: (AUG-CC-PVTZ AUX)
    Blend: AUG-CC-PVTZ-RI
    Molecular point group: c1

    Geometry (in Angstrom), charge = -3, multiplicity = 1:

       Center              X                  Y                   Z               Mass
    ------------   -----------------  -----------------  -----------------  -----------------
         P            1.250472961015    -0.576792868843     0.000885071694    30.973761998420
         P           -1.776835038985     0.196540131157    -0.004436928306    30.973761998420
         O            1.413342961015     1.048826131157    -0.380848928306    15.994914619570
         O           -0.352847338985    -0.842100368843    -0.124634728306    15.994914619570
         O            1.984701961015    -1.382740868843    -1.055927928306    15.994914619570
         O            1.674207961015    -0.751360868843     1.448147071694    15.994914619570
         O           -1.843750438985     1.156249231157    -1.199197328306    15.994914619570
         O           -1.598871038985     0.888016131157     1.355916071694    15.994914619570
         O           -2.839539038985    -0.909356868843    -0.037159928306    15.994914619570
         C            2.683222961015     1.597001131157    -0.016463928306    12.000000000000
         H            2.792341961015     1.644093131157     1.070259071694     1.007825032230
         H            3.505295961015     1.000636131157    -0.428427928306     1.007825032230
         H            2.732570961015     2.603497131157    -0.436532928306     1.007825032230

  Basis Set: AUG-CC-PVTZ
    Blend: AUG-CC-PVTZ
  Basis Set: (AUG-CC-PVTZ AUX)
    Blend: AUG-CC-PVTZ-JKFIT
	 Reference Energy          =   -1245.3405623177370671 [Eh]
	 Singles Energy            =      -0.0000000000000000 [Eh]
	 Same-Spin Energy          =      -0.6462199253902869 [Eh]
	 Opposite-Spin Energy      =      -1.8069369618844671 [Eh]
	 Correlation Energy        =      -2.4531568872747540 [Eh]
	 Total Energy              =   -1247.7937192050117119 [Eh]

	 ================> DF-SCS-MP2 Energies <==================
	-----------------------------------------------------------
	 SCS Same-Spin Scale       =       0.3333333333333333 [-]
	 SCS Opposite-Spin Scale   =       1.2000000000000000 [-]
	 SCS Same-Spin Energy      =      -0.2154066417967623 [Eh]
	 SCS Opposite-Spin Energy  =      -2.1683243542613604 [Eh]
	 SCS Correlation Energy    =      -2.3837309960581226 [Eh]
	 SCS Total Energy          =   -1247.7242933137952150 [Eh]
	-----------------------------------------------------------

  Dipole Moment: [D]
     X:     8.2722      Y:     2.3206      Z:    -0.6522     Total:     8.6162

*** Psi4 exiting successfully. Buy a developer a beer!
