                               Psi4 1.3.2 release

  ==> Input File <==

--------------------------------------------------------------------------
#psi4
#
memory 32 gb

molecule  {
-3 1
  P        1.1931290    -0.6069630     0.0087730
  P       -1.8341790     0.1663700     0.0034510
  O        1.3620309     1.0212601    -0.3970447
  O       -0.3886030    -0.8294050    -0.1958090
  O        1.9273580    -1.4129110    -1.0480400
  O        1.6168640    -0.7815310     1.4560350
  O       -1.8332320     1.0931450    -1.2188660
  O       -1.6562150     0.8578460     1.3638040
  O       -2.8968830    -0.9395270    -0.0292720
  C        2.6258790     1.5668310    -0.0085760
  H        2.7523942     1.6214326     1.0759073
  H        3.4479520     0.9704660    -0.4205400
  H        2.6752270     2.5733270    -0.4286450
units angstrom
no_reorient  #important for SAPT in psi4, default
symmetry c1  #important for SAPT in psi4, default
}

set PROPERTIES_ORIGIN ["COM"]
properties('MP2/aug-cc-pvtz', properties = ['dipole'])
--------------------------------------------------------------------------

    Molecular point group: c1
  Charge       = -3
  Multiplicity = 1
  Basis Set: AUG-CC-PVTZ
    Blend: AUG-CC-PVTZ
  Basis Set: (AUG-CC-PVTZ AUX)
    Blend: AUG-CC-PVTZ-JKFIT

    Orbital Energies [Eh]
    ---------------------

    Doubly Occupied:

       1A    -79.622939     2A    -79.559322     3A    -20.153416
       4A    -20.081131     5A    -20.054409     6A    -20.052467
       7A    -19.999362     8A    -19.998976     9A    -19.997563
      10A    -10.916652    11A     -7.136886    12A     -7.073139
      13A     -5.036177    14A     -5.034658    15A     -5.033868
      16A     -4.972704    17A     -4.970252    18A     -4.970121
      19A     -0.963604    20A     -0.887035    21A     -0.841918
      22A     -0.803568    23A     -0.799162    24A     -0.741880
      25A     -0.740451    26A     -0.559873    27A     -0.336064
      28A     -0.282079    29A     -0.252619    30A     -0.226569
      31A     -0.187760    32A     -0.147312    33A     -0.143553
      34A     -0.115116    35A     -0.092955    36A     -0.088576
      37A     -0.063446    38A     -0.057898    39A     -0.043391
      40A     -0.038336    41A     -0.022164    42A      0.006491
      43A      0.020513    44A      0.022521    45A      0.025622
      46A      0.027978    47A      0.064915    48A      0.068333
      49A      0.093088

  @DF-RHF Final Energy: -1245.34463825518105

   => Energetics <=

    Nuclear Repulsion Energy =            819.9692376070776163
    One-Electron Energy =               -3405.0879327333886977
    Two-Electron Energy =                1339.7740568711301421
    Total Energy =                      -1245.3446382551810530
  Basis Set: (AUG-CC-PVTZ AUX)
    Blend: AUG-CC-PVTZ-RI
    Molecular point group: c1

    Geometry (in Angstrom), charge = -3, multiplicity = 1:

       Center              X                  Y                   Z               Mass
    ------------   -----------------  -----------------  -----------------  -----------------
         P            1.242296788901    -0.577894158561     0.011962045823    30.973761998420
         P           -1.785011211099     0.195438841439     0.006640045823    30.973761998420
         O            1.411198688901     1.050328941439    -0.393855654177    15.994914619570
         O           -0.339435211099    -0.800336158561    -0.192619954177    15.994914619570
         O            1.976525788901    -1.383842158561    -1.044850954177    15.994914619570
         O            1.666031788901    -0.752462158561     1.459224045823    15.994914619570
         O           -1.784064211099     1.122213841439    -1.215676954177    15.994914619570
         O           -1.607047211099     0.886914841439     1.366993045823    15.994914619570
         O           -2.847715211099    -0.910458158561    -0.026082954177    15.994914619570
         C            2.675046788901     1.595899841439    -0.005386954177    12.000000000000
         H            2.801561988901     1.650501441439     1.079096345823     1.007825032230
         H            3.497119788901     0.999534841439    -0.417350954177     1.007825032230
         H            2.724394788901     2.602395841439    -0.425455954177     1.007825032230

  Basis Set: AUG-CC-PVTZ
    Blend: AUG-CC-PVTZ
  Basis Set: (AUG-CC-PVTZ AUX)
    Blend: AUG-CC-PVTZ-JKFIT
	 Reference Energy          =   -1245.3446382551810530 [Eh]
	 Singles Energy            =      -0.0000000000000000 [Eh]
	 Same-Spin Energy          =      -0.6461384200427935 [Eh]
	 Opposite-Spin Energy      =      -1.8066574584141444 [Eh]
	 Correlation Energy        =      -2.4527958784569379 [Eh]
	 Total Energy              =   -1247.7974341336380348 [Eh]

	 ================> DF-SCS-MP2 Energies <==================
	-----------------------------------------------------------
	 SCS Same-Spin Scale       =       0.3333333333333333 [-]
	 SCS Opposite-Spin Scale   =       1.2000000000000000 [-]
	 SCS Same-Spin Energy      =      -0.2153794733475978 [Eh]
	 SCS Opposite-Spin Energy  =      -2.1679889500969733 [Eh]
	 SCS Correlation Energy    =      -2.3833684234445713 [Eh]
	 SCS Total Energy          =   -1247.7280066786256612 [Eh]
	-----------------------------------------------------------

  Dipole Moment: [D]
     X:     7.8873      Y:     2.2945      Z:    -0.4370     Total:     8.2259

*** Psi4 exiting successfully. Buy a developer a beer!
