                               Psi4 1.3.2 release

  ==> Input File <==

--------------------------------------------------------------------------
#psi4
#
memory 32 gb

molecule  {
-3 1
  P        1.1931290    -0.6069630     0.0087730
  P       -1.8341790     0.1663700     0.0034510
  O        1.3559990     1.0186560    -0.3729610
  O       -0.3886030    -0.8294050    -0.1958090
  O        1.9273580    -1.4129110    -1.0480400
  O        1.6168640    -0.7815310     1.4560350
  O       -1.8263351     1.1348806    -1.1860436
  O       -1.6532984     0.9049851     1.3384043
  O       -2.8968830    -0.9395270    -0.0292720
  C        2.6258790     1.5668310    -0.0085760
  H        2.7349980     1.6139230     1.0781470
  H        3.4479520     0.9704660    -0.4205400
  H        2.6752270     2.5733270    -0.4286450
units angstrom
no_reorient  #important for SAPT in psi4, default
symmetry c1  #important for SAPT in psi4, default
}

set PROPERTIES_ORIGIN ["COM"]
properties('MP2/aug-cc-pvtz', properties = ['dipole'])
--------------------------------------------------------------------------

    Molecular point group: c1
  Charge       = -3
  Multiplicity = 1
  Basis Set: AUG-CC-PVTZ
    Blend: AUG-CC-PVTZ
  Basis Set: (AUG-CC-PVTZ AUX)
    Blend: AUG-CC-PVTZ-JKFIT

    Orbital Energies [Eh]
    ---------------------

    Doubly Occupied:

       1A    -79.622757     2A    -79.558978     3A    -20.152410
       4A    -20.082657     5A    -20.055334     6A    -20.051395
       7A    -20.003263     8A    -19.995849     9A    -19.993834
      10A    -10.916659    11A     -7.136784    12A     -7.072786
      13A     -5.036084    14A     -5.034582    15A     -5.033768
      16A     -4.972315    17A     -4.969889    18A     -4.969792
      19A     -0.964983    20A     -0.887425    21A     -0.841819
      22A     -0.803497    23A     -0.799699    24A     -0.744677
      25A     -0.735302    26A     -0.560202    27A     -0.336622
      28A     -0.282628    29A     -0.253714    30A     -0.228046
      31A     -0.187260    32A     -0.147229    33A     -0.144089
      34A     -0.114378    35A     -0.093725    36A     -0.088007
      37A     -0.062848    38A     -0.058571    39A     -0.043183
      40A     -0.038725    41A     -0.022385    42A      0.007040
      43A      0.019639    44A      0.023260    45A      0.026332
      46A      0.028454    47A      0.062777    48A      0.071877
      49A      0.094973

  @DF-RHF Final Energy: -1245.34455843006117

   => Energetics <=

    Nuclear Repulsion Energy =            820.4072200672538884
    One-Electron Energy =               -3405.9759559994458868
    Two-Electron Energy =                1340.2241775021307149
    Total Energy =                      -1245.3445584300611699
  Basis Set: (AUG-CC-PVTZ AUX)
    Blend: AUG-CC-PVTZ-RI
    Molecular point group: c1

    Geometry (in Angstrom), charge = -3, multiplicity = 1:

       Center              X                  Y                   Z               Mass
    ------------   -----------------  -----------------  -----------------  -----------------
         P            1.242069441125    -0.585157606850     0.009282826366    30.973761998420
         P           -1.785238558875     0.188175393150     0.003960826366    30.973761998420
         O            1.404939441125     1.040461393150    -0.372451173634    15.994914619570
         O           -0.339662558875    -0.807599606850    -0.195299173634    15.994914619570
         O            1.976298441125    -1.391105606850    -1.047530173634    15.994914619570
         O            1.665804441125    -0.759725606850     1.456544826366    15.994914619570
         O           -1.777394658875     1.156685993150    -1.185533773634    15.994914619570
         O           -1.604357958875     0.926790493150     1.338914126366    15.994914619570
         O           -2.847942558875    -0.917721606850    -0.028762173634    15.994914619570
         C            2.674819441125     1.588636393150    -0.008066173634    12.000000000000
         H            2.783938441125     1.635728393150     1.078656826366     1.007825032230
         H            3.496892441125     0.992271393150    -0.420030173634     1.007825032230
         H            2.724167441125     2.595132393150    -0.428135173634     1.007825032230

  Basis Set: AUG-CC-PVTZ
    Blend: AUG-CC-PVTZ
  Basis Set: (AUG-CC-PVTZ AUX)
    Blend: AUG-CC-PVTZ-JKFIT
	 Reference Energy          =   -1245.3445584300611699 [Eh]
	 Singles Energy            =      -0.0000000000000000 [Eh]
	 Same-Spin Energy          =      -0.6460198000065326 [Eh]
	 Opposite-Spin Energy      =      -1.8063065103232963 [Eh]
	 Correlation Energy        =      -2.4523263103298287 [Eh]
	 Total Energy              =   -1247.7968847403910786 [Eh]

	 ================> DF-SCS-MP2 Energies <==================
	-----------------------------------------------------------
	 SCS Same-Spin Scale       =       0.3333333333333333 [-]
	 SCS Opposite-Spin Scale   =       1.2000000000000000 [-]
	 SCS Same-Spin Energy      =      -0.2153399333355109 [Eh]
	 SCS Opposite-Spin Energy  =      -2.1675678123879556 [Eh]
	 SCS Correlation Energy    =      -2.3829077457234664 [Eh]
	 SCS Total Energy          =   -1247.7274661757846843 [Eh]
	-----------------------------------------------------------

  Dipole Moment: [D]
     X:     7.8927      Y:     2.1118      Z:    -0.4896     Total:     8.1850

*** Psi4 exiting successfully. Buy a developer a beer!
