                               Psi4 1.3.2 release

  ==> Input File <==

--------------------------------------------------------------------------
#psi4
#
memory 32 gb

molecule  {
-3 1
  P        1.1931290    -0.6069630     0.0087730
  P       -1.8341790     0.1663700     0.0034510
  O        1.3559990     1.0186560    -0.3729610
  O       -0.3886030    -0.8294050    -0.1958090
  O        1.9571955    -1.4341896    -1.0097537
  O        1.6534089    -0.8164595     1.4401522
  O       -1.8332320     1.0931450    -1.2188660
  O       -1.6562150     0.8578460     1.3638040
  O       -2.8968830    -0.9395270    -0.0292720
  C        2.6258790     1.5668310    -0.0085760
  H        2.7349980     1.6139230     1.0781470
  H        3.4479520     0.9704660    -0.4205400
  H        2.6752270     2.5733270    -0.4286450
units angstrom
no_reorient  #important for SAPT in psi4, default
symmetry c1  #important for SAPT in psi4, default
}

set PROPERTIES_ORIGIN ["COM"]
properties('MP2/aug-cc-pvtz', properties = ['dipole'])
--------------------------------------------------------------------------

    Molecular point group: c1
  Charge       = -3
  Multiplicity = 1
  Basis Set: AUG-CC-PVTZ
    Blend: AUG-CC-PVTZ
  Basis Set: (AUG-CC-PVTZ AUX)
    Blend: AUG-CC-PVTZ-JKFIT

    Orbital Energies [Eh]
    ---------------------

    Doubly Occupied:

       1A    -79.621802     2A    -79.560893     3A    -20.155742
       4A    -20.084262     5A    -20.051345     6A    -20.047424
       7A    -20.000861     8A    -20.000257     9A    -19.999050
      10A    -10.917944    11A     -7.135840    12A     -7.074728
      13A     -5.035127    14A     -5.033490    15A     -5.032930
      16A     -4.974302    17A     -4.971827    18A     -4.971700
      19A     -0.966678    20A     -0.888229    21A     -0.842440
      22A     -0.801247    23A     -0.797641    24A     -0.743284
      25A     -0.741910    26A     -0.561711    27A     -0.337716
      28A     -0.283450    29A     -0.255193    30A     -0.230014
      31A     -0.186819    32A     -0.148422    33A     -0.142585
      34A     -0.115736    35A     -0.094811    36A     -0.089454
      37A     -0.063338    38A     -0.058447    39A     -0.044209
      40A     -0.037943    41A     -0.022481    42A      0.009683
      43A      0.020838    44A      0.021867    45A      0.024305
      46A      0.030059    47A      0.063482    48A      0.066770
      49A      0.091682

  @DF-RHF Final Energy: -1245.34556849514320

   => Energetics <=

    Nuclear Repulsion Energy =            819.7673745336328466
    One-Electron Energy =               -3404.6366954661148156
    Two-Electron Energy =                1339.5237524373387714
    Total Energy =                      -1245.3455684951431977
  Basis Set: (AUG-CC-PVTZ AUX)
    Blend: AUG-CC-PVTZ-RI
    Molecular point group: c1

    Geometry (in Angstrom), charge = -3, multiplicity = 1:

       Center              X                  Y                   Z               Mass
    ------------   -----------------  -----------------  -----------------  -----------------
         P            1.237280424780    -0.572875255389     0.008014580102    30.973761998420
         P           -1.790027575220     0.200457744611     0.002692580102    30.973761998420
         O            1.400150424780     1.052743744611    -0.373719419898    15.994914619570
         O           -0.344451575220    -0.795317255389    -0.196567419898    15.994914619570
         O            2.001346924780    -1.400101855389    -1.010512119898    15.994914619570
         O            1.697560324780    -0.782371755389     1.439393780102    15.994914619570
         O           -1.789080575220     1.127232744611    -1.219624419898    15.994914619570
         O           -1.612063575220     0.891933744611     1.363045580102    15.994914619570
         O           -2.852731575220    -0.905439255389    -0.030030419898    15.994914619570
         C            2.670030424780     1.600918744611    -0.009334419898    12.000000000000
         H            2.779149424780     1.648010744611     1.077388580102     1.007825032230
         H            3.492103424780     1.004553744611    -0.421298419898     1.007825032230
         H            2.719378424780     2.607414744611    -0.429403419898     1.007825032230

  Basis Set: AUG-CC-PVTZ
    Blend: AUG-CC-PVTZ
  Basis Set: (AUG-CC-PVTZ AUX)
    Blend: AUG-CC-PVTZ-JKFIT
	 Reference Energy          =   -1245.3455684951431977 [Eh]
	 Singles Energy            =      -0.0000000000000000 [Eh]
	 Same-Spin Energy          =      -0.6459208957389174 [Eh]
	 Opposite-Spin Energy      =      -1.8061534401846804 [Eh]
	 Correlation Energy        =      -2.4520743359235979 [Eh]
	 Total Energy              =   -1247.7976428310666961 [Eh]

	 ================> DF-SCS-MP2 Energies <==================
	-----------------------------------------------------------
	 SCS Same-Spin Scale       =       0.3333333333333333 [-]
	 SCS Opposite-Spin Scale   =       1.2000000000000000 [-]
	 SCS Same-Spin Energy      =      -0.2153069652463058 [Eh]
	 SCS Opposite-Spin Energy  =      -2.1673841282216162 [Eh]
	 SCS Correlation Energy    =      -2.3826910934679222 [Eh]
	 SCS Total Energy          =   -1247.7282595886110812 [Eh]
	-----------------------------------------------------------

  Dipole Moment: [D]
     X:     7.7239      Y:     2.4892      Z:    -0.5271     Total:     8.1322

*** Psi4 exiting successfully. Buy a developer a beer!
