                               Psi4 1.3.2 release

  ==> Input File <==

--------------------------------------------------------------------------
#psi4
#
memory 32 gb

molecule  {
-3 1
  P        1.1931290    -0.6069630     0.0087730
  P       -1.8341790     0.1663700     0.0034510
  O        1.3559990     1.0186560    -0.3729610
  O       -0.3819583    -0.8191014    -0.2506644
  O        1.9273580    -1.4129110    -1.0480400
  O        1.6667862    -0.7710167     1.4417168
  O       -1.8332320     1.0931450    -1.2188660
  O       -1.6562150     0.8578460     1.3638040
  O       -2.8968830    -0.9395270    -0.0292720
  C        2.6258790     1.5668310    -0.0085760
  H        2.7349980     1.6139230     1.0781470
  H        3.4479520     0.9704660    -0.4205400
  H        2.6752270     2.5733270    -0.4286450
units angstrom
no_reorient  #important for SAPT in psi4, default
symmetry c1  #important for SAPT in psi4, default
}

set PROPERTIES_ORIGIN ["COM"]
properties('MP2/aug-cc-pvtz', properties = ['dipole'])
--------------------------------------------------------------------------

    Molecular point group: c1
  Charge       = -3
  Multiplicity = 1
  Basis Set: AUG-CC-PVTZ
    Blend: AUG-CC-PVTZ
  Basis Set: (AUG-CC-PVTZ AUX)
    Blend: AUG-CC-PVTZ-JKFIT

    Orbital Energies [Eh]
    ---------------------

    Doubly Occupied:

       1A    -79.621661     2A    -79.560828     3A    -20.150434
       4A    -20.083609     5A    -20.053511     6A    -20.050510
       7A    -20.000869     8A    -20.000805     9A    -19.998595
      10A    -10.914909    11A     -7.135713    12A     -7.074658
      13A     -5.035033    14A     -5.033431    15A     -5.032753
      16A     -4.974214    17A     -4.971752    18A     -4.971626
      19A     -0.963766    20A     -0.886336    21A     -0.842157
      22A     -0.804154    23A     -0.798524    24A     -0.743077
      25A     -0.741994    26A     -0.558585    27A     -0.335145
      28A     -0.280819    29A     -0.252122    30A     -0.226660
      31A     -0.188193    32A     -0.147978    33A     -0.142734
      34A     -0.113414    35A     -0.093303    36A     -0.088987
      37A     -0.061227    38A     -0.058979    39A     -0.044548
      40A     -0.038905    41A     -0.020981    42A      0.006100
      43A      0.019367    44A      0.022020    45A      0.024714
      46A      0.029011    47A      0.062875    48A      0.067164
      49A      0.091726

  @DF-RHF Final Energy: -1245.34533763569334

   => Energetics <=

    Nuclear Repulsion Energy =            820.0772522751065026
    One-Electron Energy =               -3405.2961331253804929
    Two-Electron Energy =                1339.8735432145808772
    Total Energy =                      -1245.3453376356933404
  Basis Set: (AUG-CC-PVTZ AUX)
    Blend: AUG-CC-PVTZ-RI
    Molecular point group: c1

    Geometry (in Angstrom), charge = -3, multiplicity = 1:

       Center              X                  Y                   Z               Mass
    ------------   -----------------  -----------------  -----------------  -----------------
         P            1.238111386491    -0.579396046566     0.015767324609    30.973761998420
         P           -1.789196613509     0.193936953434     0.010445324609    30.973761998420
         O            1.400981386491     1.046222953434    -0.365966675391    15.994914619570
         O           -0.336975913509    -0.791534446566    -0.243670075391    15.994914619570
         O            1.972340386491    -1.385344046566    -1.041045675391    15.994914619570
         O            1.711768586491    -0.743449746566     1.448711124609    15.994914619570
         O           -1.788249613509     1.120711953434    -1.211871675391    15.994914619570
         O           -1.611232613509     0.885412953434     1.370798324609    15.994914619570
         O           -2.851900613509    -0.911960046566    -0.022277675391    15.994914619570
         C            2.670861386491     1.594397953434    -0.001581675391    12.000000000000
         H            2.779980386491     1.641489953434     1.085141324609     1.007825032230
         H            3.492934386491     0.998032953434    -0.413545675391     1.007825032230
         H            2.720209386491     2.600893953434    -0.421650675391     1.007825032230

  Basis Set: AUG-CC-PVTZ
    Blend: AUG-CC-PVTZ
  Basis Set: (AUG-CC-PVTZ AUX)
    Blend: AUG-CC-PVTZ-JKFIT
	 Reference Energy          =   -1245.3453376356933404 [Eh]
	 Singles Energy            =      -0.0000000000000000 [Eh]
	 Same-Spin Energy          =      -0.6461567440460876 [Eh]
	 Opposite-Spin Energy      =      -1.8066170333117428 [Eh]
	 Correlation Energy        =      -2.4527737773578302 [Eh]
	 Total Energy              =   -1247.7981114130511742 [Eh]

	 ================> DF-SCS-MP2 Energies <==================
	-----------------------------------------------------------
	 SCS Same-Spin Scale       =       0.3333333333333333 [-]
	 SCS Opposite-Spin Scale   =       1.2000000000000000 [-]
	 SCS Same-Spin Energy      =      -0.2153855813486958 [Eh]
	 SCS Opposite-Spin Energy  =      -2.1679404399740911 [Eh]
	 SCS Correlation Energy    =      -2.3833260213227869 [Eh]
	 SCS Total Energy          =   -1247.7286636570161136 [Eh]
	-----------------------------------------------------------

  Dipole Moment: [D]
     X:     7.7108      Y:     2.3163      Z:    -0.3395     Total:     8.0583

*** Psi4 exiting successfully. Buy a developer a beer!
