                               Psi4 1.3.2 release

  ==> Input File <==

--------------------------------------------------------------------------
#psi4
#
memory 32 gb

molecule  {
-3 1
  P        1.1931290    -0.6069630     0.0087730
  P       -1.8341790     0.1663700     0.0034510
  O        1.3559990     1.0186560    -0.3729610
  O       -0.3886030    -0.8294050    -0.1958090
  O        1.9273580    -1.4129110    -1.0480400
  O        1.6168640    -0.7815310     1.4560350
  O       -1.8332320     1.0931450    -1.2188660
  O       -1.6562150     0.8578460     1.3638040
  O       -2.8968830    -0.9395270    -0.0292720
  C        2.6258790     1.5668310    -0.0085760
  H        2.7428768     1.6085776     1.0775456
  H        3.4513710     0.9691525    -0.4117049
  H        2.6752270     2.5733270    -0.4286450
units angstrom
no_reorient  #important for SAPT in psi4, default
symmetry c1  #important for SAPT in psi4, default
}

set PROPERTIES_ORIGIN ["COM"]
properties('MP2/aug-cc-pvtz', properties = ['dipole'])
--------------------------------------------------------------------------

    Molecular point group: c1
  Charge       = -3
  Multiplicity = 1
  Basis Set: AUG-CC-PVTZ
    Blend: AUG-CC-PVTZ
  Basis Set: (AUG-CC-PVTZ AUX)
    Blend: AUG-CC-PVTZ-JKFIT

    Orbital Energies [Eh]
    ---------------------

    Doubly Occupied:

       1A    -79.622037     2A    -79.559085     3A    -20.153139
       4A    -20.080552     5A    -20.054708     6A    -20.050852
       7A    -19.999260     8A    -19.998762     9A    -19.997241
      10A    -10.917123    11A     -7.136078    12A     -7.072899
      13A     -5.035386    14A     -5.033862    15A     -5.033061
      16A     -4.972462    17A     -4.970014    18A     -4.969882
      19A     -0.965263    20A     -0.886599    21A     -0.841506
      22A     -0.802917    23A     -0.798911    24A     -0.741724
      25A     -0.740178    26A     -0.560800    27A     -0.336517
      28A     -0.282545    29A     -0.252780    30A     -0.228440
      31A     -0.187327    32A     -0.147259    33A     -0.143601
      34A     -0.115004    35A     -0.092765    36A     -0.088575
      37A     -0.063076    38A     -0.057642    39A     -0.043081
      40A     -0.038049    41A     -0.022208    42A      0.007298
      43A      0.021029    44A      0.022698    45A      0.025853
      46A      0.028295    47A      0.065141    48A      0.068584
      49A      0.093295

  @DF-RHF Final Energy: -1245.34519231195532

   => Energetics <=

    Nuclear Repulsion Energy =            820.4262481171036825
    One-Electron Energy =               -3406.0209264731897747
    Two-Electron Energy =                1340.2494860441308901
    Total Energy =                      -1245.3451923119553157
  Basis Set: (AUG-CC-PVTZ AUX)
    Blend: AUG-CC-PVTZ-RI
    Molecular point group: c1

    Geometry (in Angstrom), charge = -3, multiplicity = 1:

       Center              X                  Y                   Z               Mass
    ------------   -----------------  -----------------  -----------------  -----------------
         P            1.242839968448    -0.577598122320     0.009867297688    30.973761998420
         P           -1.784468031552     0.195734877680     0.004545297688    30.973761998420
         O            1.405709968448     1.048020877680    -0.371866702312    15.994914619570
         O           -0.338892031552    -0.800040122320    -0.194714702312    15.994914619570
         O            1.977068968448    -1.383546122320    -1.046945702312    15.994914619570
         O            1.666574968448    -0.752166122320     1.457129297688    15.994914619570
         O           -1.783521031552     1.122509877680    -1.217771702312    15.994914619570
         O           -1.606504031552     0.887210877680     1.364898297688    15.994914619570
         O           -2.847172031552    -0.910162122320    -0.028177702312    15.994914619570
         C            2.675589968448     1.596195877680    -0.007481702312    12.000000000000
         H            2.792587768448     1.637942477680     1.078639897688     1.007825032230
         H            3.501081968448     0.998517377680    -0.410610602312     1.007825032230
         H            2.724937968448     2.602691877680    -0.427550702312     1.007825032230

  Basis Set: AUG-CC-PVTZ
    Blend: AUG-CC-PVTZ
  Basis Set: (AUG-CC-PVTZ AUX)
    Blend: AUG-CC-PVTZ-JKFIT
	 Reference Energy          =   -1245.3451923119553157 [Eh]
	 Singles Energy            =      -0.0000000000000000 [Eh]
	 Same-Spin Energy          =      -0.6460440562859944 [Eh]
	 Opposite-Spin Energy      =      -1.8063493059184719 [Eh]
	 Correlation Energy        =      -2.4523933622044662 [Eh]
	 Total Energy              =   -1247.7975856741597909 [Eh]

	 ================> DF-SCS-MP2 Energies <==================
	-----------------------------------------------------------
	 SCS Same-Spin Scale       =       0.3333333333333333 [-]
	 SCS Opposite-Spin Scale   =       1.2000000000000000 [-]
	 SCS Same-Spin Energy      =      -0.2153480187619981 [Eh]
	 SCS Opposite-Spin Energy  =      -2.1676191671021661 [Eh]
	 SCS Correlation Energy    =      -2.3829671858641643 [Eh]
	 SCS Total Energy          =   -1247.7281594978194335 [Eh]
	-----------------------------------------------------------

  Dipole Moment: [D]
     X:     7.9127      Y:     2.3287      Z:    -0.4700     Total:     8.2616

*** Psi4 exiting successfully. Buy a developer a beer!
