                               Psi4 1.3.2 release

  ==> Input File <==

--------------------------------------------------------------------------
#psi4
#
memory 32 gb

molecule  {
-3 1
  P        1.1931290    -0.6069630     0.0087730
  P       -1.8341790     0.1663700     0.0034510
  O        1.3559990     1.0186560    -0.3729610
  O       -0.3886030    -0.8294050    -0.1958090
  O        1.9273580    -1.4129110    -1.0480400
  O        1.6168640    -0.7815310     1.4560350
  O       -1.8332320     1.0931450    -1.2188660
  O       -1.6562150     0.8578460     1.3638040
  O       -3.0354286    -1.0837037    -0.0335381
  C        2.6258790     1.5668310    -0.0085760
  H        2.7349980     1.6139230     1.0781470
  H        3.4479520     0.9704660    -0.4205400
  H        2.6752270     2.5733270    -0.4286450
units angstrom
no_reorient  #important for SAPT in psi4, default
symmetry c1  #important for SAPT in psi4, default
}

set PROPERTIES_ORIGIN ["COM"]
properties('MP2/aug-cc-pvtz', properties = ['dipole'])
--------------------------------------------------------------------------

    Molecular point group: c1
  Charge       = -3
  Multiplicity = 1
  Basis Set: AUG-CC-PVTZ
    Blend: AUG-CC-PVTZ
  Basis Set: (AUG-CC-PVTZ AUX)
    Blend: AUG-CC-PVTZ-JKFIT

    Orbital Energies [Eh]
    ---------------------

    Doubly Occupied:

       1A    -79.629555     2A    -79.590029     3A    -20.159069
       4A    -20.092851     5A    -20.060242     6A    -20.056566
       7A    -20.017267     8A    -20.015245     9A    -20.009902
      10A    -10.922084    11A     -7.143512    12A     -7.100168
      13A     -5.042819    14A     -5.041344    15A     -5.040446
      16A     -4.999741    17A     -4.997268    18A     -4.996685
      19A     -0.971663    20A     -0.893690    21A     -0.844410
      22A     -0.808509    23A     -0.803033    24A     -0.756402
      25A     -0.697385    26A     -0.565881    27A     -0.344571
      28A     -0.291558    29A     -0.259476    30A     -0.235238
      31A     -0.194080    32A     -0.153552    33A     -0.149998
      34A     -0.120234    35A     -0.097544    36A     -0.093943
      37A     -0.068543    38A     -0.059429    39A     -0.047772
      40A     -0.040391    41A     -0.027992    42A      0.001306
      43A      0.015150    44A      0.018867    45A      0.027129
      46A      0.040795    47A      0.055777    48A      0.075399
      49A      0.088313

  @DF-RHF Final Energy: -1245.31349358171337

   => Energetics <=

    Nuclear Repulsion Energy =            811.9225871216458472
    One-Electron Energy =               -3388.2374499908173675
    Two-Electron Energy =                1331.0013692874581466
    Total Energy =                      -1245.3134935817133737
  Basis Set: (AUG-CC-PVTZ AUX)
    Blend: AUG-CC-PVTZ-RI
    Molecular point group: c1

    Geometry (in Angstrom), charge = -3, multiplicity = 1:

       Center              X                  Y                   Z               Mass
    ------------   -----------------  -----------------  -----------------  -----------------
         P            1.254629242621    -0.565427915026     0.010272378121    30.973761998420
         P           -1.772678757379     0.207905084974     0.004950378121    30.973761998420
         O            1.417499242621     1.060191084974    -0.371461621879    15.994914619570
         O           -0.327102757379    -0.787869915026    -0.194309621879    15.994914619570
         O            1.988858242621    -1.371375915026    -1.046540621879    15.994914619570
         O            1.678364242621    -0.739995915026     1.457534378121    15.994914619570
         O           -1.771731757379     1.134680084974    -1.217366621879    15.994914619570
         O           -1.594714757379     0.899381084974     1.365303378121    15.994914619570
         O           -2.973928357379    -1.042168615026    -0.032038721879    15.994914619570
         C            2.687379242621     1.608366084974    -0.007076621879    12.000000000000
         H            2.796498242621     1.655458084974     1.079646378121     1.007825032230
         H            3.509452242621     1.012001084974    -0.419040621879     1.007825032230
         H            2.736727242621     2.614862084974    -0.427145621879     1.007825032230

  Basis Set: AUG-CC-PVTZ
    Blend: AUG-CC-PVTZ
  Basis Set: (AUG-CC-PVTZ AUX)
    Blend: AUG-CC-PVTZ-JKFIT
	 Reference Energy          =   -1245.3134935817133737 [Eh]
	 Singles Energy            =      -0.0000000000000000 [Eh]
	 Same-Spin Energy          =      -0.6492492810892236 [Eh]
	 Opposite-Spin Energy      =      -1.8154182418936271 [Eh]
	 Correlation Energy        =      -2.4646675229828507 [Eh]
	 Total Energy              =   -1247.7781611046962098 [Eh]

	 ================> DF-SCS-MP2 Energies <==================
	-----------------------------------------------------------
	 SCS Same-Spin Scale       =       0.3333333333333333 [-]
	 SCS Opposite-Spin Scale   =       1.2000000000000000 [-]
	 SCS Same-Spin Energy      =      -0.2164164270297412 [Eh]
	 SCS Opposite-Spin Energy  =      -2.1785018902723525 [Eh]
	 SCS Correlation Energy    =      -2.3949183173020936 [Eh]
	 SCS Total Energy          =   -1247.7084118990155730 [Eh]
	-----------------------------------------------------------

  Dipole Moment: [D]
     X:     9.2291      Y:     3.4173      Z:    -0.4380     Total:     9.8512

*** Psi4 exiting successfully. Buy a developer a beer!
