                               Psi4 1.4a3.dev225

  ==> Input File <==

--------------------------------------------------------------------------
#psi4
#
memory 32 gb

molecule  {
-3 1
  P       -1.1253500     0.3591720     0.0081310
  P        2.0878660    -0.1053470     0.0007630
  O       -2.1391380    -1.0979190    -0.1147190
  O        0.2405970    -0.4148950    -0.1339660
  O       -1.5628960     1.1822930    -1.2021870
  O       -1.4752280     0.9069340     1.3887990
  O        2.4340036    -0.8772382     1.2592285
  O        2.1989840     1.4211450     0.0869110
  O        2.5676630    -0.7478960    -1.3107960
  C       -3.4907010    -0.7724380    -0.0147870
  H       -3.7335280    -0.2943150     0.9495100
  H       -3.8114220    -0.0788120    -0.8111520
  H       -4.0969940    -1.6975630    -0.1019980
units angstrom
no_reorient  #important for SAPT in psi4, default
symmetry c1  #important for SAPT in psi4, default
}

set PROPERTIES_ORIGIN ["COM"]
properties('MP2/aug-cc-pvtz', properties = ['dipole'])
--------------------------------------------------------------------------

    Molecular point group: c1
  Charge       = -3
  Multiplicity = 1
  Basis Set: AUG-CC-PVTZ
    Blend: AUG-CC-PVTZ
  Basis Set: (AUG-CC-PVTZ AUX)
    Blend: AUG-CC-PVTZ-JKFIT

    Orbital Energies [Eh]
    ---------------------

    Doubly Occupied:

       1A    -79.628270     2A    -79.581800     3A    -20.144975
       4A    -20.087272     5A    -20.055333     6A    -20.055101
       7A    -20.021538     8A    -20.020791     9A    -20.019805
      10A    -10.910813    11A     -7.141189    12A     -7.095819
      13A     -5.040643    14A     -5.038784    15A     -5.037973
      16A     -4.995468    17A     -4.992620    18A     -4.992432
      19A     -0.955349    20A     -0.886830    21A     -0.848650
      22A     -0.816368    23A     -0.800901    24A     -0.766033
      25A     -0.761281    26A     -0.542340    27A     -0.333522
      28A     -0.267633    29A     -0.245817    30A     -0.211610
      31A     -0.203763    32A     -0.156599    33A     -0.142502
      34A     -0.117194    35A     -0.098645    36A     -0.097826
      37A     -0.079172    38A     -0.053180    39A     -0.048469
      40A     -0.029665    41A     -0.013399    42A     -0.002303
      43A      0.001536    44A      0.003271    45A      0.008495
      46A      0.022200    47A      0.043991    48A      0.047957
      49A      0.071621

  @DF-RHF Final Energy: -1245.34261375013352

   => Energetics <=

    Nuclear Repulsion Energy =            797.8608506344659190
    One-Electron Energy =               -3360.1257123096579562
    Two-Electron Energy =                1316.9222479250586275
    Total Energy =                      -1245.3426137501335234
  Basis Set: (AUG-CC-PVTZ AUX)
    Blend: AUG-CC-PVTZ-RI
    Molecular point group: c1

    Geometry (in Angstrom), charge = -3, multiplicity = 1:

       Center              X                  Y                   Z               Mass
    ------------   -----------------  -----------------  -----------------  -----------------
         P           -1.190999651652     0.346137635937     0.009681026680    30.973761998420
         P            2.022216348348    -0.118381364063     0.002313026680    30.973761998420
         O           -2.204787651652    -1.110953364063    -0.113168973320    15.994914619570
         O            0.174947348348    -0.427929364063    -0.132415973320    15.994914619570
         O           -1.628545651652     1.169258635937    -1.200636973320    15.994914619570
         O           -1.540877651652     0.893899635937     1.390349026680    15.994914619570
         O            2.368353948348    -0.890272564063     1.260778526680    15.994914619570
         O            2.133334348348     1.408110635937     0.088461026680    15.994914619570
         O            2.502013348348    -0.760930364063    -1.309245973320    15.994914619570
         C           -3.556350651652    -0.785472364063    -0.013236973320    12.000000000000
         H           -3.799177651652    -0.307349364063     0.951060026680     1.007825032230
         H           -3.877071651652    -0.091846364063    -0.809601973320     1.007825032230
         H           -4.162643651652    -1.710597364063    -0.100447973320     1.007825032230

  Basis Set: AUG-CC-PVTZ
    Blend: AUG-CC-PVTZ
  Basis Set: (AUG-CC-PVTZ AUX)
    Blend: AUG-CC-PVTZ-JKFIT
	 Reference Energy          =   -1245.3426137501335234 [Eh]
	 Singles Energy            =      -0.0000000000000000 [Eh]
	 Same-Spin Energy          =      -0.6471163930636187 [Eh]
	 Opposite-Spin Energy      =      -1.8091966871183522 [Eh]
	 Correlation Energy        =      -2.4563130801819710 [Eh]
	 Total Energy              =   -1247.7989268303153949 [Eh]

	 ================> DF-SCS-MP2 Energies <==================
	-----------------------------------------------------------
	 SCS Same-Spin Scale       =       0.3333333333333333 [-]
	 SCS Opposite-Spin Scale   =       1.2000000000000000 [-]
	 SCS Same-Spin Energy      =      -0.2157054643545396 [Eh]
	 SCS Opposite-Spin Energy  =      -2.1710360245420226 [Eh]
	 SCS Correlation Energy    =      -2.3867414888965621 [Eh]
	 SCS Total Energy          =   -1247.7293552390301556 [Eh]
	-----------------------------------------------------------

  Dipole Moment: [D]
     X:    -7.6498      Y:    -1.8892      Z:    -0.0520     Total:     7.8798

*** Psi4 exiting successfully. Buy a developer a beer!
