                               Psi4 1.3.2 release

  ==> Input File <==

--------------------------------------------------------------------------
#psi4
#
memory 32 gb

molecule  {
-3 1
  P        1.1931290    -0.6069630     0.0087730
  P       -1.8341790     0.1663700     0.0034510
  O        1.3657066     1.1155481    -0.3957136
  O       -0.3886030    -0.8294050    -0.1958090
  O        1.9273580    -1.4129110    -1.0480400
  O        1.6168640    -0.7815310     1.4560350
  O       -1.8332320     1.0931450    -1.2188660
  O       -1.6562150     0.8578460     1.3638040
  O       -2.8968830    -0.9395270    -0.0292720
  C        2.6258790     1.5668310    -0.0085760
  H        2.7349980     1.6139230     1.0781470
  H        3.4479520     0.9704660    -0.4205400
  H        2.6752270     2.5733270    -0.4286450
units angstrom
no_reorient  #important for SAPT in psi4, default
symmetry c1  #important for SAPT in psi4, default
}

set PROPERTIES_ORIGIN ["COM"]
properties('MP2/aug-cc-pvtz', properties = ['dipole'])
--------------------------------------------------------------------------

    Molecular point group: c1
  Charge       = -3
  Multiplicity = 1
  Basis Set: AUG-CC-PVTZ
    Blend: AUG-CC-PVTZ
  Basis Set: (AUG-CC-PVTZ AUX)
    Blend: AUG-CC-PVTZ-JKFIT

    Orbital Energies [Eh]
    ---------------------

    Doubly Occupied:

       1A    -79.632725     2A    -79.561004     3A    -20.148670
       4A    -20.087117     5A    -20.063406     6A    -20.059706
       7A    -20.000722     8A    -20.000288     9A    -19.998690
      10A    -10.905897    11A     -7.145819    12A     -7.074861
      13A     -5.045002    14A     -5.043444    15A     -5.042745
      16A     -4.974454    17A     -4.971949    18A     -4.971807
      19A     -0.956031    20A     -0.894068    21A     -0.847384
      22A     -0.809967    23A     -0.802249    24A     -0.743232
      25A     -0.741625    26A     -0.543825    27A     -0.335191
      28A     -0.282733    29A     -0.250147    30A     -0.216446
      31A     -0.191619    32A     -0.148161    33A     -0.145098
      34A     -0.116834    35A     -0.091167    36A     -0.089688
      37A     -0.060437    38A     -0.055208    39A     -0.044449
      40A     -0.043515    41A     -0.024724    42A     -0.000096
      43A      0.015307    44A      0.020631    45A      0.024084
      46A      0.024625    47A      0.063364    48A      0.066834
      49A      0.091894

  @DF-RHF Final Energy: -1245.33782914136282

   => Energetics <=

    Nuclear Repulsion Energy =            817.2888861186415852
    One-Electron Energy =               -3399.5425063036618667
    Two-Electron Energy =                1336.9157910436574639
    Total Energy =                      -1245.3378291413628176
  Basis Set: (AUG-CC-PVTZ AUX)
    Blend: AUG-CC-PVTZ-RI
    Molecular point group: c1

    Geometry (in Angstrom), charge = -3, multiplicity = 1:

       Center              X                  Y                   Z               Mass
    ------------   -----------------  -----------------  -----------------  -----------------
         P            1.242078406420    -0.585836344808     0.011837410332    30.973761998420
         P           -1.785229593580     0.187496655192     0.006515410332    30.973761998420
         O            1.414656006420     1.136674755192    -0.392649189668    15.994914619570
         O           -0.339653593580    -0.808278344808    -0.192744589668    15.994914619570
         O            1.976307406420    -1.391784344808    -1.044975589668    15.994914619570
         O            1.665813406420    -0.760404344808     1.459099410332    15.994914619570
         O           -1.784282593580     1.114271655192    -1.215801589668    15.994914619570
         O           -1.607265593580     0.878972655192     1.366868410332    15.994914619570
         O           -2.847933593580    -0.918400344808    -0.026207589668    15.994914619570
         C            2.674828406420     1.587957655192    -0.005511589668    12.000000000000
         H            2.783947406420     1.635049655192     1.081211410332     1.007825032230
         H            3.496901406420     0.991592655192    -0.417475589668     1.007825032230
         H            2.724176406420     2.594453655192    -0.425580589668     1.007825032230

  Basis Set: AUG-CC-PVTZ
    Blend: AUG-CC-PVTZ
  Basis Set: (AUG-CC-PVTZ AUX)
    Blend: AUG-CC-PVTZ-JKFIT
	 Reference Energy          =   -1245.3378291413628176 [Eh]
	 Singles Energy            =      -0.0000000000000000 [Eh]
	 Same-Spin Energy          =      -0.6471362047745974 [Eh]
	 Opposite-Spin Energy      =      -1.8090148079153148 [Eh]
	 Correlation Energy        =      -2.4561510126899124 [Eh]
	 Total Energy              =   -1247.7939801540526332 [Eh]

	 ================> DF-SCS-MP2 Energies <==================
	-----------------------------------------------------------
	 SCS Same-Spin Scale       =       0.3333333333333333 [-]
	 SCS Opposite-Spin Scale   =       1.2000000000000000 [-]
	 SCS Same-Spin Energy      =      -0.2157120682581991 [Eh]
	 SCS Opposite-Spin Energy  =      -2.1708177694983775 [Eh]
	 SCS Correlation Energy    =      -2.3865298377565765 [Eh]
	 SCS Total Energy          =   -1247.7243589791194154 [Eh]
	-----------------------------------------------------------

  Dipole Moment: [D]
     X:     7.6327      Y:     1.7841      Z:    -0.4058     Total:     7.8489

*** Psi4 exiting successfully. Buy a developer a beer!
