                               Psi4 1.4a3.dev225

  ==> Input File <==

--------------------------------------------------------------------------
#psi4
#
memory 32 gb

molecule  {
-3 1
  P       -1.1253500     0.3591720     0.0081310
  P        2.0878660    -0.1053470     0.0007630
  O       -2.1391380    -1.0979190    -0.1147190
  O        0.2405970    -0.4148950    -0.1339660
  O       -1.5628960     1.1822930    -1.2021870
  O       -1.4752280     0.9069340     1.3887990
  O        2.4431344    -0.8975998     1.2924255
  O        2.1989840     1.4211450     0.0869110
  O        2.5676630    -0.7478960    -1.3107960
  C       -3.4907010    -0.7724380    -0.0147870
  H       -3.7335280    -0.2943150     0.9495100
  H       -3.8114220    -0.0788120    -0.8111520
  H       -4.0969940    -1.6975630    -0.1019980
units angstrom
no_reorient  #important for SAPT in psi4, default
symmetry c1  #important for SAPT in psi4, default
}

set PROPERTIES_ORIGIN ["COM"]
properties('MP2/aug-cc-pvtz', properties = ['dipole'])
--------------------------------------------------------------------------

    Molecular point group: c1
  Charge       = -3
  Multiplicity = 1
  Basis Set: AUG-CC-PVTZ
    Blend: AUG-CC-PVTZ
  Basis Set: (AUG-CC-PVTZ AUX)
    Blend: AUG-CC-PVTZ-JKFIT

    Orbital Energies [Eh]
    ---------------------

    Doubly Occupied:

       1A    -79.629552     2A    -79.589416     3A    -20.145738
       4A    -20.089677     5A    -20.056430     6A    -20.055902
       7A    -20.024623     8A    -20.023644     9A    -20.023608
      10A    -10.911381    11A     -7.142461    12A     -7.102103
      13A     -5.041908    14A     -5.040072    15A     -5.039236
      16A     -5.001846    17A     -4.998850    18A     -4.998673
      19A     -0.956208    20A     -0.887447    21A     -0.846617
      22A     -0.816141    23A     -0.801841    24A     -0.764710
      25A     -0.758425    26A     -0.542951    27A     -0.335063
      28A     -0.268987    29A     -0.246434    30A     -0.212648
      31A     -0.205135    32A     -0.157059    33A     -0.143641
      34A     -0.117908    35A     -0.098457    36A     -0.097016
      37A     -0.079302    38A     -0.053686    39A     -0.049160
      40A     -0.030630    41A     -0.014284    42A     -0.000738
      43A      0.001200    44A      0.003925    45A      0.008488
      46A      0.021733    47A      0.041983    48A      0.048525
      49A      0.070096

  @DF-RHF Final Energy: -1245.33946608842280

   => Energetics <=

    Nuclear Repulsion Energy =            796.0952315043979297
    One-Electron Energy =               -3356.4620802992781137
    Two-Electron Energy =                1315.0273827064575016
    Total Energy =                      -1245.3394660884227960
  Basis Set: (AUG-CC-PVTZ AUX)
    Blend: AUG-CC-PVTZ-RI
    Molecular point group: c1

    Geometry (in Angstrom), charge = -3, multiplicity = 1:

       Center              X                  Y                   Z               Mass
    ------------   -----------------  -----------------  -----------------  -----------------
         P           -1.191772647953     0.347861410577     0.006870631293    30.973761998420
         P            2.021443352047    -0.116657589423    -0.000497368707    30.973761998420
         O           -2.205560647953    -1.109229589423    -0.115979368707    15.994914619570
         O            0.174174352047    -0.426205589423    -0.135226368707    15.994914619570
         O           -1.629318647953     1.170982410577    -1.203447368707    15.994914619570
         O           -1.541650647953     0.895623410577     1.387538631293    15.994914619570
         O            2.376711752047    -0.908910389423     1.291165131293    15.994914619570
         O            2.132561352047     1.409834410577     0.085650631293    15.994914619570
         O            2.501240352047    -0.759206589423    -1.312056368707    15.994914619570
         C           -3.557123647953    -0.783748589423    -0.016047368707    12.000000000000
         H           -3.799950647953    -0.305625589423     0.948249631293     1.007825032230
         H           -3.877844647953    -0.090122589423    -0.812412368707     1.007825032230
         H           -4.163416647953    -1.708873589423    -0.103258368707     1.007825032230

  Basis Set: AUG-CC-PVTZ
    Blend: AUG-CC-PVTZ
  Basis Set: (AUG-CC-PVTZ AUX)
    Blend: AUG-CC-PVTZ-JKFIT
	 Reference Energy          =   -1245.3394660884227960 [Eh]
	 Singles Energy            =      -0.0000000000000000 [Eh]
	 Same-Spin Energy          =      -0.6478642322134283 [Eh]
	 Opposite-Spin Energy      =      -1.8111496650449084 [Eh]
	 Correlation Energy        =      -2.4590138972583366 [Eh]
	 Total Energy              =   -1247.7984799856810696 [Eh]

	 ================> DF-SCS-MP2 Energies <==================
	-----------------------------------------------------------
	 SCS Same-Spin Scale       =       0.3333333333333333 [-]
	 SCS Opposite-Spin Scale   =       1.2000000000000000 [-]
	 SCS Same-Spin Energy      =      -0.2159547440711427 [Eh]
	 SCS Opposite-Spin Energy  =      -2.1733795980538901 [Eh]
	 SCS Correlation Energy    =      -2.3893343421250330 [Eh]
	 SCS Total Energy          =   -1247.7288004305478353 [Eh]
	-----------------------------------------------------------

  Dipole Moment: [D]
     X:    -7.7618      Y:    -1.7404      Z:    -0.2871     Total:     7.9597

*** Psi4 exiting successfully. Buy a developer a beer!
