                               Psi4 1.3.2 release

  ==> Input File <==

--------------------------------------------------------------------------
#psi4
#
memory 32 gb

molecule  {
-3 1
  P        1.1931290    -0.6069630     0.0087730
  P       -1.8341790     0.1663700     0.0034510
  O        1.3559990     1.0186560    -0.3729610
  O       -0.3886030    -0.8294050    -0.1958090
  O        1.9273580    -1.4129110    -1.0480400
  O        1.6168640    -0.7815310     1.4560350
  O       -1.8332320     1.0931450    -1.2188660
  O       -1.6677986     0.8128383     1.2752595
  O       -2.8968830    -0.9395270    -0.0292720
  C        2.6258790     1.5668310    -0.0085760
  H        2.7349980     1.6139230     1.0781470
  H        3.4479520     0.9704660    -0.4205400
  H        2.6752270     2.5733270    -0.4286450
units angstrom
no_reorient  #important for SAPT in psi4, default
symmetry c1  #important for SAPT in psi4, default
}

set PROPERTIES_ORIGIN ["COM"]
properties('MP2/aug-cc-pvtz', properties = ['dipole'])
--------------------------------------------------------------------------

    Molecular point group: c1
  Charge       = -3
  Multiplicity = 1
  Basis Set: AUG-CC-PVTZ
    Blend: AUG-CC-PVTZ
  Basis Set: (AUG-CC-PVTZ AUX)
    Blend: AUG-CC-PVTZ-JKFIT

    Orbital Energies [Eh]
    ---------------------

    Doubly Occupied:

       1A    -79.619554     2A    -79.538072     3A    -20.151825
       4A    -20.073551     5A    -20.052573     6A    -20.050076
       7A    -19.991398     8A    -19.989781     9A    -19.989469
      10A    -10.916590    11A     -7.133599    12A     -7.056321
      13A     -5.032914    14A     -5.031352    15A     -5.030614
      16A     -4.955487    17A     -4.954038    18A     -4.952820
      19A     -0.963872    20A     -0.886007    21A     -0.848087
      22A     -0.806474    23A     -0.801335    24A     -0.752938
      25A     -0.733578    26A     -0.560008    27A     -0.333275
      28A     -0.278365    29A     -0.253640    30A     -0.226553
      31A     -0.184893    32A     -0.145657    33A     -0.142265
      34A     -0.113179    35A     -0.093434    36A     -0.089263
      37A     -0.062733    38A     -0.061505    39A     -0.042478
      40A     -0.036652    41A     -0.021166    42A      0.006736
      43A      0.017164    44A      0.021877    45A      0.025750
      46A      0.029960    47A      0.063852    48A      0.073124
      49A      0.097579

  @DF-RHF Final Energy: -1245.34228051739433

   => Energetics <=

    Nuclear Repulsion Energy =            824.9880118106192413
    One-Electron Energy =               -3415.4178821902773961
    Two-Electron Energy =                1345.0875898622637123
    Total Energy =                      -1245.3422805173943289
  Basis Set: (AUG-CC-PVTZ AUX)
    Blend: AUG-CC-PVTZ-RI
    Molecular point group: c1

    Geometry (in Angstrom), charge = -3, multiplicity = 1:

       Center              X                  Y                   Z               Mass
    ------------   -----------------  -----------------  -----------------  -----------------
         P            1.243880879241    -0.573823375463     0.017407228456    30.973761998420
         P           -1.783427120759     0.199509624537     0.012085228456    30.973761998420
         O            1.406750879241     1.051795624537    -0.364326771544    15.994914619570
         O           -0.337851120759    -0.796265375463    -0.187174771544    15.994914619570
         O            1.978109879241    -1.379771375463    -1.039405771544    15.994914619570
         O            1.667615879241    -0.748391375463     1.464669228456    15.994914619570
         O           -1.782480120759     1.126284624537    -1.210231771544    15.994914619570
         O           -1.617046720759     0.845977924537     1.283893728456    15.994914619570
         O           -2.846131120759    -0.906387375463    -0.020637771544    15.994914619570
         C            2.676630879241     1.599970624537     0.000058228456    12.000000000000
         H            2.785749879241     1.647062624537     1.086781228456     1.007825032230
         H            3.498703879241     1.003605624537    -0.411905771544     1.007825032230
         H            2.725978879241     2.606466624537    -0.420010771544     1.007825032230

  Basis Set: AUG-CC-PVTZ
    Blend: AUG-CC-PVTZ
  Basis Set: (AUG-CC-PVTZ AUX)
    Blend: AUG-CC-PVTZ-JKFIT
	 Reference Energy          =   -1245.3422805173943289 [Eh]
	 Singles Energy            =      -0.0000000000000000 [Eh]
	 Same-Spin Energy          =      -0.6442486529734665 [Eh]
	 Opposite-Spin Energy      =      -1.8017022093384889 [Eh]
	 Correlation Energy        =      -2.4459508623119555 [Eh]
	 Total Energy              =   -1247.7882313797063034 [Eh]

	 ================> DF-SCS-MP2 Energies <==================
	-----------------------------------------------------------
	 SCS Same-Spin Scale       =       0.3333333333333333 [-]
	 SCS Opposite-Spin Scale   =       1.2000000000000000 [-]
	 SCS Same-Spin Energy      =      -0.2147495509911555 [Eh]
	 SCS Opposite-Spin Energy  =      -2.1620426512061868 [Eh]
	 SCS Correlation Energy    =      -2.3767922021973424 [Eh]
	 SCS Total Energy          =   -1247.7190727195916224 [Eh]
	-----------------------------------------------------------

  Dipole Moment: [D]
     X:     7.8907      Y:     2.6586      Z:     0.1375     Total:     8.3276

*** Psi4 exiting successfully. Buy a developer a beer!
