                               Psi4 1.3.2 release

  ==> Input File <==

--------------------------------------------------------------------------
#psi4
#
memory 32 gb

molecule  {
-3 1
  P        1.1954562    -0.6202103     0.0047015
  P       -1.8429002     0.1545016    -0.0011049
  O        1.3559990     1.0186560    -0.3729610
  O       -0.3886030    -0.8294050    -0.1958090
  O        1.9273580    -1.4129110    -1.0480400
  O        1.6168640    -0.7815310     1.4560350
  O       -1.8332320     1.0931450    -1.2188660
  O       -1.6562150     0.8578460     1.3638040
  O       -2.8968830    -0.9395270    -0.0292720
  C        2.6258790     1.5668310    -0.0085760
  H        2.7349980     1.6139230     1.0781470
  H        3.4479520     0.9704660    -0.4205400
  H        2.6752270     2.5733270    -0.4286450
units angstrom
no_reorient  #important for SAPT in psi4, default
symmetry c1  #important for SAPT in psi4, default
}

set PROPERTIES_ORIGIN ["COM"]
properties('MP2/aug-cc-pvtz', properties = ['dipole'])
--------------------------------------------------------------------------

    Molecular point group: c1
  Charge       = -3
  Multiplicity = 1
  Basis Set: AUG-CC-PVTZ
    Blend: AUG-CC-PVTZ
  Basis Set: (AUG-CC-PVTZ AUX)
    Blend: AUG-CC-PVTZ-JKFIT

    Orbital Energies [Eh]
    ---------------------

    Doubly Occupied:

       1A    -79.621682     2A    -79.558943     3A    -20.149357
       4A    -20.079940     5A    -20.056983     6A    -20.050444
       7A    -20.001565     8A    -19.998367     9A    -19.994872
      10A    -10.914695    11A     -7.135801    12A     -7.072780
      13A     -5.035085    14A     -5.033575    15A     -5.032825
      16A     -4.972347    17A     -4.969975    18A     -4.969673
      19A     -0.960681    20A     -0.886333    21A     -0.843623
      22A     -0.805138    23A     -0.799511    24A     -0.745403
      25A     -0.735587    26A     -0.557420    27A     -0.334308
      28A     -0.280690    29A     -0.251304    30A     -0.225006
      31A     -0.187205    32A     -0.147305    33A     -0.143958
      34A     -0.113208    35A     -0.092742    36A     -0.088100
      37A     -0.061748    38A     -0.057148    39A     -0.042661
      40A     -0.039898    41A     -0.022823    42A      0.006931
      43A      0.019286    44A      0.021465    45A      0.026452
      46A      0.028634    47A      0.063328    48A      0.071156
      49A      0.093735

  @DF-RHF Final Energy: -1245.34484640082133

   => Energetics <=

    Nuclear Repulsion Energy =            820.0121765160251925
    One-Electron Energy =               -3405.2345962183494521
    Two-Electron Energy =                1339.8775733015029346
    Total Energy =                      -1245.3448464008213250
  Basis Set: (AUG-CC-PVTZ AUX)
    Blend: AUG-CC-PVTZ-RI
    Molecular point group: c1

    Geometry (in Angstrom), charge = -3, multiplicity = 1:

       Center              X                  Y                   Z               Mass
    ------------   -----------------  -----------------  -----------------  -----------------
         P            1.246275655467    -0.586763515476     0.007254080048    30.973761998420
         P           -1.792080744533     0.187948384524     0.001447680048    30.973761998420
         O            1.406818455467     1.052102784524    -0.370408419952    15.994914619570
         O           -0.337783544533    -0.795958215476    -0.193256419952    15.994914619570
         O            1.978177455467    -1.379464215476    -1.045487419952    15.994914619570
         O            1.667683455467    -0.748084215476     1.458587580048    15.994914619570
         O           -1.782412544533     1.126591784524    -1.216313419952    15.994914619570
         O           -1.605395544533     0.891292784524     1.366356580048    15.994914619570
         O           -2.846063544533    -0.906080215476    -0.026719419952    15.994914619570
         C            2.676698455467     1.600277784524    -0.006023419952    12.000000000000
         H            2.785817455467     1.647369784524     1.080699580048     1.007825032230
         H            3.498771455467     1.003912784524    -0.417987419952     1.007825032230
         H            2.726046455467     2.606773784524    -0.426092419952     1.007825032230

  Basis Set: AUG-CC-PVTZ
    Blend: AUG-CC-PVTZ
  Basis Set: (AUG-CC-PVTZ AUX)
    Blend: AUG-CC-PVTZ-JKFIT
	 Reference Energy          =   -1245.3448464008213250 [Eh]
	 Singles Energy            =      -0.0000000000000000 [Eh]
	 Same-Spin Energy          =      -0.6459513789762077 [Eh]
	 Opposite-Spin Energy      =      -1.8061866029970060 [Eh]
	 Correlation Energy        =      -2.4521379819732134 [Eh]
	 Total Energy              =   -1247.7969843827945624 [Eh]

	 ================> DF-SCS-MP2 Energies <==================
	-----------------------------------------------------------
	 SCS Same-Spin Scale       =       0.3333333333333333 [-]
	 SCS Opposite-Spin Scale   =       1.2000000000000000 [-]
	 SCS Same-Spin Energy      =      -0.2153171263254026 [Eh]
	 SCS Opposite-Spin Energy  =      -2.1674239235964072 [Eh]
	 SCS Correlation Energy    =      -2.3827410499218100 [Eh]
	 SCS Total Energy          =   -1247.7275874507431581 [Eh]
	-----------------------------------------------------------

  Dipole Moment: [D]
     X:     7.8027      Y:     1.9978      Z:    -0.5974     Total:     8.0765

*** Psi4 exiting successfully. Buy a developer a beer!
