                               Psi4 1.3.2 release

  ==> Input File <==

--------------------------------------------------------------------------
#psi4
#
memory 32 gb

molecule  {
-3 1
  P        1.1931290    -0.6069630     0.0087730
  P       -1.8341790     0.1663700     0.0034510
  O        1.3559990     1.0186560    -0.3729610
  O       -0.3938863    -0.8342224    -0.2094674
  O        1.9273580    -1.4129110    -1.0480400
  O        1.6168640    -0.7815310     1.4560350
  O       -1.8332320     1.0931450    -1.2188660
  O       -1.6679952     0.8640266     1.3621374
  O       -2.8968830    -0.9395270    -0.0292720
  C        2.6258790     1.5668310    -0.0085760
  H        2.7349980     1.6139230     1.0781470
  H        3.4479520     0.9704660    -0.4205400
  H        2.6752270     2.5733270    -0.4286450
units angstrom
no_reorient  #important for SAPT in psi4, default
symmetry c1  #important for SAPT in psi4, default
}

set PROPERTIES_ORIGIN ["COM"]
properties('MP2/aug-cc-pvtz', properties = ['dipole'])
--------------------------------------------------------------------------

    Molecular point group: c1
  Charge       = -3
  Multiplicity = 1
  Basis Set: AUG-CC-PVTZ
    Blend: AUG-CC-PVTZ
  Basis Set: (AUG-CC-PVTZ AUX)
    Blend: AUG-CC-PVTZ-JKFIT

    Orbital Energies [Eh]
    ---------------------

    Doubly Occupied:

       1A    -79.623388     2A    -79.558478     3A    -20.153717
       4A    -20.081556     5A    -20.055101     6A    -20.052439
       7A    -19.998171     8A    -19.997738     9A    -19.997668
      10A    -10.917692    11A     -7.137314    12A     -7.072321
      13A     -5.036607    14A     -5.035083    15A     -5.034306
      16A     -4.971861    17A     -4.969437    18A     -4.969322
      19A     -0.965708    20A     -0.885890    21A     -0.841878
      22A     -0.803927    23A     -0.798310    24A     -0.740831
      25A     -0.739914    26A     -0.561255    27A     -0.336119
      28A     -0.281634    29A     -0.254791    30A     -0.228803
      31A     -0.187775    32A     -0.147107    33A     -0.143564
      34A     -0.115013    35A     -0.092328    36A     -0.088607
      37A     -0.063728    38A     -0.058011    39A     -0.043078
      40A     -0.038139    41A     -0.022785    42A      0.006332
      43A      0.020457    44A      0.023666    45A      0.026129
      46A      0.028199    47A      0.065759    48A      0.068863
      49A      0.093899

  @DF-RHF Final Energy: -1245.34452498150586

   => Energetics <=

    Nuclear Repulsion Energy =            819.9779296708449010
    One-Electron Energy =               -3405.1087349728159097
    Two-Electron Energy =                1339.7862803204652664
    Total Energy =                      -1245.3445249815058560
  Basis Set: (AUG-CC-PVTZ AUX)
    Blend: AUG-CC-PVTZ-RI
    Molecular point group: c1

    Geometry (in Angstrom), charge = -3, multiplicity = 1:

       Center              X                  Y                   Z               Mass
    ------------   -----------------  -----------------  -----------------  -----------------
         P            1.244344797236    -0.577749048369     0.011208603730    30.973761998420
         P           -1.782963202764     0.195583951631     0.005886603730    30.973761998420
         O            1.407214797236     1.047869951631    -0.370525396270    15.994914619570
         O           -0.342670502764    -0.805008448369    -0.207031796270    15.994914619570
         O            1.978573797236    -1.383697048369    -1.045604396270    15.994914619570
         O            1.668079797236    -0.752317048369     1.458470603730    15.994914619570
         O           -1.782016202764     1.122358951631    -1.216430396270    15.994914619570
         O           -1.616779402764     0.893240551631     1.364573003730    15.994914619570
         O           -2.845667202764    -0.910313048369    -0.026836396270    15.994914619570
         C            2.677094797236     1.596044951631    -0.006140396270    12.000000000000
         H            2.786213797236     1.643136951631     1.080582603730     1.007825032230
         H            3.499167797236     0.999679951631    -0.418104396270     1.007825032230
         H            2.726442797236     2.602540951631    -0.426209396270     1.007825032230

  Basis Set: AUG-CC-PVTZ
    Blend: AUG-CC-PVTZ
  Basis Set: (AUG-CC-PVTZ AUX)
    Blend: AUG-CC-PVTZ-JKFIT
	 Reference Energy          =   -1245.3445249815058560 [Eh]
	 Singles Energy            =      -0.0000000000000000 [Eh]
	 Same-Spin Energy          =      -0.6461230983274092 [Eh]
	 Opposite-Spin Energy      =      -1.8066146571418980 [Eh]
	 Correlation Energy        =      -2.4527377554693071 [Eh]
	 Total Energy              =   -1247.7972627369751990 [Eh]

	 ================> DF-SCS-MP2 Energies <==================
	-----------------------------------------------------------
	 SCS Same-Spin Scale       =       0.3333333333333333 [-]
	 SCS Opposite-Spin Scale   =       1.2000000000000000 [-]
	 SCS Same-Spin Energy      =      -0.2153743661091364 [Eh]
	 SCS Opposite-Spin Energy  =      -2.1679375885702776 [Eh]
	 SCS Correlation Energy    =      -2.3833119546794141 [Eh]
	 SCS Total Energy          =   -1247.7278369361852128 [Eh]
	-----------------------------------------------------------

  Dipole Moment: [D]
     X:     8.0047      Y:     2.3240      Z:    -0.4418     Total:     8.3470

*** Psi4 exiting successfully. Buy a developer a beer!
