                               Psi4 1.4a3.dev225

  ==> Input File <==

--------------------------------------------------------------------------
#psi4
#
memory 32 gb

molecule  {
-3 1
  P       -1.1253500     0.3591720     0.0081310
  P        2.0878660    -0.1053470     0.0007630
  O       -2.1391380    -1.0979190    -0.1147190
  O        0.2405970    -0.4148950    -0.1339660
  O       -1.5628960     1.1822930    -1.2021870
  O       -1.4752280     0.9069340     1.3887990
  O        2.4385690    -0.8874190     1.2758270
  O        2.1989840     1.4211450     0.0869110
  O        2.5676630    -0.7478960    -1.3107960
  C       -3.4713069    -0.7771084    -0.0162210
  H       -3.7335280    -0.2943150     0.9495100
  H       -3.8114220    -0.0788120    -0.8111520
  H       -4.0969940    -1.6975630    -0.1019980
units angstrom
no_reorient  #important for SAPT in psi4, default
symmetry c1  #important for SAPT in psi4, default
}

set PROPERTIES_ORIGIN ["COM"]
properties('MP2/aug-cc-pvtz', properties = ['dipole'])
--------------------------------------------------------------------------

    Molecular point group: c1
  Charge       = -3
  Multiplicity = 1
  Basis Set: AUG-CC-PVTZ
    Blend: AUG-CC-PVTZ
  Basis Set: (AUG-CC-PVTZ AUX)
    Blend: AUG-CC-PVTZ-JKFIT

    Orbital Energies [Eh]
    ---------------------

    Doubly Occupied:

       1A    -79.629861     2A    -79.586062     3A    -20.146531
       4A    -20.089102     5A    -20.056549     6A    -20.056167
       7A    -20.023054     8A    -20.022926     9A    -20.022069
      10A    -10.912303    11A     -7.142797    12A     -7.099377
      13A     -5.042268    14A     -5.040380    15A     -5.039556
      16A     -4.999083    17A     -4.996067    18A     -4.996050
      19A     -0.962941    20A     -0.889217    21A     -0.848254
      22A     -0.816726    23A     -0.802022    24A     -0.763676
      25A     -0.762457    26A     -0.539427    27A     -0.336779
      28A     -0.269148    29A     -0.246046    30A     -0.217785
      31A     -0.204604    32A     -0.157013    33A     -0.143189
      34A     -0.117169    35A     -0.098018    36A     -0.097653
      37A     -0.079664    38A     -0.052999    39A     -0.048127
      40A     -0.030513    41A     -0.014823    42A     -0.001616
      43A      0.000647    44A      0.003111    45A      0.007735
      46A      0.021405    47A      0.042704    48A      0.047693
      49A      0.070488

  @DF-RHF Final Energy: -1245.34118601002706

   => Energetics <=

    Nuclear Repulsion Energy =            797.4417148001202804
    One-Electron Energy =               -3359.1532347752950045
    Two-Electron Energy =                1316.3703339651476654
    Total Energy =                      -1245.3411860100270587
  Basis Set: (AUG-CC-PVTZ AUX)
    Blend: AUG-CC-PVTZ-RI
    Molecular point group: c1

    Geometry (in Angstrom), charge = -3, multiplicity = 1:

       Center              X                  Y                   Z               Mass
    ------------   -----------------  -----------------  -----------------  -----------------
         P           -1.192617942247     0.347296157978     0.008366907735    30.973761998420
         P            2.020598057753    -0.117222842022     0.000998907735    30.973761998420
         O           -2.206405942247    -1.109794842022    -0.114483092265    15.994914619570
         O            0.173329057753    -0.426770842022    -0.133730092265    15.994914619570
         O           -1.630163942247     1.170417157978    -1.201951092265    15.994914619570
         O           -1.542495942247     0.895058157978     1.389034907735    15.994914619570
         O            2.371301057753    -0.899294842022     1.276062907735    15.994914619570
         O            2.131716057753     1.409269157978     0.087146907735    15.994914619570
         O            2.500395057753    -0.759771842022    -1.310560092265    15.994914619570
         C           -3.538574842247    -0.788984242022    -0.015985092265    12.000000000000
         H           -3.800795942247    -0.306190842022     0.949745907735     1.007825032230
         H           -3.878689942247    -0.090687842022    -0.810916092265     1.007825032230
         H           -4.164261942247    -1.709438842022    -0.101762092265     1.007825032230

  Basis Set: AUG-CC-PVTZ
    Blend: AUG-CC-PVTZ
  Basis Set: (AUG-CC-PVTZ AUX)
    Blend: AUG-CC-PVTZ-JKFIT
	 Reference Energy          =   -1245.3411860100270587 [Eh]
	 Singles Energy            =      -0.0000000000000000 [Eh]
	 Same-Spin Energy          =      -0.6475091189065362 [Eh]
	 Opposite-Spin Energy      =      -1.8099260454892270 [Eh]
	 Correlation Energy        =      -2.4574351643957630 [Eh]
	 Total Energy              =   -1247.7986211744228058 [Eh]

	 ================> DF-SCS-MP2 Energies <==================
	-----------------------------------------------------------
	 SCS Same-Spin Scale       =       0.3333333333333333 [-]
	 SCS Opposite-Spin Scale   =       1.2000000000000000 [-]
	 SCS Same-Spin Energy      =      -0.2158363729688454 [Eh]
	 SCS Opposite-Spin Energy  =      -2.1719112545870725 [Eh]
	 SCS Correlation Energy    =      -2.3877476275559180 [Eh]
	 SCS Total Energy          =   -1247.7289336375829407 [Eh]
	-----------------------------------------------------------

  Dipole Moment: [D]
     X:    -7.5849      Y:    -1.8070      Z:    -0.1736     Total:     7.7991

*** Psi4 exiting successfully. Buy a developer a beer!
