                               Psi4 1.3.2 release

  ==> Input File <==

--------------------------------------------------------------------------
#psi4
#
memory 32 gb

molecule  {
-3 1
  P        1.1931290    -0.6069630     0.0087730
  P       -1.8341790     0.1663700     0.0034510
  O        1.3559990     1.0186560    -0.3729610
  O       -0.3886030    -0.8294050    -0.1958090
  O        1.9273580    -1.4129110    -1.0480400
  O        1.6168640    -0.7815310     1.4560350
  O       -1.8230235     1.1000054    -1.2135832
  O       -1.6562150     0.8578460     1.3638040
  O       -2.8925725    -0.9439397    -0.0173905
  C        2.6258790     1.5668310    -0.0085760
  H        2.7349980     1.6139230     1.0781470
  H        3.4479520     0.9704660    -0.4205400
  H        2.6752270     2.5733270    -0.4286450
units angstrom
no_reorient  #important for SAPT in psi4, default
symmetry c1  #important for SAPT in psi4, default
}

set PROPERTIES_ORIGIN ["COM"]
properties('MP2/aug-cc-pvtz', properties = ['dipole'])
--------------------------------------------------------------------------

    Molecular point group: c1
  Charge       = -3
  Multiplicity = 1
  Basis Set: AUG-CC-PVTZ
    Blend: AUG-CC-PVTZ
  Basis Set: (AUG-CC-PVTZ AUX)
    Blend: AUG-CC-PVTZ-JKFIT

    Orbital Energies [Eh]
    ---------------------

    Doubly Occupied:

       1A    -79.621633     2A    -79.559086     3A    -20.152493
       4A    -20.079966     5A    -20.054443     6A    -20.050480
       7A    -20.000063     8A    -19.999558     9A    -19.996078
      10A    -10.916791    11A     -7.135672    12A     -7.072902
      13A     -5.034980    14A     -5.033456    15A     -5.032659
      16A     -4.972472    17A     -4.970002    18A     -4.969898
      19A     -0.964819    20A     -0.886244    21A     -0.841332
      22A     -0.802589    23A     -0.798676    24A     -0.742954
      25A     -0.739271    26A     -0.560314    27A     -0.335747
      28A     -0.281790    29A     -0.253833    30A     -0.228045
      31A     -0.186816    32A     -0.147041    33A     -0.143425
      34A     -0.114118    35A     -0.092863    36A     -0.088280
      37A     -0.062962    38A     -0.057416    39A     -0.043041
      40A     -0.037713    41A     -0.021877    42A      0.007677
      43A      0.021186    44A      0.022686    45A      0.025576
      46A      0.028668    47A      0.064587    48A      0.068996
      49A      0.093161

  @DF-RHF Final Energy: -1245.34505132530239

   => Energetics <=

    Nuclear Repulsion Energy =            820.5900773694700092
    One-Electron Energy =               -3406.3677329340553115
    Two-Electron Energy =                1340.4326042392826821
    Total Energy =                      -1245.3450513253023928
  Basis Set: (AUG-CC-PVTZ AUX)
    Blend: AUG-CC-PVTZ-RI
    Molecular point group: c1

    Geometry (in Angstrom), charge = -3, multiplicity = 1:

       Center              X                  Y                   Z               Mass
    ------------   -----------------  -----------------  -----------------  -----------------
         P            1.241671082373    -0.577840860093     0.008458120890    30.973761998420
         P           -1.785636917627     0.195492139907     0.003136120890    30.973761998420
         O            1.404541082373     1.047778139907    -0.373275879110    15.994914619570
         O           -0.340060917627    -0.800282860093    -0.196123879110    15.994914619570
         O            1.975900082373    -1.383788860093    -1.048354879110    15.994914619570
         O            1.665406082373    -0.752408860093     1.455720120890    15.994914619570
         O           -1.774481417627     1.129127539907    -1.213898079110    15.994914619570
         O           -1.607672917627     0.886968139907     1.363489120890    15.994914619570
         O           -2.844030417627    -0.914817560093    -0.017705379110    15.994914619570
         C            2.674421082373     1.595953139907    -0.008890879110    12.000000000000
         H            2.783540082373     1.643045139907     1.077832120890     1.007825032230
         H            3.496494082373     0.999588139907    -0.420854879110     1.007825032230
         H            2.723769082373     2.602449139907    -0.428959879110     1.007825032230

  Basis Set: AUG-CC-PVTZ
    Blend: AUG-CC-PVTZ
  Basis Set: (AUG-CC-PVTZ AUX)
    Blend: AUG-CC-PVTZ-JKFIT
	 Reference Energy          =   -1245.3450513253023928 [Eh]
	 Singles Energy            =      -0.0000000000000000 [Eh]
	 Same-Spin Energy          =      -0.6460607014816875 [Eh]
	 Opposite-Spin Energy      =      -1.8063829659012072 [Eh]
	 Correlation Energy        =      -2.4524436673828944 [Eh]
	 Total Energy              =   -1247.7974949926851878 [Eh]

	 ================> DF-SCS-MP2 Energies <==================
	-----------------------------------------------------------
	 SCS Same-Spin Scale       =       0.3333333333333333 [-]
	 SCS Opposite-Spin Scale   =       1.2000000000000000 [-]
	 SCS Same-Spin Energy      =      -0.2153535671605625 [Eh]
	 SCS Opposite-Spin Energy  =      -2.1676595590814487 [Eh]
	 SCS Correlation Energy    =      -2.3830131262420111 [Eh]
	 SCS Total Energy          =   -1247.7280644515444692 [Eh]
	-----------------------------------------------------------

  Dipole Moment: [D]
     X:     7.8675      Y:     2.3254      Z:    -0.5192     Total:     8.2203

*** Psi4 exiting successfully. Buy a developer a beer!
