                               Psi4 1.3.2 release

  ==> Input File <==

--------------------------------------------------------------------------
#psi4
#
memory 32 gb

molecule  {
-3 1
  P        1.1931290    -0.6069630     0.0087730
  P       -1.8341790     0.1663700     0.0034510
  O        1.3559990     1.0186560    -0.3729610
  O       -0.3834297    -0.8245118    -0.1821354
  O        1.9273580    -1.4129110    -1.0480400
  O        1.6168640    -0.7815310     1.4560350
  O       -1.8332320     1.0931450    -1.2188660
  O       -1.6444483     0.8516128     1.3653670
  O       -2.8968830    -0.9395270    -0.0292720
  C        2.6258790     1.5668310    -0.0085760
  H        2.7349980     1.6139230     1.0781470
  H        3.4479520     0.9704660    -0.4205400
  H        2.6752270     2.5733270    -0.4286450
units angstrom
no_reorient  #important for SAPT in psi4, default
symmetry c1  #important for SAPT in psi4, default
}

set PROPERTIES_ORIGIN ["COM"]
properties('MP2/aug-cc-pvtz', properties = ['dipole'])
--------------------------------------------------------------------------

    Molecular point group: c1
  Charge       = -3
  Multiplicity = 1
  Basis Set: AUG-CC-PVTZ
    Blend: AUG-CC-PVTZ
  Basis Set: (AUG-CC-PVTZ AUX)
    Blend: AUG-CC-PVTZ-JKFIT

    Orbital Energies [Eh]
    ---------------------

    Doubly Occupied:

       1A    -79.620578     2A    -79.559653     3A    -20.152019
       4A    -20.079456     5A    -20.054317     6A    -20.049166
       7A    -20.000302     8A    -19.999753     9A    -19.996783
      10A    -10.916474    11A     -7.134736    12A     -7.073438
      13A     -5.034057    14A     -5.032538    15A     -5.031711
      16A     -4.973024    17A     -4.970555    18A     -4.970402
      19A     -0.964677    20A     -0.887230    21A     -0.841092
      22A     -0.801861    23A     -0.799424    24A     -0.742575
      25A     -0.740392    26A     -0.559985    27A     -0.336083
      28A     -0.282501    29A     -0.253501    30A     -0.227952
      31A     -0.186304    32A     -0.147329    33A     -0.143756
      34A     -0.113846    35A     -0.093149    36A     -0.088572
      37A     -0.062736    38A     -0.057239    39A     -0.042991
      40A     -0.037875    41A     -0.021524    42A      0.008338
      43A      0.021470    44A      0.021841    45A      0.025628
      46A      0.028552    47A      0.064459    48A      0.068520
      49A      0.092734

  @DF-RHF Final Energy: -1245.34570181181925

   => Energetics <=

    Nuclear Repulsion Energy =            820.8967759409283644
    One-Electron Energy =               -3406.9849270975678337
    Two-Electron Energy =                1340.7424493448202156
    Total Energy =                      -1245.3457018118192536
  Basis Set: (AUG-CC-PVTZ AUX)
    Blend: AUG-CC-PVTZ-RI
    Molecular point group: c1

    Geometry (in Angstrom), charge = -3, multiplicity = 1:

       Center              X                  Y                   Z               Mass
    ------------   -----------------  -----------------  -----------------  -----------------
         P            1.241466125081    -0.577520200557     0.008621316335    30.973761998420
         P           -1.785841874919     0.195812799443     0.003299316335    30.973761998420
         O            1.404336125081     1.048098799443    -0.373112683665    15.994914619570
         O           -0.335092574919    -0.795069000557    -0.182287083665    15.994914619570
         O            1.975695125081    -1.383468200557    -1.048191683665    15.994914619570
         O            1.665201125081    -0.752088200557     1.455883316335    15.994914619570
         O           -1.784894874919     1.122587799443    -1.219017683665    15.994914619570
         O           -1.596111174919     0.881055599443     1.365215316335    15.994914619570
         O           -2.848545874919    -0.910084200557    -0.029423683665    15.994914619570
         C            2.674216125081     1.596273799443    -0.008727683665    12.000000000000
         H            2.783335125081     1.643365799443     1.077995316335     1.007825032230
         H            3.496289125081     0.999908799443    -0.420691683665     1.007825032230
         H            2.723564125081     2.602769799443    -0.428796683665     1.007825032230

  Basis Set: AUG-CC-PVTZ
    Blend: AUG-CC-PVTZ
  Basis Set: (AUG-CC-PVTZ AUX)
    Blend: AUG-CC-PVTZ-JKFIT
	 Reference Energy          =   -1245.3457018118192536 [Eh]
	 Singles Energy            =      -0.0000000000000000 [Eh]
	 Same-Spin Energy          =      -0.6459591912114629 [Eh]
	 Opposite-Spin Energy      =      -1.8060913781795960 [Eh]
	 Correlation Energy        =      -2.4520505693910590 [Eh]
	 Total Energy              =   -1247.7977523812103300 [Eh]

	 ================> DF-SCS-MP2 Energies <==================
	-----------------------------------------------------------
	 SCS Same-Spin Scale       =       0.3333333333333333 [-]
	 SCS Opposite-Spin Scale   =       1.2000000000000000 [-]
	 SCS Same-Spin Energy      =      -0.2153197304038210 [Eh]
	 SCS Opposite-Spin Energy  =      -2.1673096538155150 [Eh]
	 SCS Correlation Energy    =      -2.3826293842193360 [Eh]
	 SCS Total Energy          =   -1247.7283311960386527 [Eh]
	-----------------------------------------------------------

  Dipole Moment: [D]
     X:     7.8213      Y:     2.3405      Z:    -0.5019     Total:     8.1794

*** Psi4 exiting successfully. Buy a developer a beer!
