                               Psi4 1.3.2 release

  ==> Input File <==

--------------------------------------------------------------------------
#psi4
#
memory 32 gb

molecule  {
-3 1
  P        1.1931290    -0.6069630     0.0087730
  P       -1.8341790     0.1663700     0.0034510
  O        1.3559990     1.0186560    -0.3729610
  O       -0.3933206    -0.8394376    -0.1407044
  O        1.9273580    -1.4129110    -1.0480400
  O        1.5664255    -0.7918326     1.4685900
  O       -1.8332320     1.0931450    -1.2188660
  O       -1.6562150     0.8578460     1.3638040
  O       -2.8968830    -0.9395270    -0.0292720
  C        2.6258790     1.5668310    -0.0085760
  H        2.7349980     1.6139230     1.0781470
  H        3.4479520     0.9704660    -0.4205400
  H        2.6752270     2.5733270    -0.4286450
units angstrom
no_reorient  #important for SAPT in psi4, default
symmetry c1  #important for SAPT in psi4, default
}

set PROPERTIES_ORIGIN ["COM"]
properties('MP2/aug-cc-pvtz', properties = ['dipole'])
--------------------------------------------------------------------------

    Molecular point group: c1
  Charge       = -3
  Multiplicity = 1
  Basis Set: AUG-CC-PVTZ
    Blend: AUG-CC-PVTZ
  Basis Set: (AUG-CC-PVTZ AUX)
    Blend: AUG-CC-PVTZ-JKFIT

    Orbital Energies [Eh]
    ---------------------

    Doubly Occupied:

       1A    -79.622024     2A    -79.557495     3A    -20.155185
       4A    -20.077071     5A    -20.058620     6A    -20.047728
       7A    -20.000070     8A    -19.996933     9A    -19.993792
      10A    -10.919148    11A     -7.136095    12A     -7.071288
      13A     -5.035381    14A     -5.033951    15A     -5.033005
      16A     -4.970850    17A     -4.968430    18A     -4.968274
      19A     -0.966540    20A     -0.886415    21A     -0.840823
      22A     -0.803755    23A     -0.796340    24A     -0.741156
      25A     -0.737769    26A     -0.562545    27A     -0.336560
      28A     -0.282739    29A     -0.256068    30A     -0.230006
      31A     -0.186072    32A     -0.147243    33A     -0.143439
      34A     -0.115154    35A     -0.092086    36A     -0.087900
      37A     -0.064919    38A     -0.056477    39A     -0.041565
      40A     -0.036972    41A     -0.023277    42A      0.008461
      43A      0.022609    44A      0.024105    45A      0.027034
      46A      0.028786    47A      0.066330    48A      0.071041
      49A      0.094772

  @DF-RHF Final Energy: -1245.34279618036112

   => Energetics <=

    Nuclear Repulsion Energy =            820.7712163962976319
    One-Electron Energy =               -3406.7519841366824949
    Two-Electron Energy =                1340.6379715600239706
    Total Energy =                      -1245.3427961803611197
  Basis Set: (AUG-CC-PVTZ AUX)
    Blend: AUG-CC-PVTZ-RI
    Molecular point group: c1

    Geometry (in Angstrom), charge = -3, multiplicity = 1:

       Center              X                  Y                   Z               Mass
    ------------   -----------------  -----------------  -----------------  -----------------
         P            1.247569644883    -0.575912187422     0.004183284061    30.973761998420
         P           -1.779738355117     0.197420812578    -0.001138715939    30.973761998420
         O            1.410439644883     1.049706812578    -0.377550715939    15.994914619570
         O           -0.338879955117    -0.808386787422    -0.145294115939    15.994914619570
         O            1.981798644883    -1.381860187422    -1.052629715939    15.994914619570
         O            1.620866144883    -0.760781787422     1.464000284061    15.994914619570
         O           -1.778791355117     1.124195812578    -1.223455715939    15.994914619570
         O           -1.601774355117     0.888896812578     1.359214284061    15.994914619570
         O           -2.842442355117    -0.908476187422    -0.033861715939    15.994914619570
         C            2.680319644883     1.597881812578    -0.013165715939    12.000000000000
         H            2.789438644883     1.644973812578     1.073557284061     1.007825032230
         H            3.502392644883     1.001516812578    -0.425129715939     1.007825032230
         H            2.729667644883     2.604377812578    -0.433234715939     1.007825032230

  Basis Set: AUG-CC-PVTZ
    Blend: AUG-CC-PVTZ
  Basis Set: (AUG-CC-PVTZ AUX)
    Blend: AUG-CC-PVTZ-JKFIT
	 Reference Energy          =   -1245.3427961803611197 [Eh]
	 Singles Energy            =      -0.0000000000000000 [Eh]
	 Same-Spin Energy          =      -0.6460776530007294 [Eh]
	 Opposite-Spin Energy      =      -1.8063997170599575 [Eh]
	 Correlation Energy        =      -2.4524773700606870 [Eh]
	 Total Energy              =   -1247.7952735504218253 [Eh]

	 ================> DF-SCS-MP2 Energies <==================
	-----------------------------------------------------------
	 SCS Same-Spin Scale       =       0.3333333333333333 [-]
	 SCS Opposite-Spin Scale   =       1.2000000000000000 [-]
	 SCS Same-Spin Energy      =      -0.2153592176669098 [Eh]
	 SCS Opposite-Spin Energy  =      -2.1676796604719488 [Eh]
	 SCS Correlation Energy    =      -2.3830388781388585 [Eh]
	 SCS Total Energy          =   -1247.7258350585000244 [Eh]
	-----------------------------------------------------------

  Dipole Moment: [D]
     X:     8.0944      Y:     2.3534      Z:    -0.6022     Total:     8.4511

*** Psi4 exiting successfully. Buy a developer a beer!
