                               Psi4 1.3.2 release

  ==> Input File <==

--------------------------------------------------------------------------
#psi4
#
memory 32 gb

molecule  {
-3 1
  P        1.1795750    -0.6068389     0.0032377
  P       -1.8341790     0.1663700     0.0034510
  O        1.3559990     1.0186560    -0.3729610
  O       -0.3886030    -0.8294050    -0.1958090
  O        1.9273580    -1.4129110    -1.0480400
  O        1.6168640    -0.7815310     1.4560350
  O       -1.8332320     1.0931450    -1.2188660
  O       -1.6562150     0.8578460     1.3638040
  O       -2.8968830    -0.9395270    -0.0292720
  C        2.6223223     1.5779179    -0.0130738
  H        2.7349980     1.6139230     1.0781470
  H        3.4479520     0.9704660    -0.4205400
  H        2.6752270     2.5733270    -0.4286450
units angstrom
no_reorient  #important for SAPT in psi4, default
symmetry c1  #important for SAPT in psi4, default
}

set PROPERTIES_ORIGIN ["COM"]
properties('MP2/aug-cc-pvtz', properties = ['dipole'])
--------------------------------------------------------------------------

    Molecular point group: c1
  Charge       = -3
  Multiplicity = 1
  Basis Set: AUG-CC-PVTZ
    Blend: AUG-CC-PVTZ
  Basis Set: (AUG-CC-PVTZ AUX)
    Blend: AUG-CC-PVTZ-JKFIT

    Orbital Energies [Eh]
    ---------------------

    Doubly Occupied:

       1A    -79.621991     2A    -79.560856     3A    -20.151646
       4A    -20.083893     5A    -20.053447     6A    -20.048292
       7A    -20.000672     8A    -20.000116     9A    -19.998530
      10A    -10.916515    11A     -7.135853    12A     -7.074686
      13A     -5.035193    14A     -5.033685    15A     -5.032789
      16A     -4.974273    17A     -4.971778    18A     -4.971645
      19A     -0.964195    20A     -0.889980    21A     -0.839926
      22A     -0.801438    23A     -0.798321    24A     -0.743126
      25A     -0.741490    26A     -0.560449    27A     -0.337065
      28A     -0.284388    29A     -0.250931    30A     -0.231655
      31A     -0.185604    32A     -0.148765    33A     -0.143810
      34A     -0.112880    35A     -0.095265    36A     -0.089259
      37A     -0.061575    38A     -0.058502    39A     -0.044131
      40A     -0.037229    41A     -0.019952    42A      0.009795
      43A      0.020784    44A      0.021848    45A      0.024591
      46A      0.028851    47A      0.063524    48A      0.066994
      49A      0.092003

  @DF-RHF Final Energy: -1245.34578437425057

   => Energetics <=

    Nuclear Repulsion Energy =            820.6025757410292272
    One-Electron Energy =               -3406.3419144487925223
    Two-Electron Energy =                1340.3935543335126113
    Total Energy =                      -1245.3457843742505702
  Basis Set: (AUG-CC-PVTZ AUX)
    Blend: AUG-CC-PVTZ-RI
    Molecular point group: c1

    Geometry (in Angstrom), charge = -3, multiplicity = 1:

       Center              X                  Y                   Z               Mass
    ------------   -----------------  -----------------  -----------------  -----------------
         P            1.231794153638    -0.578234058019     0.005569038454    30.973761998420
         P           -1.781959846362     0.194974841981     0.005782338454    30.973761998420
         O            1.408218153638     1.047260841981    -0.370629661546    15.994914619570
         O           -0.336383846362    -0.800800158019    -0.193477661546    15.994914619570
         O            1.979577153638    -1.384306158019    -1.045708661546    15.994914619570
         O            1.669083153638    -0.752926158019     1.458366338454    15.994914619570
         O           -1.781012846362     1.121749841981    -1.216534661546    15.994914619570
         O           -1.603995846362     0.886450841981     1.366135338454    15.994914619570
         O           -2.844663846362    -0.910922158019    -0.026940661546    15.994914619570
         C            2.674541453638     1.606522741981    -0.010742461546    12.000000000000
         H            2.787217153638     1.642527841981     1.080478338454     1.007825032230
         H            3.500171153638     0.999070841981    -0.418208661546     1.007825032230
         H            2.727446153638     2.601931841981    -0.426313661546     1.007825032230

  Basis Set: AUG-CC-PVTZ
    Blend: AUG-CC-PVTZ
  Basis Set: (AUG-CC-PVTZ AUX)
    Blend: AUG-CC-PVTZ-JKFIT
	 Reference Energy          =   -1245.3457843742505702 [Eh]
	 Singles Energy            =      -0.0000000000000000 [Eh]
	 Same-Spin Energy          =      -0.6460176554169235 [Eh]
	 Opposite-Spin Energy      =      -1.8062756169395460 [Eh]
	 Correlation Energy        =      -2.4522932723564694 [Eh]
	 Total Energy              =   -1247.7980776466069983 [Eh]

	 ================> DF-SCS-MP2 Energies <==================
	-----------------------------------------------------------
	 SCS Same-Spin Scale       =       0.3333333333333333 [-]
	 SCS Opposite-Spin Scale   =       1.2000000000000000 [-]
	 SCS Same-Spin Energy      =      -0.2153392184723078 [Eh]
	 SCS Opposite-Spin Energy  =      -2.1675307403274551 [Eh]
	 SCS Correlation Energy    =      -2.3828699587997630 [Eh]
	 SCS Total Energy          =   -1247.7286543330503719 [Eh]
	-----------------------------------------------------------

  Dipole Moment: [D]
     X:     7.6785      Y:     2.3928      Z:    -0.5505     Total:     8.0615

*** Psi4 exiting successfully. Buy a developer a beer!
