                               Psi4 1.4a3.dev225

  ==> Input File <==

--------------------------------------------------------------------------
#psi4
#
memory 32 gb

molecule  {
-3 1
  P       -1.1253500     0.3591720     0.0081310
  P        2.0878660    -0.1053470     0.0007630
  O       -2.1391380    -1.0979190    -0.1147190
  O        0.2897824    -0.4066530    -0.1303787
  O       -1.5628960     1.1822930    -1.2021870
  O       -1.4752280     0.9069340     1.3887990
  O        2.4385690    -0.8874190     1.2758270
  O        2.1989840     1.4211450     0.0869110
  O        2.5676630    -0.7478960    -1.3107960
  C       -3.4907010    -0.7724380    -0.0147870
  H       -3.7335280    -0.2943150     0.9495100
  H       -3.8114220    -0.0788120    -0.8111520
  H       -4.0969940    -1.6975630    -0.1019980
units angstrom
no_reorient  #important for SAPT in psi4, default
symmetry c1  #important for SAPT in psi4, default
}

set PROPERTIES_ORIGIN ["COM"]
properties('MP2/aug-cc-pvtz', properties = ['dipole'])
--------------------------------------------------------------------------

    Molecular point group: c1
  Charge       = -3
  Multiplicity = 1
  Basis Set: AUG-CC-PVTZ
    Blend: AUG-CC-PVTZ
  Basis Set: (AUG-CC-PVTZ AUX)
    Blend: AUG-CC-PVTZ-JKFIT

    Orbital Energies [Eh]
    ---------------------

    Doubly Occupied:

       1A    -79.638654     2A    -79.579005     3A    -20.151618
       4A    -20.091237     5A    -20.061147     6A    -20.060206
       7A    -20.016681     8A    -20.016507     9A    -20.015607
      10A    -10.915417    11A     -7.150507    12A     -7.092382
      13A     -5.049953    14A     -5.048044    15A     -5.047328
      16A     -4.992092    17A     -4.989198    18A     -4.989180
      19A     -0.959582    20A     -0.886652    21A     -0.848402
      22A     -0.811866    23A     -0.805970    24A     -0.758063
      25A     -0.756850    26A     -0.547102    27A     -0.339390
      28A     -0.272602    29A     -0.250541    30A     -0.215605
      31A     -0.204753    32A     -0.155576    33A     -0.144023
      34A     -0.119787    35A     -0.099427    36A     -0.095797
      37A     -0.076755    38A     -0.056235    39A     -0.050598
      40A     -0.033032    41A     -0.017387    42A     -0.000689
      43A      0.003682    44A      0.008301    45A      0.009745
      46A      0.018776    47A      0.048998    48A      0.053317
      49A      0.076278

  @DF-RHF Final Energy: -1245.33999020344027

   => Energetics <=

    Nuclear Repulsion Energy =            796.8716439446225195
    One-Electron Energy =               -3358.0385670125069737
    Two-Electron Energy =                1315.8269328644441885
    Total Energy =                      -1245.3399902034402658
  Basis Set: (AUG-CC-PVTZ AUX)
    Blend: AUG-CC-PVTZ-RI
    Molecular point group: c1

    Geometry (in Angstrom), charge = -3, multiplicity = 1:

       Center              X                  Y                   Z               Mass
    ------------   -----------------  -----------------  -----------------  -----------------
         P           -1.195550092968     0.346301771087     0.007972134936    30.973761998420
         P            2.017665907032    -0.118217228913     0.000604134936    30.973761998420
         O           -2.209338092968    -1.110789228913    -0.114877865064    15.994914619570
         O            0.219582307032    -0.419523228913    -0.130537565064    15.994914619570
         O           -1.633096092968     1.169422771087    -1.202345865064    15.994914619570
         O           -1.545428092968     0.894063771087     1.388640134936    15.994914619570
         O            2.368368907032    -0.900289228913     1.275668134936    15.994914619570
         O            2.128783907032     1.408274771087     0.086752134936    15.994914619570
         O            2.497462907032    -0.760766228913    -1.310954865064    15.994914619570
         C           -3.560901092968    -0.785308228913    -0.014945865064    12.000000000000
         H           -3.803728092968    -0.307185228913     0.949351134936     1.007825032230
         H           -3.881622092968    -0.091682228913    -0.811310865064     1.007825032230
         H           -4.167194092968    -1.710433228913    -0.102156865064     1.007825032230

  Basis Set: AUG-CC-PVTZ
    Blend: AUG-CC-PVTZ
  Basis Set: (AUG-CC-PVTZ AUX)
    Blend: AUG-CC-PVTZ-JKFIT
	 Reference Energy          =   -1245.3399902034402658 [Eh]
	 Singles Energy            =      -0.0000000000000000 [Eh]
	 Same-Spin Energy          =      -0.6475988500260316 [Eh]
	 Opposite-Spin Energy      =      -1.8104202417315860 [Eh]
	 Correlation Energy        =      -2.4580190917576177 [Eh]
	 Total Energy              =   -1247.7980092951979714 [Eh]

	 ================> DF-SCS-MP2 Energies <==================
	-----------------------------------------------------------
	 SCS Same-Spin Scale       =       0.3333333333333333 [-]
	 SCS Opposite-Spin Scale   =       1.2000000000000000 [-]
	 SCS Same-Spin Energy      =      -0.2158662833420105 [Eh]
	 SCS Opposite-Spin Energy  =      -2.1725042900779030 [Eh]
	 SCS Correlation Energy    =      -2.3883705734199134 [Eh]
	 SCS Total Energy          =   -1247.7283607768601996 [Eh]
	-----------------------------------------------------------

  Dipole Moment: [D]
     X:    -8.3635      Y:    -1.7757      Z:    -0.1779     Total:     8.5518

*** Psi4 exiting successfully. Buy a developer a beer!
