                               Psi4 1.4a3.dev225

  ==> Input File <==

--------------------------------------------------------------------------
#psi4
#
memory 32 gb

molecule  {
-3 1
  P       -1.1253500     0.3591720     0.0081310
  P        2.0878660    -0.1053470     0.0007630
  O       -2.1391380    -1.0979190    -0.1147190
  O        0.2405970    -0.4148950    -0.1339660
  O       -1.5628960     1.1822930    -1.2021870
  O       -1.4752280     0.9069340     1.3887990
  O        2.4499824    -0.9128710     1.3173231
  O        2.1989840     1.4211450     0.0869110
  O        2.5676630    -0.7478960    -1.3107960
  C       -3.4907010    -0.7724380    -0.0147870
  H       -3.7335280    -0.2943150     0.9495100
  H       -3.8114220    -0.0788120    -0.8111520
  H       -4.0969940    -1.6975630    -0.1019980
units angstrom
no_reorient  #important for SAPT in psi4, default
symmetry c1  #important for SAPT in psi4, default
}

set PROPERTIES_ORIGIN ["COM"]
properties('MP2/aug-cc-pvtz', properties = ['dipole'])
--------------------------------------------------------------------------

    Molecular point group: c1
  Charge       = -3
  Multiplicity = 1
  Basis Set: AUG-CC-PVTZ
    Blend: AUG-CC-PVTZ
  Basis Set: (AUG-CC-PVTZ AUX)
    Blend: AUG-CC-PVTZ-JKFIT

    Orbital Energies [Eh]
    ---------------------

    Doubly Occupied:

       1A    -79.630498     2A    -79.594662     3A    -20.146303
       4A    -20.091452     5A    -20.057242     6A    -20.056500
       7A    -20.027440     8A    -20.026459     9A    -20.025097
      10A    -10.911803    11A     -7.143402    12A     -7.106550
      13A     -5.042843    14A     -5.041024    15A     -5.040171
      16A     -5.006329    17A     -5.003356    18A     -5.002983
      19A     -0.956850    20A     -0.888165    21A     -0.845988
      22A     -0.816430    23A     -0.802538    24A     -0.767129
      25A     -0.751853    26A     -0.543406    27A     -0.336227
      28A     -0.270000    29A     -0.246893    30A     -0.213434
      31A     -0.206172    32A     -0.157579    33A     -0.144502
      34A     -0.118528    35A     -0.098619    36A     -0.096518
      37A     -0.079610    38A     -0.054059    39A     -0.049674
      40A     -0.031366    41A     -0.014976    42A     -0.001731
      43A      0.001995    44A      0.004889    45A      0.008931
      46A      0.021424    47A      0.040235    48A      0.049544
      49A      0.069165

  @DF-RHF Final Energy: -1245.33562487417998

   => Energetics <=

    Nuclear Repulsion Energy =            794.8123033839264053
    One-Electron Energy =               -3353.7954947183475269
    Two-Electron Energy =                1313.6475664602410234
    Total Energy =                      -1245.3356248741799845
  Basis Set: (AUG-CC-PVTZ AUX)
    Blend: AUG-CC-PVTZ-RI
    Molecular point group: c1

    Geometry (in Angstrom), charge = -3, multiplicity = 1:

       Center              X                  Y                   Z               Mass
    ------------   -----------------  -----------------  -----------------  -----------------
         P           -1.192352386712     0.349154241557     0.004762847451    30.973761998420
         P            2.020863613288    -0.115364758443    -0.002605152549    30.973761998420
         O           -2.206140386712    -1.107936758443    -0.118087152549    15.994914619570
         O            0.173594613288    -0.424912758443    -0.137334152549    15.994914619570
         O           -1.629898386712     1.172275241557    -1.205555152549    15.994914619570
         O           -1.542230386712     0.896916241557     1.385430847451    15.994914619570
         O            2.382980013288    -0.922888758443     1.313954947451    15.994914619570
         O            2.131981613288     1.411127241557     0.083542847451    15.994914619570
         O            2.500660613288    -0.757913758443    -1.314164152549    15.994914619570
         C           -3.557703386712    -0.782455758443    -0.018155152549    12.000000000000
         H           -3.800530386712    -0.304332758443     0.946141847451     1.007825032230
         H           -3.878424386712    -0.088829758443    -0.814520152549     1.007825032230
         H           -4.163996386712    -1.707580758443    -0.105366152549     1.007825032230

  Basis Set: AUG-CC-PVTZ
    Blend: AUG-CC-PVTZ
  Basis Set: (AUG-CC-PVTZ AUX)
    Blend: AUG-CC-PVTZ-JKFIT
	 Reference Energy          =   -1245.3356248741799845 [Eh]
	 Singles Energy            =      -0.0000000000000000 [Eh]
	 Same-Spin Energy          =      -0.6484148503430618 [Eh]
	 Opposite-Spin Energy      =      -1.8126131682663931 [Eh]
	 Correlation Energy        =      -2.4610280186094551 [Eh]
	 Total Energy              =   -1247.7966528927895524 [Eh]

	 ================> DF-SCS-MP2 Energies <==================
	-----------------------------------------------------------
	 SCS Same-Spin Scale       =       0.3333333333333333 [-]
	 SCS Opposite-Spin Scale   =       1.2000000000000000 [-]
	 SCS Same-Spin Energy      =      -0.2161382834476873 [Eh]
	 SCS Opposite-Spin Energy  =      -2.1751358019196716 [Eh]
	 SCS Correlation Energy    =      -2.3912740853673586 [Eh]
	 SCS Total Energy          =   -1247.7268989595472704 [Eh]
	-----------------------------------------------------------

  Dipole Moment: [D]
     X:    -7.8470      Y:    -1.6283      Z:    -0.4638     Total:     8.0276

*** Psi4 exiting successfully. Buy a developer a beer!
