                               Psi4 1.3.2 release

  ==> Input File <==

--------------------------------------------------------------------------
#psi4
#
memory 32 gb

molecule  {
-3 1
  P        1.1931290    -0.6069630     0.0087730
  P       -1.8341790     0.1663700     0.0034510
  O        1.3559990     1.0186560    -0.3729610
  O       -0.3886030    -0.8294050    -0.1958090
  O        1.9273580    -1.4129110    -1.0480400
  O        1.6168640    -0.7815310     1.4560350
  O       -1.8332320     1.0931450    -1.2188660
  O       -1.6562150     0.8578460     1.3638040
  O       -2.8968830    -0.9395270    -0.0292720
  C        2.6258790     1.5668310    -0.0085760
  H        2.7034056     1.6352647     1.0797245
  H        3.4336526     0.9761732    -0.4555599
  H        2.6752270     2.5733270    -0.4286450
units angstrom
no_reorient  #important for SAPT in psi4, default
symmetry c1  #important for SAPT in psi4, default
}

set PROPERTIES_ORIGIN ["COM"]
properties('MP2/aug-cc-pvtz', properties = ['dipole'])
--------------------------------------------------------------------------

    Molecular point group: c1
  Charge       = -3
  Multiplicity = 1
  Basis Set: AUG-CC-PVTZ
    Blend: AUG-CC-PVTZ
  Basis Set: (AUG-CC-PVTZ AUX)
    Blend: AUG-CC-PVTZ-JKFIT

    Orbital Energies [Eh]
    ---------------------

    Doubly Occupied:

       1A    -79.621773     2A    -79.559011     3A    -20.151784
       4A    -20.080374     5A    -20.054684     6A    -20.050614
       7A    -19.999160     8A    -19.998696     9A    -19.997206
      10A    -10.916940    11A     -7.135813    12A     -7.072821
      13A     -5.035116    14A     -5.033601    15A     -5.032801
      16A     -4.972384    17A     -4.969938    18A     -4.969806
      19A     -0.964899    20A     -0.886434    21A     -0.841388
      22A     -0.802769    23A     -0.798810    24A     -0.741638
      25A     -0.740128    26A     -0.559999    27A     -0.334487
      28A     -0.280324    29A     -0.259525    30A     -0.228152
      31A     -0.185864    32A     -0.147107    33A     -0.143777
      34A     -0.112026    35A     -0.092671    36A     -0.088705
      37A     -0.063678    38A     -0.057522    39A     -0.042883
      40A     -0.037917    41A     -0.021962    42A      0.007506
      43A      0.021147    44A      0.022783    45A      0.025926
      46A      0.028378    47A      0.065217    48A      0.068659
      49A      0.093359

  @DF-RHF Final Energy: -1245.34475098318512

   => Energetics <=

    Nuclear Repulsion Energy =            820.4852632714201945
    One-Electron Energy =               -3406.1556060006037114
    Two-Electron Energy =                1340.3255917459985085
    Total Energy =                      -1245.3447509831851221
  Basis Set: (AUG-CC-PVTZ AUX)
    Blend: AUG-CC-PVTZ-RI
    Molecular point group: c1

    Geometry (in Angstrom), charge = -3, multiplicity = 1:

       Center              X                  Y                   Z               Mass
    ------------   -----------------  -----------------  -----------------  -----------------
         P            1.243145030972    -0.577777927504     0.010089607623    30.973761998420
         P           -1.784162969028     0.195555072496     0.004767607623    30.973761998420
         O            1.406015030972     1.047841072496    -0.371644392377    15.994914619570
         O           -0.338586969028    -0.800219927504    -0.194492392377    15.994914619570
         O            1.977374030972    -1.383725927504    -1.046723392377    15.994914619570
         O            1.666880030972    -0.752345927504     1.457351607623    15.994914619570
         O           -1.783215969028     1.122330072496    -1.217549392377    15.994914619570
         O           -1.606198969028     0.887031072496     1.365120607623    15.994914619570
         O           -2.846866969028    -0.910341927504    -0.027955392377    15.994914619570
         C            2.675895030972     1.596016072496    -0.007259392377    12.000000000000
         H            2.753421630972     1.664449772496     1.081041107623     1.007825032230
         H            3.483668630972     1.005358272496    -0.454243292377     1.007825032230
         H            2.725243030972     2.602512072496    -0.427328392377     1.007825032230

  Basis Set: AUG-CC-PVTZ
    Blend: AUG-CC-PVTZ
  Basis Set: (AUG-CC-PVTZ AUX)
    Blend: AUG-CC-PVTZ-JKFIT
	 Reference Energy          =   -1245.3447509831851221 [Eh]
	 Singles Energy            =      -0.0000000000000000 [Eh]
	 Same-Spin Energy          =      -0.6460233124554839 [Eh]
	 Opposite-Spin Energy      =      -1.8063380022609301 [Eh]
	 Correlation Energy        =      -2.4523613147164141 [Eh]
	 Total Energy              =   -1247.7971122979015490 [Eh]

	 ================> DF-SCS-MP2 Energies <==================
	-----------------------------------------------------------
	 SCS Same-Spin Scale       =       0.3333333333333333 [-]
	 SCS Opposite-Spin Scale   =       1.2000000000000000 [-]
	 SCS Same-Spin Energy      =      -0.2153411041518280 [Eh]
	 SCS Opposite-Spin Energy  =      -2.1676056027131159 [Eh]
	 SCS Correlation Energy    =      -2.3829467068649439 [Eh]
	 SCS Total Energy          =   -1247.7276976900500358 [Eh]
	-----------------------------------------------------------

  Dipole Moment: [D]
     X:     7.9121      Y:     2.3467      Z:    -0.4793     Total:     8.2667

*** Psi4 exiting successfully. Buy a developer a beer!
