                               Psi4 1.3.2 release

  ==> Input File <==

--------------------------------------------------------------------------
#psi4
#
memory 32 gb

molecule  {
-3 1
  P        1.1931290    -0.6069630     0.0087730
  P       -1.8341790     0.1663700     0.0034510
  O        1.3401631     1.0255327    -0.3493099
  O       -0.3886030    -0.8294050    -0.1958090
  O        1.9203782    -1.4352155    -1.0355472
  O        1.6168640    -0.7815310     1.4560350
  O       -1.8332320     1.0931450    -1.2188660
  O       -1.6562150     0.8578460     1.3638040
  O       -2.8968830    -0.9395270    -0.0292720
  C        2.6258790     1.5668310    -0.0085760
  H        2.7349980     1.6139230     1.0781470
  H        3.4479520     0.9704660    -0.4205400
  H        2.6752270     2.5733270    -0.4286450
units angstrom
no_reorient  #important for SAPT in psi4, default
symmetry c1  #important for SAPT in psi4, default
}

set PROPERTIES_ORIGIN ["COM"]
properties('MP2/aug-cc-pvtz', properties = ['dipole'])
--------------------------------------------------------------------------

    Molecular point group: c1
  Charge       = -3
  Multiplicity = 1
  Basis Set: AUG-CC-PVTZ
    Blend: AUG-CC-PVTZ
  Basis Set: (AUG-CC-PVTZ AUX)
    Blend: AUG-CC-PVTZ-JKFIT

    Orbital Energies [Eh]
    ---------------------

    Doubly Occupied:

       1A    -79.621695     2A    -79.558531     3A    -20.154683
       4A    -20.079438     5A    -20.055957     6A    -20.048898
       7A    -19.998920     8A    -19.998286     9A    -19.996626
      10A    -10.918357    11A     -7.135753    12A     -7.072341
      13A     -5.035053    14A     -5.033517    15A     -5.032753
      16A     -4.971899    17A     -4.969462    18A     -4.969330
      19A     -0.964611    20A     -0.885950    21A     -0.841330
      22A     -0.802010    23A     -0.798363    24A     -0.741326
      25A     -0.739630    26A     -0.561907    27A     -0.335929
      28A     -0.281595    29A     -0.254487    30A     -0.227916
      31A     -0.186857    32A     -0.146799    33A     -0.143577
      34A     -0.115741    35A     -0.091994    36A     -0.088254
      37A     -0.063558    38A     -0.056986    39A     -0.042336
      40A     -0.037953    41A     -0.023161    42A      0.008151
      43A      0.021699    44A      0.023130    45A      0.026317
      46A      0.028901    47A      0.065653    48A      0.069099
      49A      0.093753

  @DF-RHF Final Energy: -1245.34402945522629

   => Energetics <=

    Nuclear Repulsion Energy =            820.4998958898233923
    One-Electron Energy =               -3406.1937132438401932
    Two-Electron Energy =                1340.3497878987902823
    Total Energy =                      -1245.3440294552262912
  Basis Set: (AUG-CC-PVTZ AUX)
    Blend: AUG-CC-PVTZ-RI
    Molecular point group: c1

    Geometry (in Angstrom), charge = -3, multiplicity = 1:

       Center              X                  Y                   Z               Mass
    ------------   -----------------  -----------------  -----------------  -----------------
         P            1.244831767636    -0.576327553989     0.006851343763    30.973761998420
         P           -1.782476232364     0.197005446011     0.001529343763    30.973761998420
         O            1.391865867636     1.056168146011    -0.351231556237    15.994914619570
         O           -0.336900232364    -0.798769553989    -0.197730656237    15.994914619570
         O            1.972080967636    -1.404580053989    -1.037468856237    15.994914619570
         O            1.668566767636    -0.750895553989     1.454113343763    15.994914619570
         O           -1.781529232364     1.123780446011    -1.220787656237    15.994914619570
         O           -1.604512232364     0.888481446011     1.361882343763    15.994914619570
         O           -2.845180232364    -0.908891553989    -0.031193656237    15.994914619570
         C            2.677581767636     1.597466446011    -0.010497656237    12.000000000000
         H            2.786700767636     1.644558446011     1.076225343763     1.007825032230
         H            3.499654767636     1.001101446011    -0.422461656237     1.007825032230
         H            2.726929767636     2.603962446011    -0.430566656237     1.007825032230

  Basis Set: AUG-CC-PVTZ
    Blend: AUG-CC-PVTZ
  Basis Set: (AUG-CC-PVTZ AUX)
    Blend: AUG-CC-PVTZ-JKFIT
	 Reference Energy          =   -1245.3440294552262912 [Eh]
	 Singles Energy            =      -0.0000000000000000 [Eh]
	 Same-Spin Energy          =      -0.6461118321925812 [Eh]
	 Opposite-Spin Energy      =      -1.8065898522668942 [Eh]
	 Correlation Energy        =      -2.4527016844594751 [Eh]
	 Total Energy              =   -1247.7967311396857895 [Eh]

	 ================> DF-SCS-MP2 Energies <==================
	-----------------------------------------------------------
	 SCS Same-Spin Scale       =       0.3333333333333333 [-]
	 SCS Opposite-Spin Scale   =       1.2000000000000000 [-]
	 SCS Same-Spin Energy      =      -0.2153706107308604 [Eh]
	 SCS Opposite-Spin Energy  =      -2.1679078227202728 [Eh]
	 SCS Correlation Energy    =      -2.3832784334511334 [Eh]
	 SCS Total Energy          =   -1247.7273078886773874 [Eh]
	-----------------------------------------------------------

  Dipole Moment: [D]
     X:     7.9752      Y:     2.3851      Z:    -0.5295     Total:     8.3410

*** Psi4 exiting successfully. Buy a developer a beer!
