                               Psi4 1.3.2 release

  ==> Input File <==

--------------------------------------------------------------------------
#psi4
#
memory 32 gb

molecule  {
-3 1
  P        1.1931290    -0.6069630     0.0087730
  P       -1.8341790     0.1663700     0.0034510
  O        1.3559990     1.0186560    -0.3729610
  O       -0.3886030    -0.8294050    -0.1958090
  O        1.9273580    -1.4129110    -1.0480400
  O        1.6168640    -0.7815310     1.4560350
  O       -1.8332320     1.0931450    -1.2188660
  O       -1.6562150     0.8578460     1.3638040
  O       -2.8968830    -0.9395270    -0.0292720
  C        2.6258790     1.5668310    -0.0085760
  H        2.7250164     1.6096153     0.9787397
  H        3.4479520     0.9704660    -0.4205400
  H        2.6752270     2.5733270    -0.4286450
units angstrom
no_reorient  #important for SAPT in psi4, default
symmetry c1  #important for SAPT in psi4, default
}

set PROPERTIES_ORIGIN ["COM"]
properties('MP2/aug-cc-pvtz', properties = ['dipole'])
--------------------------------------------------------------------------

    Molecular point group: c1
  Charge       = -3
  Multiplicity = 1
  Basis Set: AUG-CC-PVTZ
    Blend: AUG-CC-PVTZ
  Basis Set: (AUG-CC-PVTZ AUX)
    Blend: AUG-CC-PVTZ-JKFIT

    Orbital Energies [Eh]
    ---------------------

    Doubly Occupied:

       1A    -79.621386     2A    -79.558791     3A    -20.150442
       4A    -20.080032     5A    -20.054124     6A    -20.050732
       7A    -19.998915     8A    -19.998506     9A    -19.997018
      10A    -10.904290    11A     -7.135414    12A     -7.072600
      13A     -5.034710    14A     -5.033207    15A     -5.032410
      16A     -4.972161    17A     -4.969717    18A     -4.969585
      19A     -0.964064    20A     -0.886065    21A     -0.841116
      22A     -0.802583    23A     -0.798526    24A     -0.741417
      25A     -0.739931    26A     -0.573261    27A     -0.337632
      28A     -0.283618    29A     -0.266369    30A     -0.226998
      31A     -0.187085    32A     -0.146747    33A     -0.144730
      34A     -0.114708    35A     -0.092345    36A     -0.088684
      37A     -0.065052    38A     -0.057288    39A     -0.042640
      40A     -0.037670    41A     -0.021553    42A      0.007889
      43A      0.021315    44A      0.023007    45A      0.026143
      46A      0.028642    47A      0.065428    48A      0.068884
      49A      0.093565

  @DF-RHF Final Energy: -1245.33887589052392

   => Energetics <=

    Nuclear Repulsion Energy =            820.9221499631357801
    One-Electron Energy =               -3407.0035483684387145
    Two-Electron Energy =                1340.7425225147790115
    Total Energy =                      -1245.3388758905239229
  Basis Set: (AUG-CC-PVTZ AUX)
    Blend: AUG-CC-PVTZ-RI
    Molecular point group: c1

    Geometry (in Angstrom), charge = -3, multiplicity = 1:

       Center              X                  Y                   Z               Mass
    ------------   -----------------  -----------------  -----------------  -----------------
         P            1.242953477678    -0.577610664163     0.010441479622    30.973761998420
         P           -1.784354522322     0.195722335837     0.005119479622    30.973761998420
         O            1.405823477678     1.048008335837    -0.371292520378    15.994914619570
         O           -0.338778522322    -0.800052664163    -0.194140520378    15.994914619570
         O            1.977182477678    -1.383558664163    -1.046371520378    15.994914619570
         O            1.666688477678    -0.752178664163     1.457703479622    15.994914619570
         O           -1.783407522322     1.122497335837    -1.217197520378    15.994914619570
         O           -1.606390522322     0.887198335837     1.365472479622    15.994914619570
         O           -2.847058522322    -0.910174664163    -0.027603520378    15.994914619570
         C            2.675703477678     1.596183335837    -0.006907520378    12.000000000000
         H            2.774840877678     1.638967635837     0.980408179622     1.007825032230
         H            3.497776477678     0.999818335837    -0.418871520378     1.007825032230
         H            2.725051477678     2.602679335837    -0.426976520378     1.007825032230

  Basis Set: AUG-CC-PVTZ
    Blend: AUG-CC-PVTZ
  Basis Set: (AUG-CC-PVTZ AUX)
    Blend: AUG-CC-PVTZ-JKFIT
	 Reference Energy          =   -1245.3388758905239229 [Eh]
	 Singles Energy            =      -0.0000000000000000 [Eh]
	 Same-Spin Energy          =      -0.6459094370898368 [Eh]
	 Opposite-Spin Energy      =      -1.8057120835420901 [Eh]
	 Correlation Energy        =      -2.4516215206319272 [Eh]
	 Total Energy              =   -1247.7904974111559113 [Eh]

	 ================> DF-SCS-MP2 Energies <==================
	-----------------------------------------------------------
	 SCS Same-Spin Scale       =       0.3333333333333333 [-]
	 SCS Opposite-Spin Scale   =       1.2000000000000000 [-]
	 SCS Same-Spin Energy      =      -0.2153031456966123 [Eh]
	 SCS Opposite-Spin Energy  =      -2.1668545002505080 [Eh]
	 SCS Correlation Energy    =      -2.3821576459471201 [Eh]
	 SCS Total Energy          =   -1247.7210335364709408 [Eh]
	-----------------------------------------------------------

  Dipole Moment: [D]
     X:     7.9730      Y:     2.3912      Z:    -0.4009     Total:     8.3335

*** Psi4 exiting successfully. Buy a developer a beer!
