                               Psi4 1.4a3.dev225

  ==> Input File <==

--------------------------------------------------------------------------
#psi4
#
memory 32 gb

molecule  {
-3 1
  P       -1.1253500     0.3591720     0.0081310
  P        2.0878660    -0.1053470     0.0007630
  O       -2.1391380    -1.0979190    -0.1147190
  O        0.2405970    -0.4148950    -0.1339660
  O       -1.5628960     1.1822930    -1.2021870
  O       -1.4752280     0.9069340     1.3887990
  O        2.4385690    -0.8874190     1.2758270
  O        2.2004337     1.4410607     0.0880349
  O        2.5676630    -0.7478960    -1.3107960
  C       -3.4907010    -0.7724380    -0.0147870
  H       -3.7335280    -0.2943150     0.9495100
  H       -3.8114220    -0.0788120    -0.8111520
  H       -4.0969940    -1.6975630    -0.1019980
units angstrom
no_reorient  #important for SAPT in psi4, default
symmetry c1  #important for SAPT in psi4, default
}

set PROPERTIES_ORIGIN ["COM"]
properties('MP2/aug-cc-pvtz', properties = ['dipole'])
--------------------------------------------------------------------------

    Molecular point group: c1
  Charge       = -3
  Multiplicity = 1
  Basis Set: AUG-CC-PVTZ
    Blend: AUG-CC-PVTZ
  Basis Set: (AUG-CC-PVTZ AUX)
    Blend: AUG-CC-PVTZ-JKFIT

    Orbital Energies [Eh]
    ---------------------

    Doubly Occupied:

       1A    -79.629360     2A    -79.589345     3A    -20.145705
       4A    -20.089700     5A    -20.056078     6A    -20.055708
       7A    -20.024552     8A    -20.024432     9A    -20.022669
      10A    -10.911348    11A     -7.142273    12A     -7.102027
      13A     -5.041719    14A     -5.039884    15A     -5.039045
      16A     -5.001770    17A     -4.998775    18A     -4.998597
      19A     -0.956153    20A     -0.887364    21A     -0.846493
      22A     -0.816013    23A     -0.801568    24A     -0.763717
      25A     -0.759234    26A     -0.542917    27A     -0.334998
      28A     -0.268940    29A     -0.246393    30A     -0.212604
      31A     -0.205039    32A     -0.157042    33A     -0.143495
      34A     -0.117701    35A     -0.098329    36A     -0.097205
      37A     -0.078453    38A     -0.053908    39A     -0.049158
      40A     -0.030329    41A     -0.014116    42A     -0.001707
      43A      0.001459    44A      0.004559    45A      0.008613
      46A      0.021656    47A      0.044316    48A      0.046912
      49A      0.070179

  @DF-RHF Final Energy: -1245.33939084150916

   => Energetics <=

    Nuclear Repulsion Energy =            796.1229866413234504
    One-Electron Energy =               -3356.5284219672357722
    Two-Electron Energy =                1315.0660444844033918
    Total Energy =                      -1245.3393908415091573
  Basis Set: (AUG-CC-PVTZ AUX)
    Blend: AUG-CC-PVTZ-RI
    Molecular point group: c1

    Geometry (in Angstrom), charge = -3, multiplicity = 1:

       Center              X                  Y                   Z               Mass
    ------------   -----------------  -----------------  -----------------  -----------------
         P           -1.191508878669     0.345313497670     0.008180681733    30.973761998420
         P            2.021707121331    -0.119205502330     0.000812681733    30.973761998420
         O           -2.205296878669    -1.111777502330    -0.114669318267    15.994914619570
         O            0.174438121331    -0.428753502330    -0.133916318267    15.994914619570
         O           -1.629054878669     1.168434497670    -1.202137318267    15.994914619570
         O           -1.541386878669     0.893075497670     1.388848681733    15.994914619570
         O            2.372410121331    -0.901277502330     1.275876681733    15.994914619570
         O            2.134274821331     1.427202197670     0.088084581733    15.994914619570
         O            2.501504121331    -0.761754502330    -1.310746318267    15.994914619570
         C           -3.556859878669    -0.786296502330    -0.014737318267    12.000000000000
         H           -3.799686878669    -0.308173502330     0.949559681733     1.007825032230
         H           -3.877580878669    -0.092670502330    -0.811102318267     1.007825032230
         H           -4.163152878669    -1.711421502330    -0.101948318267     1.007825032230

  Basis Set: AUG-CC-PVTZ
    Blend: AUG-CC-PVTZ
  Basis Set: (AUG-CC-PVTZ AUX)
    Blend: AUG-CC-PVTZ-JKFIT
	 Reference Energy          =   -1245.3393908415091573 [Eh]
	 Singles Energy            =      -0.0000000000000000 [Eh]
	 Same-Spin Energy          =      -0.6478718335961888 [Eh]
	 Opposite-Spin Energy      =      -1.8111633080482830 [Eh]
	 Correlation Energy        =      -2.4590351416444718 [Eh]
	 Total Energy              =   -1247.7984259831537202 [Eh]

	 ================> DF-SCS-MP2 Energies <==================
	-----------------------------------------------------------
	 SCS Same-Spin Scale       =       0.3333333333333333 [-]
	 SCS Opposite-Spin Scale   =       1.2000000000000000 [-]
	 SCS Same-Spin Energy      =      -0.2159572778653963 [Eh]
	 SCS Opposite-Spin Energy  =      -2.1733959696579395 [Eh]
	 SCS Correlation Energy    =      -2.3893532475233359 [Eh]
	 SCS Total Energy          =   -1247.7287440890324888 [Eh]
	-----------------------------------------------------------

  Dipole Moment: [D]
     X:    -7.7392      Y:    -1.9449      Z:    -0.1767     Total:     7.9818

*** Psi4 exiting successfully. Buy a developer a beer!
