                               Psi4 1.3.2 release

  ==> Input File <==

--------------------------------------------------------------------------
#psi4
#
memory 32 gb

molecule  {
-3 1
  P        1.1931290    -0.6069630     0.0087730
  P       -1.8341790     0.1663700     0.0034510
  O        1.3559990     1.0186560    -0.3729610
  O       -0.3886030    -0.8294050    -0.1958090
  O        1.9273580    -1.4129110    -1.0480400
  O        1.6168640    -0.7815310     1.4560350
  O       -1.8366814     1.0718506    -1.2347212
  O       -1.6577548     0.8339569     1.3758842
  O       -2.8968830    -0.9395270    -0.0292720
  C        2.6258790     1.5668310    -0.0085760
  H        2.7349980     1.6139230     1.0781470
  H        3.4479520     0.9704660    -0.4205400
  H        2.6752270     2.5733270    -0.4286450
units angstrom
no_reorient  #important for SAPT in psi4, default
symmetry c1  #important for SAPT in psi4, default
}

set PROPERTIES_ORIGIN ["COM"]
properties('MP2/aug-cc-pvtz', properties = ['dipole'])
--------------------------------------------------------------------------

    Molecular point group: c1
  Charge       = -3
  Multiplicity = 1
  Basis Set: AUG-CC-PVTZ
    Blend: AUG-CC-PVTZ
  Basis Set: (AUG-CC-PVTZ AUX)
    Blend: AUG-CC-PVTZ-JKFIT

    Orbital Energies [Eh]
    ---------------------

    Doubly Occupied:

       1A    -79.621595     2A    -79.559122     3A    -20.153102
       4A    -20.079442     5A    -20.054387     6A    -20.050508
       7A    -20.000830     8A    -19.998828     9A    -19.996452
      10A    -10.917299    11A     -7.135643    12A     -7.072946
      13A     -5.034954    14A     -5.033421    15A     -5.032627
      16A     -4.972524    17A     -4.970110    18A     -4.969871
      19A     -0.965298    20A     -0.886146    21A     -0.841337
      22A     -0.802583    23A     -0.798502    24A     -0.743145
      25A     -0.739393    26A     -0.560833    27A     -0.335842
      28A     -0.281827    29A     -0.254365    30A     -0.228558
      31A     -0.186926    32A     -0.147227    33A     -0.143420
      34A     -0.114454    35A     -0.092336    36A     -0.088838
      37A     -0.063440    38A     -0.057113    39A     -0.042950
      40A     -0.037578    41A     -0.022047    42A      0.007471
      43A      0.021126    44A      0.022692    45A      0.025874
      46A      0.028403    47A      0.066429    48A      0.067121
      49A      0.093058

  @DF-RHF Final Energy: -1245.34474987277054

   => Energetics <=

    Nuclear Repulsion Energy =            820.4700889018879479
    One-Electron Energy =               -3406.1183899952902721
    Two-Electron Energy =                1340.3035512206320163
    Total Energy =                      -1245.3447498727705351
  Basis Set: (AUG-CC-PVTZ AUX)
    Blend: AUG-CC-PVTZ-RI
    Molecular point group: c1

    Geometry (in Angstrom), charge = -3, multiplicity = 1:

       Center              X                  Y                   Z               Mass
    ------------   -----------------  -----------------  -----------------  -----------------
         P            1.243322609779    -0.573808492567     0.010230802521    30.973761998420
         P           -1.783985390221     0.199524507433     0.004908802521    30.973761998420
         O            1.406192609779     1.051810507433    -0.371503197479    15.994914619570
         O           -0.338409390221    -0.796250492567    -0.194351197479    15.994914619570
         O            1.977551609779    -1.379756492567    -1.046582197479    15.994914619570
         O            1.667057609779    -0.748376492567     1.457492802521    15.994914619570
         O           -1.786487790221     1.105005107433    -1.233263397479    15.994914619570
         O           -1.607561190221     0.867111407433     1.377342002521    15.994914619570
         O           -2.846689390221    -0.906372492567    -0.027814197479    15.994914619570
         C            2.676072609779     1.599985507433    -0.007118197479    12.000000000000
         H            2.785191609779     1.647077507433     1.079604802521     1.007825032230
         H            3.498145609779     1.003620507433    -0.419082197479     1.007825032230
         H            2.725420609779     2.606481507433    -0.427187197479     1.007825032230

  Basis Set: AUG-CC-PVTZ
    Blend: AUG-CC-PVTZ
  Basis Set: (AUG-CC-PVTZ AUX)
    Blend: AUG-CC-PVTZ-JKFIT
	 Reference Energy          =   -1245.3447498727705351 [Eh]
	 Singles Energy            =      -0.0000000000000000 [Eh]
	 Same-Spin Energy          =      -0.6460867677237616 [Eh]
	 Opposite-Spin Energy      =      -1.8064400128809490 [Eh]
	 Correlation Energy        =      -2.4525267806047104 [Eh]
	 Total Energy              =   -1247.7972766533753202 [Eh]

	 ================> DF-SCS-MP2 Energies <==================
	-----------------------------------------------------------
	 SCS Same-Spin Scale       =       0.3333333333333333 [-]
	 SCS Opposite-Spin Scale   =       1.2000000000000000 [-]
	 SCS Same-Spin Energy      =      -0.2153622559079205 [Eh]
	 SCS Opposite-Spin Energy  =      -2.1677280154571386 [Eh]
	 SCS Correlation Energy    =      -2.3830902713650590 [Eh]
	 SCS Total Energy          =   -1247.7278401441355982 [Eh]
	-----------------------------------------------------------

  Dipole Moment: [D]
     X:     7.9241      Y:     2.4430      Z:    -0.4626     Total:     8.3050

*** Psi4 exiting successfully. Buy a developer a beer!
