                               Psi4 1.3.2 release

  ==> Input File <==

--------------------------------------------------------------------------
#psi4
#
memory 32 gb

molecule  {
-3 1
  P        1.1931290    -0.6069630     0.0087730
  P       -1.8341790     0.1663700     0.0034510
  O        1.3589667     1.0199372    -0.3850172
  O       -0.3886030    -0.8294050    -0.1958090
  O        1.9273580    -1.4129110    -1.0480400
  O        1.6168640    -0.7815310     1.4560350
  O       -1.8332320     1.0931450    -1.2188660
  O       -1.6562150     0.8578460     1.3638040
  O       -2.8968830    -0.9395270    -0.0292720
  C        2.6258790     1.5668310    -0.0085760
  H        2.7437006     1.6176797     1.0770685
  H        3.4479520     0.9704660    -0.4205400
  H        2.6752270     2.5733270    -0.4286450
units angstrom
no_reorient  #important for SAPT in psi4, default
symmetry c1  #important for SAPT in psi4, default
}

set PROPERTIES_ORIGIN ["COM"]
properties('MP2/aug-cc-pvtz', properties = ['dipole'])
--------------------------------------------------------------------------

    Molecular point group: c1
  Charge       = -3
  Multiplicity = 1
  Basis Set: AUG-CC-PVTZ
    Blend: AUG-CC-PVTZ
  Basis Set: (AUG-CC-PVTZ AUX)
    Blend: AUG-CC-PVTZ-JKFIT

    Orbital Energies [Eh]
    ---------------------

    Doubly Occupied:

       1A    -79.622455     2A    -79.559193     3A    -20.153145
       4A    -20.080818     5A    -20.054550     6A    -20.051633
       7A    -19.999299     8A    -19.998860     9A    -19.997396
      10A    -10.916873    11A     -7.136448    12A     -7.073008
      13A     -5.035748    14A     -5.034227    15A     -5.033432
      16A     -4.972572    17A     -4.970123    18A     -4.969991
      19A     -0.964400    20A     -0.886795    21A     -0.841694
      22A     -0.803224    23A     -0.799026    24A     -0.741790
      25A     -0.740307    26A     -0.560252    27A     -0.336079
      28A     -0.282087    29A     -0.253360    30A     -0.227519
      31A     -0.187390    32A     -0.147261    33A     -0.143609
      34A     -0.114759    35A     -0.092853    36A     -0.088591
      37A     -0.063344    38A     -0.057757    39A     -0.043218
      40A     -0.038177    41A     -0.022156    42A      0.006909
      43A      0.020786    44A      0.022621    45A      0.025747
      46A      0.028146    47A      0.065039    48A      0.068469
      49A      0.093200

  @DF-RHF Final Energy: -1245.34498868501646

   => Energetics <=

    Nuclear Repulsion Energy =            820.2055886521387720
    One-Electron Energy =               -3405.5721470046223658
    Two-Electron Energy =                1340.0215696674670198
    Total Energy =                      -1245.3449886850164603
  Basis Set: (AUG-CC-PVTZ AUX)
    Blend: AUG-CC-PVTZ-RI
    Molecular point group: c1

    Geometry (in Angstrom), charge = -3, multiplicity = 1:

       Center              X                  Y                   Z               Mass
    ------------   -----------------  -----------------  -----------------  -----------------
         P            1.242602571961    -0.577762145508     0.010937626257    30.973761998420
         P           -1.784705428039     0.195570854492     0.005615626257    30.973761998420
         O            1.408440271961     1.049138054492    -0.382852573743    15.994914619570
         O           -0.339129428039    -0.800204145508    -0.193644373743    15.994914619570
         O            1.976831571961    -1.383710145508    -1.045875373743    15.994914619570
         O            1.666337571961    -0.752330145508     1.458199626257    15.994914619570
         O           -1.783758428039     1.122345854492    -1.216701373743    15.994914619570
         O           -1.606741428039     0.887046854492     1.365968626257    15.994914619570
         O           -2.847409428039    -0.910326145508    -0.027107373743    15.994914619570
         C            2.675352571961     1.596031854492    -0.006411373743    12.000000000000
         H            2.793174171961     1.646880554492     1.079233126257     1.007825032230
         H            3.497425571961     0.999666854492    -0.418375373743     1.007825032230
         H            2.724700571961     2.602527854492    -0.426480373743     1.007825032230

  Basis Set: AUG-CC-PVTZ
    Blend: AUG-CC-PVTZ
  Basis Set: (AUG-CC-PVTZ AUX)
    Blend: AUG-CC-PVTZ-JKFIT
	 Reference Energy          =   -1245.3449886850164603 [Eh]
	 Singles Energy            =      -0.0000000000000000 [Eh]
	 Same-Spin Energy          =      -0.6460837436888527 [Eh]
	 Opposite-Spin Energy      =      -1.8064927780631699 [Eh]
	 Correlation Energy        =      -2.4525765217520226 [Eh]
	 Total Energy              =   -1247.7975652067684678 [Eh]

	 ================> DF-SCS-MP2 Energies <==================
	-----------------------------------------------------------
	 SCS Same-Spin Scale       =       0.3333333333333333 [-]
	 SCS Opposite-Spin Scale   =       1.2000000000000000 [-]
	 SCS Same-Spin Energy      =      -0.2153612478962842 [Eh]
	 SCS Opposite-Spin Energy  =      -2.1677913336758037 [Eh]
	 SCS Correlation Energy    =      -2.3831525815720878 [Eh]
	 SCS Total Energy          =   -1247.7281412665886364 [Eh]
	-----------------------------------------------------------

  Dipole Moment: [D]
     X:     7.9004      Y:     2.3138      Z:    -0.4544     Total:     8.2448

*** Psi4 exiting successfully. Buy a developer a beer!
