                               Psi4 1.3.2 release

  ==> Input File <==

--------------------------------------------------------------------------
#psi4
#
memory 32 gb

molecule  {
-3 1
  P        1.1931290    -0.6069630     0.0087730
  P       -1.8341790     0.1663700     0.0034510
  O        1.3559990     1.0186560    -0.3729610
  O       -0.4704300    -0.7730390    -0.1845299
  O        1.9273580    -1.4129110    -1.0480400
  O        1.6168640    -0.7815310     1.4560350
  O       -1.8332320     1.0931450    -1.2188660
  O       -1.6562150     0.8578460     1.3638040
  O       -2.8968830    -0.9395270    -0.0292720
  C        2.6258790     1.5668310    -0.0085760
  H        2.7349980     1.6139230     1.0781470
  H        3.4479520     0.9704660    -0.4205400
  H        2.6752270     2.5733270    -0.4286450
units angstrom
no_reorient  #important for SAPT in psi4, default
symmetry c1  #important for SAPT in psi4, default
}

set PROPERTIES_ORIGIN ["COM"]
properties('MP2/aug-cc-pvtz', properties = ['dipole'])
--------------------------------------------------------------------------

    Molecular point group: c1
  Charge       = -3
  Multiplicity = 1
  Basis Set: AUG-CC-PVTZ
    Blend: AUG-CC-PVTZ
  Basis Set: (AUG-CC-PVTZ AUX)
    Blend: AUG-CC-PVTZ-JKFIT

    Orbital Energies [Eh]
    ---------------------

    Doubly Occupied:

       1A    -79.639744     2A    -79.543845     3A    -20.158554
       4A    -20.082017     5A    -20.069398     6A    -20.061643
       7A    -19.987534     8A    -19.987258     9A    -19.985733
      10A    -10.921305    11A     -7.152217    12A     -7.058665
      13A     -5.051579    14A     -5.049873    15A     -5.049233
      16A     -4.958362    17A     -4.955915    18A     -4.955764
      19A     -0.969892    20A     -0.889344    21A     -0.852187
      22A     -0.813907    23A     -0.787813    24A     -0.731763
      25A     -0.730311    26A     -0.565316    27A     -0.345752
      28A     -0.287113    29A     -0.258811    30A     -0.230805
      31A     -0.193894    32A     -0.149768    33A     -0.139837
      34A     -0.120161    35A     -0.095071    36A     -0.092451
      37A     -0.068234    38A     -0.057330    39A     -0.039428
      40A     -0.036763    41A     -0.030480    42A     -0.001785
      43A      0.013184    44A      0.029599    45A      0.033459
      46A      0.034974    47A      0.077226    48A      0.079833
      49A      0.103553

  @DF-RHF Final Energy: -1245.33715502911946

   => Energetics <=

    Nuclear Repulsion Energy =            821.2566548847628383
    One-Electron Energy =               -3407.6175655582728723
    Two-Electron Energy =                1341.0237556443908034
    Total Energy =                      -1245.3371550291194580
  Basis Set: (AUG-CC-PVTZ AUX)
    Blend: AUG-CC-PVTZ-RI
    Molecular point group: c1

    Geometry (in Angstrom), charge = -3, multiplicity = 1:

       Center              X                  Y                   Z               Mass
    ------------   -----------------  -----------------  -----------------  -----------------
         P            1.249827552957    -0.582405481643     0.008956350818    30.973761998420
         P           -1.777480447043     0.190927518357     0.003634350818    30.973761998420
         O            1.412697552957     1.043213518357    -0.372777649182    15.994914619570
         O           -0.413731447043    -0.748481481643    -0.184346549182    15.994914619570
         O            1.984056552957    -1.388353481643    -1.047856649182    15.994914619570
         O            1.673562552957    -0.756973481643     1.456218350818    15.994914619570
         O           -1.776533447043     1.117702518357    -1.218682649182    15.994914619570
         O           -1.599516447043     0.882403518357     1.363987350818    15.994914619570
         O           -2.840184447043    -0.914969481643    -0.029088649182    15.994914619570
         C            2.682577552957     1.591388518357    -0.008392649182    12.000000000000
         H            2.791696552957     1.638480518357     1.078330350818     1.007825032230
         H            3.504650552957     0.995023518357    -0.420356649182     1.007825032230
         H            2.731925552957     2.597884518357    -0.428461649182     1.007825032230

  Basis Set: AUG-CC-PVTZ
    Blend: AUG-CC-PVTZ
  Basis Set: (AUG-CC-PVTZ AUX)
    Blend: AUG-CC-PVTZ-JKFIT
	 Reference Energy          =   -1245.3371550291194580 [Eh]
	 Singles Energy            =      -0.0000000000000000 [Eh]
	 Same-Spin Energy          =      -0.6461797487651322 [Eh]
	 Opposite-Spin Energy      =      -1.8064916485397324 [Eh]
	 Correlation Energy        =      -2.4526713973048646 [Eh]
	 Total Energy              =   -1247.7898264264242698 [Eh]

	 ================> DF-SCS-MP2 Energies <==================
	-----------------------------------------------------------
	 SCS Same-Spin Scale       =       0.3333333333333333 [-]
	 SCS Opposite-Spin Scale   =       1.2000000000000000 [-]
	 SCS Same-Spin Energy      =      -0.2153932495883774 [Eh]
	 SCS Opposite-Spin Energy  =      -2.1677899782476788 [Eh]
	 SCS Correlation Energy    =      -2.3831832278360561 [Eh]
	 SCS Total Energy          =   -1247.7203382569555288 [Eh]
	-----------------------------------------------------------

  Dipole Moment: [D]
     X:     9.0665      Y:     1.9804      Z:    -0.5058     Total:     9.2940

*** Psi4 exiting successfully. Buy a developer a beer!
