                               Psi4 1.3.2 release

  ==> Input File <==

--------------------------------------------------------------------------
#psi4
#
memory 32 gb

molecule  {
-3 1
  P        1.1931290    -0.6069630     0.0087730
  P       -1.8341790     0.1663700     0.0034510
  O        1.3559990     1.0186560    -0.3729610
  O       -0.2903798    -0.8155917    -0.1831048
  O        1.9273580    -1.4129110    -1.0480400
  O        1.6168640    -0.7815310     1.4560350
  O       -1.8332320     1.0931450    -1.2188660
  O       -1.6562150     0.8578460     1.3638040
  O       -2.8968830    -0.9395270    -0.0292720
  C        2.6258790     1.5668310    -0.0085760
  H        2.7349980     1.6139230     1.0781470
  H        3.4479520     0.9704660    -0.4205400
  H        2.6752270     2.5733270    -0.4286450
units angstrom
no_reorient  #important for SAPT in psi4, default
symmetry c1  #important for SAPT in psi4, default
}

set PROPERTIES_ORIGIN ["COM"]
properties('MP2/aug-cc-pvtz', properties = ['dipole'])
--------------------------------------------------------------------------

    Molecular point group: c1
  Charge       = -3
  Multiplicity = 1
  Basis Set: AUG-CC-PVTZ
    Blend: AUG-CC-PVTZ
  Basis Set: (AUG-CC-PVTZ AUX)
    Blend: AUG-CC-PVTZ-JKFIT

    Orbital Energies [Eh]
    ---------------------

    Doubly Occupied:

       1A    -79.600650     2A    -79.572557     3A    -20.143946
       4A    -20.074996     5A    -20.041508     6A    -20.038359
       7A    -20.012101     8A    -20.009313     9A    -20.005735
      10A    -10.910665    11A     -7.117527    12A     -7.085934
      13A     -5.016865    14A     -5.015522    15A     -5.014253
      16A     -4.985529    17A     -4.982859    18A     -4.982697
      19A     -0.962070    20A     -0.895509    21A     -0.837187
      22A     -0.808054    23A     -0.791598    24A     -0.752010
      25A     -0.748489    26A     -0.553944    27A     -0.331215
      28A     -0.281942    29A     -0.247569    30A     -0.224591
      31A     -0.182821    32A     -0.151037    33A     -0.145321
      34A     -0.109408    35A     -0.094769    36A     -0.088043
      37A     -0.061798    38A     -0.060376    39A     -0.044878
      40A     -0.034356    41A     -0.013479    42A      0.012856
      43A      0.013454    44A      0.017426    45A      0.021868
      46A      0.036435    47A      0.053663    48A      0.060309
      49A      0.083820

  @DF-RHF Final Energy: -1245.34401463838185

   => Energetics <=

    Nuclear Repulsion Energy =            822.2156737791608521
    One-Electron Energy =               -3409.6560695489292812
    Two-Electron Energy =                1342.0963811313868064
    Total Energy =                      -1245.3440146383818501
  Basis Set: (AUG-CC-PVTZ AUX)
    Blend: AUG-CC-PVTZ-RI
    Molecular point group: c1

    Geometry (in Angstrom), charge = -3, multiplicity = 1:

       Center              X                  Y                   Z               Mass
    ------------   -----------------  -----------------  -----------------  -----------------
         P            1.234584842727    -0.578803050345     0.008835704541    30.973761998420
         P           -1.792723157273     0.194529949655     0.003513704541    30.973761998420
         O            1.397454842727     1.046815949655    -0.372898295459    15.994914619570
         O           -0.248923957273    -0.787431750345    -0.183042095459    15.994914619570
         O            1.968813842727    -1.384751050345    -1.047977295459    15.994914619570
         O            1.658319842727    -0.753371050345     1.456097704541    15.994914619570
         O           -1.791776157273     1.121304949655    -1.218803295459    15.994914619570
         O           -1.614759157273     0.886005949655     1.363866704541    15.994914619570
         O           -2.855427157273    -0.911367050345    -0.029209295459    15.994914619570
         C            2.667334842727     1.594990949655    -0.008513295459    12.000000000000
         H            2.776453842727     1.642082949655     1.078209704541     1.007825032230
         H            3.489407842727     0.998625949655    -0.420477295459     1.007825032230
         H            2.716682842727     2.601486949655    -0.428582295459     1.007825032230

  Basis Set: AUG-CC-PVTZ
    Blend: AUG-CC-PVTZ
  Basis Set: (AUG-CC-PVTZ AUX)
    Blend: AUG-CC-PVTZ-JKFIT
	 Reference Energy          =   -1245.3440146383818501 [Eh]
	 Singles Energy            =      -0.0000000000000000 [Eh]
	 Same-Spin Energy          =      -0.6453852615939657 [Eh]
	 Opposite-Spin Energy      =      -1.8045444294550723 [Eh]
	 Correlation Energy        =      -2.4499296910490380 [Eh]
	 Total Energy              =   -1247.7939443294308148 [Eh]

	 ================> DF-SCS-MP2 Energies <==================
	-----------------------------------------------------------
	 SCS Same-Spin Scale       =       0.3333333333333333 [-]
	 SCS Opposite-Spin Scale   =       1.2000000000000000 [-]
	 SCS Same-Spin Energy      =      -0.2151284205313219 [Eh]
	 SCS Opposite-Spin Energy  =      -2.1654533153460869 [Eh]
	 SCS Correlation Energy    =      -2.3805817358774086 [Eh]
	 SCS Total Energy          =   -1247.7245963742593631 [Eh]
	-----------------------------------------------------------

  Dipole Moment: [D]
     X:     6.7043      Y:     2.5081      Z:    -0.5036     Total:     7.1758

*** Psi4 exiting successfully. Buy a developer a beer!
