                               Psi4 1.3.2 release

  ==> Input File <==

--------------------------------------------------------------------------
#psi4
#
memory 32 gb

molecule  {
-3 1
  P        1.1931290    -0.6069630     0.0087730
  P       -1.8341790     0.1663700     0.0034510
  O        1.3559990     1.0186560    -0.3729610
  O       -0.3772300    -0.8632412    -0.2392278
  O        1.8805548    -1.4294046    -1.0666496
  O        1.6168640    -0.7815310     1.4560350
  O       -1.8332320     1.0931450    -1.2188660
  O       -1.6562150     0.8578460     1.3638040
  O       -2.8968830    -0.9395270    -0.0292720
  C        2.6258790     1.5668310    -0.0085760
  H        2.7349980     1.6139230     1.0781470
  H        3.4479520     0.9704660    -0.4205400
  H        2.6752270     2.5733270    -0.4286450
units angstrom
no_reorient  #important for SAPT in psi4, default
symmetry c1  #important for SAPT in psi4, default
}

set PROPERTIES_ORIGIN ["COM"]
properties('MP2/aug-cc-pvtz', properties = ['dipole'])
--------------------------------------------------------------------------

    Molecular point group: c1
  Charge       = -3
  Multiplicity = 1
  Basis Set: AUG-CC-PVTZ
    Blend: AUG-CC-PVTZ
  Basis Set: (AUG-CC-PVTZ AUX)
    Blend: AUG-CC-PVTZ-JKFIT

    Orbital Energies [Eh]
    ---------------------

    Doubly Occupied:

       1A    -79.619071     2A    -79.560721     3A    -20.154268
       4A    -20.076981     5A    -20.053286     6A    -20.049595
       7A    -20.001109     8A    -20.000243     9A    -19.999358
      10A    -10.918294    11A     -7.133377    12A     -7.074431
      13A     -5.032594    14A     -5.031213    15A     -5.030310
      16A     -4.973924    17A     -4.971506    18A     -4.971401
      19A     -0.965327    20A     -0.882598    21A     -0.838848
      22A     -0.803812    23A     -0.795771    24A     -0.742484
      25A     -0.742127    26A     -0.561625    27A     -0.332202
      28A     -0.277152    29A     -0.255247    30A     -0.228797
      31A     -0.187217    32A     -0.146762    33A     -0.141216
      34A     -0.114027    35A     -0.089762    36A     -0.087014
      37A     -0.063842    38A     -0.059047    39A     -0.042659
      40A     -0.035419    41A     -0.020134    42A      0.007062
      43A      0.020651    44A      0.022618    45A      0.024932
      46A      0.032089    47A      0.063525    48A      0.066955
      49A      0.091761

  @DF-RHF Final Energy: -1245.34109959695616

   => Energetics <=

    Nuclear Repulsion Energy =            819.4988461945156359
    One-Electron Energy =               -3404.2095386917440010
    Two-Electron Energy =                1339.3695929002724370
    Total Energy =                      -1245.3410995969561554
  Basis Set: (AUG-CC-PVTZ AUX)
    Blend: AUG-CC-PVTZ-RI
    Molecular point group: c1

    Geometry (in Angstrom), charge = -3, multiplicity = 1:

       Center              X                  Y                   Z               Mass
    ------------   -----------------  -----------------  -----------------  -----------------
         P            1.245899687406    -0.573372816518     0.015162425458    30.973761998420
         P           -1.781408312594     0.199960183482     0.009840425458    30.973761998420
         O            1.408769687406     1.052246183482    -0.366571574542    15.994914619570
         O           -0.324459312594    -0.829651016518    -0.232838374542    15.994914619570
         O            1.933325487406    -1.395814416518    -1.060260174542    15.994914619570
         O            1.669634687406    -0.747940816518     1.462424425458    15.994914619570
         O           -1.780461312594     1.126735183482    -1.212476574542    15.994914619570
         O           -1.603444312594     0.891436183482     1.370193425458    15.994914619570
         O           -2.844112312594    -0.905936816518    -0.022882574542    15.994914619570
         C            2.678649687406     1.600421183482    -0.002186574542    12.000000000000
         H            2.787768687406     1.647513183482     1.084536425458     1.007825032230
         H            3.500722687406     1.004056183482    -0.414150574542     1.007825032230
         H            2.727997687406     2.606917183482    -0.422255574542     1.007825032230

  Basis Set: AUG-CC-PVTZ
    Blend: AUG-CC-PVTZ
  Basis Set: (AUG-CC-PVTZ AUX)
    Blend: AUG-CC-PVTZ-JKFIT
	 Reference Energy          =   -1245.3410995969561554 [Eh]
	 Singles Energy            =      -0.0000000000000000 [Eh]
	 Same-Spin Energy          =      -0.6464851042436135 [Eh]
	 Opposite-Spin Energy      =      -1.8075590775420010 [Eh]
	 Correlation Energy        =      -2.4540441817856147 [Eh]
	 Total Energy              =   -1247.7951437787417035 [Eh]

	 ================> DF-SCS-MP2 Energies <==================
	-----------------------------------------------------------
	 SCS Same-Spin Scale       =       0.3333333333333333 [-]
	 SCS Opposite-Spin Scale   =       1.2000000000000000 [-]
	 SCS Same-Spin Energy      =      -0.2154950347478712 [Eh]
	 SCS Opposite-Spin Energy  =      -2.1690708930504012 [Eh]
	 SCS Correlation Energy    =      -2.3845659277982723 [Eh]
	 SCS Total Energy          =   -1247.7256655247545041 [Eh]
	-----------------------------------------------------------

  Dipole Moment: [D]
     X:     7.8479      Y:     2.4961      Z:    -0.3306     Total:     8.2420

*** Psi4 exiting successfully. Buy a developer a beer!
