                               Psi4 1.3.2 release

  ==> Input File <==

--------------------------------------------------------------------------
#psi4
#
memory 32 gb

molecule  {
-3 1
  P        1.1931290    -0.6069630     0.0087730
  P       -1.8341790     0.1663700     0.0034510
  O        1.3559990     1.0186560    -0.3729610
  O       -0.3886030    -0.8294050    -0.1958090
  O        1.9757139    -1.4659902    -1.1176410
  O        1.6168640    -0.7815310     1.4560350
  O       -1.8332320     1.0931450    -1.2188660
  O       -1.6562150     0.8578460     1.3638040
  O       -2.8968830    -0.9395270    -0.0292720
  C        2.6258790     1.5668310    -0.0085760
  H        2.7349980     1.6139230     1.0781470
  H        3.4479520     0.9704660    -0.4205400
  H        2.6752270     2.5733270    -0.4286450
units angstrom
no_reorient  #important for SAPT in psi4, default
symmetry c1  #important for SAPT in psi4, default
}

set PROPERTIES_ORIGIN ["COM"]
properties('MP2/aug-cc-pvtz', properties = ['dipole'])
--------------------------------------------------------------------------

    Molecular point group: c1
  Charge       = -3
  Multiplicity = 1
  Basis Set: AUG-CC-PVTZ
    Blend: AUG-CC-PVTZ
  Basis Set: (AUG-CC-PVTZ AUX)
    Blend: AUG-CC-PVTZ-JKFIT

    Orbital Energies [Eh]
    ---------------------

    Doubly Occupied:

       1A    -79.639035     2A    -79.562584     3A    -20.160042
       4A    -20.087976     5A    -20.059988     6A    -20.059369
       7A    -20.002028     8A    -20.001611     9A    -20.000555
      10A    -10.920256    11A     -7.150424    12A     -7.076437
      13A     -5.049905    14A     -5.048326    15A     -5.047027
      16A     -4.976035    17A     -4.973509    18A     -4.973382
      19A     -0.968854    20A     -0.888817    21A     -0.838286
      22A     -0.804892    23A     -0.780549    24A     -0.744510
      25A     -0.743324    26A     -0.564413    27A     -0.343459
      28A     -0.285390    29A     -0.257907    30A     -0.232888
      31A     -0.188261    32A     -0.148752    33A     -0.143171
      34A     -0.114909    35A     -0.096080    36A     -0.090191
      37A     -0.064581    38A     -0.057679    39A     -0.045863
      40A     -0.032761    41A     -0.018524    42A      0.007987
      43A      0.020155    44A      0.020457    45A      0.023294
      46A      0.027814    47A      0.062065    48A      0.065250
      49A      0.090392

  @DF-RHF Final Energy: -1245.33249727604743

   => Energetics <=

    Nuclear Repulsion Energy =            815.8187901734274874
    One-Electron Energy =               -3396.4523032312267787
    Two-Electron Energy =                1335.3010157817516301
    Total Energy =                      -1245.3324972760474338
  Basis Set: (AUG-CC-PVTZ AUX)
    Blend: AUG-CC-PVTZ-RI
    Molecular point group: c1

    Geometry (in Angstrom), charge = -3, multiplicity = 1:

       Center              X                  Y                   Z               Mass
    ------------   -----------------  -----------------  -----------------  -----------------
         P            1.238806514260    -0.573140057502     0.015803507487    30.973761998420
         P           -1.788501485740     0.200192942498     0.010481507487    30.973761998420
         O            1.401676514260     1.052478942498    -0.365930492513    15.994914619570
         O           -0.342925485740    -0.795582057502    -0.188778492513    15.994914619570
         O            2.021391414260    -1.432167257502    -1.110610492513    15.994914619570
         O            1.662541514260    -0.747708057502     1.463065507487    15.994914619570
         O           -1.787554485740     1.126967942498    -1.211835492513    15.994914619570
         O           -1.610537485740     0.891668942498     1.370834507487    15.994914619570
         O           -2.851205485740    -0.905704057502    -0.022241492513    15.994914619570
         C            2.671556514260     1.600653942498    -0.001545492513    12.000000000000
         H            2.780675514260     1.647745942498     1.085177507487     1.007825032230
         H            3.493629514260     1.004288942498    -0.413509492513     1.007825032230
         H            2.720904514260     2.607149942498    -0.421614492513     1.007825032230

  Basis Set: AUG-CC-PVTZ
    Blend: AUG-CC-PVTZ
  Basis Set: (AUG-CC-PVTZ AUX)
    Blend: AUG-CC-PVTZ-JKFIT
	 Reference Energy          =   -1245.3324972760474338 [Eh]
	 Singles Energy            =      -0.0000000000000000 [Eh]
	 Same-Spin Energy          =      -0.6478105569246695 [Eh]
	 Opposite-Spin Energy      =      -1.8110511180402495 [Eh]
	 Correlation Energy        =      -2.4588616749649193 [Eh]
	 Total Energy              =   -1247.7913589510123984 [Eh]

	 ================> DF-SCS-MP2 Energies <==================
	-----------------------------------------------------------
	 SCS Same-Spin Scale       =       0.3333333333333333 [-]
	 SCS Opposite-Spin Scale   =       1.2000000000000000 [-]
	 SCS Same-Spin Energy      =      -0.2159368523082232 [Eh]
	 SCS Opposite-Spin Energy  =      -2.1732613416482995 [Eh]
	 SCS Correlation Energy    =      -2.3891981939565228 [Eh]
	 SCS Total Energy          =   -1247.7216954700038514 [Eh]
	-----------------------------------------------------------

  Dipole Moment: [D]
     X:     7.5111      Y:     2.7442      Z:    -0.0079     Total:     7.9967

*** Psi4 exiting successfully. Buy a developer a beer!
