                               Psi4 1.3.2 release

  ==> Input File <==

--------------------------------------------------------------------------
#psi4
#
memory 32 gb

molecule  {
-3 1
  P        1.1931290    -0.6069630     0.0087730
  P       -1.8341790     0.1663700     0.0034510
  O        1.3559990     1.0186560    -0.3729610
  O       -0.3886030    -0.8294050    -0.1958090
  O        2.0240697    -1.5190695    -1.1872421
  O        1.6168640    -0.7815310     1.4560350
  O       -1.8332320     1.0931450    -1.2188660
  O       -1.6562150     0.8578460     1.3638040
  O       -2.8968830    -0.9395270    -0.0292720
  C        2.6258790     1.5668310    -0.0085760
  H        2.7349980     1.6139230     1.0781470
  H        3.4479520     0.9704660    -0.4205400
  H        2.6752270     2.5733270    -0.4286450
units angstrom
no_reorient  #important for SAPT in psi4, default
symmetry c1  #important for SAPT in psi4, default
}

set PROPERTIES_ORIGIN ["COM"]
properties('MP2/aug-cc-pvtz', properties = ['dipole'])
--------------------------------------------------------------------------

    Molecular point group: c1
  Charge       = -3
  Multiplicity = 1
  Basis Set: AUG-CC-PVTZ
    Blend: AUG-CC-PVTZ
  Basis Set: (AUG-CC-PVTZ AUX)
    Blend: AUG-CC-PVTZ-JKFIT

    Orbital Energies [Eh]
    ---------------------

    Doubly Occupied:

       1A    -79.651907     2A    -79.565786     3A    -20.166558
       4A    -20.094762     5A    -20.068355     6A    -20.063811
       7A    -20.004624     8A    -20.004253     9A    -20.003623
      10A    -10.923307    11A     -7.162070    12A     -7.079682
      13A     -5.061474    14A     -5.059902    15A     -5.058443
      16A     -4.979310    17A     -4.976716    18A     -4.976592
      19A     -0.973319    20A     -0.892967    21A     -0.841603
      22A     -0.809043    23A     -0.755921    24A     -0.747102
      25A     -0.746236    26A     -0.568027    27A     -0.350263
      28A     -0.288891    29A     -0.261519    30A     -0.237171
      31A     -0.190903    32A     -0.151310    33A     -0.143767
      34A     -0.117034    35A     -0.099334    36A     -0.092031
      37A     -0.067275    38A     -0.058177    39A     -0.046745
      40A     -0.029087    41A     -0.017530    42A      0.010170
      43A      0.017850    44A      0.019366    45A      0.023849
      46A      0.028937    47A      0.059212    48A      0.062192
      49A      0.087693

  @DF-RHF Final Energy: -1245.31058519822136

   => Energetics <=

    Nuclear Repulsion Energy =            811.5729723913227645
    One-Electron Energy =               -3387.6127976332954859
    Two-Electron Energy =                1330.7292400437513606
    Total Energy =                      -1245.3105851982213608
  Basis Set: (AUG-CC-PVTZ AUX)
    Blend: AUG-CC-PVTZ-RI
    Molecular point group: c1

    Geometry (in Angstrom), charge = -3, multiplicity = 1:

       Center              X                  Y                   Z               Mass
    ------------   -----------------  -----------------  -----------------  -----------------
         P            1.234712803465    -0.568646464109     0.021695805296    30.973761998420
         P           -1.792595196535     0.204686535891     0.016373805296    30.973761998420
         O            1.397582803465     1.056972535891    -0.360038194704    15.994914619570
         O           -0.347019196535    -0.791088464109    -0.182886194704    15.994914619570
         O            2.065653503465    -1.480752964109    -1.174319294704    15.994914619570
         O            1.658447803465    -0.743214464109     1.468957805296    15.994914619570
         O           -1.791648196535     1.131461535891    -1.205943194704    15.994914619570
         O           -1.614631196535     0.896162535891     1.376726805296    15.994914619570
         O           -2.855299196535    -0.901210464109    -0.016349194704    15.994914619570
         C            2.667462803465     1.605147535891     0.004346805296    12.000000000000
         H            2.776581803465     1.652239535891     1.091069805296     1.007825032230
         H            3.489535803465     1.008782535891    -0.407617194704     1.007825032230
         H            2.716810803465     2.611643535891    -0.415722194704     1.007825032230

  Basis Set: AUG-CC-PVTZ
    Blend: AUG-CC-PVTZ
  Basis Set: (AUG-CC-PVTZ AUX)
    Blend: AUG-CC-PVTZ-JKFIT
	 Reference Energy          =   -1245.3105851982213608 [Eh]
	 Singles Energy            =      -0.0000000000000000 [Eh]
	 Same-Spin Energy          =      -0.6494008241362514 [Eh]
	 Opposite-Spin Energy      =      -1.8156025488311687 [Eh]
	 Correlation Energy        =      -2.4650033729674199 [Eh]
	 Total Energy              =   -1247.7755885711887913 [Eh]

	 ================> DF-SCS-MP2 Energies <==================
	-----------------------------------------------------------
	 SCS Same-Spin Scale       =       0.3333333333333333 [-]
	 SCS Opposite-Spin Scale   =       1.2000000000000000 [-]
	 SCS Same-Spin Energy      =      -0.2164669413787505 [Eh]
	 SCS Opposite-Spin Energy  =      -2.1787230585974022 [Eh]
	 SCS Correlation Energy    =      -2.3951899999761528 [Eh]
	 SCS Total Energy          =   -1247.7057751981974434 [Eh]
	-----------------------------------------------------------

  Dipole Moment: [D]
     X:     7.1049      Y:     3.1592      Z:     0.4592     Total:     7.7892

*** Psi4 exiting successfully. Buy a developer a beer!
