                               Psi4 1.3.2 release

  ==> Input File <==

--------------------------------------------------------------------------
#psi4
#
memory 32 gb

molecule  {
-3 1
  P        1.1931290    -0.6069630     0.0087730
  P       -1.8341790     0.1663700     0.0034510
  O        1.3531280     1.0174165    -0.3608771
  O       -0.3886030    -0.8294050    -0.1958090
  O        1.9273580    -1.4129110    -1.0480400
  O        1.6168640    -0.7815310     1.4560350
  O       -1.8332320     1.0931450    -1.2188660
  O       -1.6562150     0.8578460     1.3638040
  O       -2.8968830    -0.9395270    -0.0292720
  C        2.6258790     1.5668310    -0.0085760
  H        2.7262871     1.6101627     1.0791427
  H        3.4479520     0.9704660    -0.4205400
  H        2.6752270     2.5733270    -0.4286450
units angstrom
no_reorient  #important for SAPT in psi4, default
symmetry c1  #important for SAPT in psi4, default
}

set PROPERTIES_ORIGIN ["COM"]
properties('MP2/aug-cc-pvtz', properties = ['dipole'])
--------------------------------------------------------------------------

    Molecular point group: c1
  Charge       = -3
  Multiplicity = 1
  Basis Set: AUG-CC-PVTZ
    Blend: AUG-CC-PVTZ
  Basis Set: (AUG-CC-PVTZ AUX)
    Blend: AUG-CC-PVTZ-JKFIT

    Orbital Energies [Eh]
    ---------------------

    Doubly Occupied:

       1A    -79.621525     2A    -79.558951     3A    -20.152583
       4A    -20.080226     5A    -20.054868     6A    -20.049977
       7A    -19.999185     8A    -19.998641     9A    -19.997074
      10A    -10.917279    11A     -7.135612    12A     -7.072762
      13A     -5.034928    14A     -5.033403    15A     -5.032596
      16A     -4.972324    17A     -4.969878    18A     -4.969747
      19A     -0.965963    20A     -0.886343    21A     -0.841280
      22A     -0.802557    23A     -0.798756    24A     -0.741626
      25A     -0.740031    26A     -0.560972    27A     -0.336106
      28A     -0.282098    29A     -0.254972    30A     -0.229160
      31A     -0.186685    32A     -0.147176    33A     -0.143696
      34A     -0.114117    35A     -0.092636    36A     -0.088616
      37A     -0.063075    38A     -0.057482    39A     -0.042860
      40A     -0.037870    41A     -0.022177    42A      0.007780
      43A      0.021315    44A      0.022807    45A      0.025984
      46A      0.028476    47A      0.065270    48A      0.068726
      49A      0.093412

  @DF-RHF Final Energy: -1245.34533340539679

   => Energetics <=

    Nuclear Repulsion Energy =            820.6655311802128381
    One-Electron Energy =               -3406.5136406380656808
    Two-Electron Energy =                1340.5027760524560563
    Total Energy =                      -1245.3453334053967865
  Basis Set: (AUG-CC-PVTZ AUX)
    Blend: AUG-CC-PVTZ-RI
    Molecular point group: c1

    Geometry (in Angstrom), charge = -3, multiplicity = 1:

       Center              X                  Y                   Z               Mass
    ------------   -----------------  -----------------  -----------------  -----------------
         P            1.243189752914    -0.577508650389     0.008882906675    30.973761998420
         P           -1.784118247086     0.195824349611     0.003560906675    30.973761998420
         O            1.403188752914     1.046870849611    -0.360767193325    15.994914619570
         O           -0.338542247086    -0.799950650389    -0.195699093325    15.994914619570
         O            1.977418752914    -1.383456650389    -1.047930093325    15.994914619570
         O            1.666924752914    -0.752076650389     1.456144906675    15.994914619570
         O           -1.783171247086     1.122599349611    -1.218756093325    15.994914619570
         O           -1.606154247086     0.887300349611     1.363913906675    15.994914619570
         O           -2.846822247086    -0.910072650389    -0.029162093325    15.994914619570
         C            2.675939752914     1.596285349611    -0.008466093325    12.000000000000
         H            2.776347852914     1.639617049611     1.079252606675     1.007825032230
         H            3.498012752914     0.999920349611    -0.420430093325     1.007825032230
         H            2.725287752914     2.602781349611    -0.428535093325     1.007825032230

  Basis Set: AUG-CC-PVTZ
    Blend: AUG-CC-PVTZ
  Basis Set: (AUG-CC-PVTZ AUX)
    Blend: AUG-CC-PVTZ-JKFIT
	 Reference Energy          =   -1245.3453334053967865 [Eh]
	 Singles Energy            =      -0.0000000000000000 [Eh]
	 Same-Spin Energy          =      -0.6459924720660697 [Eh]
	 Opposite-Spin Energy      =      -1.8061993847753977 [Eh]
	 Correlation Energy        =      -2.4521918568414671 [Eh]
	 Total Energy              =   -1247.7975252622381959 [Eh]

	 ================> DF-SCS-MP2 Energies <==================
	-----------------------------------------------------------
	 SCS Same-Spin Scale       =       0.3333333333333333 [-]
	 SCS Opposite-Spin Scale   =       1.2000000000000000 [-]
	 SCS Same-Spin Energy      =      -0.2153308240220232 [Eh]
	 SCS Opposite-Spin Energy  =      -2.1674392617304772 [Eh]
	 SCS Correlation Energy    =      -2.3827700857525005 [Eh]
	 SCS Total Energy          =   -1247.7281034911493407 [Eh]
	-----------------------------------------------------------

  Dipole Moment: [D]
     X:     7.9245      Y:     2.3501      Z:    -0.4894     Total:     8.2801

*** Psi4 exiting successfully. Buy a developer a beer!
