                               Psi4 1.4a3.dev225

  ==> Input File <==

--------------------------------------------------------------------------
#psi4
#
memory 32 gb

molecule  {
-3 1
  P       -1.1253500     0.3591720     0.0081310
  P        2.0878660    -0.1053470     0.0007630
  O       -2.1391380    -1.0979190    -0.1147190
  O        0.2405970    -0.4148950    -0.1339660
  O       -1.5628960     1.1822930    -1.2021870
  O       -1.4752280     0.9069340     1.3887990
  O        2.4271556    -0.8619670     1.2343309
  O        2.1989840     1.4211450     0.0869110
  O        2.5676630    -0.7478960    -1.3107960
  C       -3.4907010    -0.7724380    -0.0147870
  H       -3.7335280    -0.2943150     0.9495100
  H       -3.8114220    -0.0788120    -0.8111520
  H       -4.0969940    -1.6975630    -0.1019980
units angstrom
no_reorient  #important for SAPT in psi4, default
symmetry c1  #important for SAPT in psi4, default
}

set PROPERTIES_ORIGIN ["COM"]
properties('MP2/aug-cc-pvtz', properties = ['dipole'])
--------------------------------------------------------------------------

    Molecular point group: c1
  Charge       = -3
  Multiplicity = 1
  Basis Set: AUG-CC-PVTZ
    Blend: AUG-CC-PVTZ
  Basis Set: (AUG-CC-PVTZ AUX)
    Blend: AUG-CC-PVTZ-JKFIT

    Orbital Energies [Eh]
    ---------------------

    Doubly Occupied:

       1A    -79.627300     2A    -79.575611     3A    -20.144400
       4A    -20.085449     5A    -20.054513     6A    -20.054494
       7A    -20.019889     8A    -20.017875     9A    -20.016880
      10A    -10.910385    11A     -7.140226    12A     -7.090861
      13A     -5.039685    14A     -5.037810    15A     -5.037016
      16A     -4.990398    17A     -4.987876    18A     -4.987326
      19A     -0.954707    20A     -0.886827    21A     -0.851355
      22A     -0.816928    23A     -0.800193    24A     -0.770219
      25A     -0.758798    26A     -0.541879    27A     -0.332385
      28A     -0.266623    29A     -0.245353    30A     -0.210842
      31A     -0.202753    32A     -0.156472    33A     -0.141663
      34A     -0.116772    35A     -0.099097    36A     -0.098575
      37A     -0.079329    38A     -0.052783    39A     -0.047948
      40A     -0.028962    41A     -0.012800    42A     -0.004619
      43A      0.001289    44A      0.004002    45A      0.008777
      46A      0.022608    47A      0.044819    48A      0.048604
      49A      0.072966

  @DF-RHF Final Energy: -1245.34312609304993

   => Energetics <=

    Nuclear Repulsion Energy =            799.2287552493390876
    One-Electron Energy =               -3362.9581402231151515
    Two-Electron Energy =                1318.3862588807262455
    Total Energy =                      -1245.3431260930499320
  Basis Set: (AUG-CC-PVTZ AUX)
    Blend: AUG-CC-PVTZ-RI
    Molecular point group: c1

    Geometry (in Angstrom), charge = -3, multiplicity = 1:

       Center              X                  Y                   Z               Mass
    ------------   -----------------  -----------------  -----------------  -----------------
         P           -1.190419912892     0.344844804958     0.011788810521    30.973761998420
         P            2.022796087108    -0.119674195042     0.004420810521    30.973761998420
         O           -2.204207912892    -1.112246195042    -0.111061189479    15.994914619570
         O            0.175527087108    -0.429222195042    -0.130308189479    15.994914619570
         O           -1.627965912892     1.167965804958    -1.198529189479    15.994914619570
         O           -1.540297912892     0.892606804958     1.392456810521    15.994914619570
         O            2.362085687108    -0.876294195042     1.237988710521    15.994914619570
         O            2.133914087108     1.406817804958     0.090568810521    15.994914619570
         O            2.502593087108    -0.762223195042    -1.307138189479    15.994914619570
         C           -3.555770912892    -0.786765195042    -0.011129189479    12.000000000000
         H           -3.798597912892    -0.308642195042     0.953167810521     1.007825032230
         H           -3.876491912892    -0.093139195042    -0.807494189479     1.007825032230
         H           -4.162063912892    -1.711890195042    -0.098340189479     1.007825032230

  Basis Set: AUG-CC-PVTZ
    Blend: AUG-CC-PVTZ
  Basis Set: (AUG-CC-PVTZ AUX)
    Blend: AUG-CC-PVTZ-JKFIT
	 Reference Energy          =   -1245.3431260930499320 [Eh]
	 Singles Energy            =      -0.0000000000000000 [Eh]
	 Same-Spin Energy          =      -0.6465502558434806 [Eh]
	 Opposite-Spin Energy      =      -1.8077391725283847 [Eh]
	 Correlation Energy        =      -2.4542894283718653 [Eh]
	 Total Energy              =   -1247.7974155214217262 [Eh]

	 ================> DF-SCS-MP2 Energies <==================
	-----------------------------------------------------------
	 SCS Same-Spin Scale       =       0.3333333333333333 [-]
	 SCS Opposite-Spin Scale   =       1.2000000000000000 [-]
	 SCS Same-Spin Energy      =      -0.2155167519478269 [Eh]
	 SCS Opposite-Spin Energy  =      -2.1692870070340615 [Eh]
	 SCS Correlation Energy    =      -2.3848037589818882 [Eh]
	 SCS Total Energy          =   -1247.7279298520318207 [Eh]
	-----------------------------------------------------------

  Dipole Moment: [D]
     X:    -7.5674      Y:    -2.0001      Z:     0.1235     Total:     7.8282

*** Psi4 exiting successfully. Buy a developer a beer!
