                               Psi4 1.3.2 release

  ==> Input File <==

--------------------------------------------------------------------------
#psi4
#
memory 32 gb

molecule  {
-3 1
  P        1.1931290    -0.6069630     0.0087730
  P       -1.8341790     0.1663700     0.0034510
  O        1.3559990     1.0186560    -0.3729610
  O       -0.3886030    -0.8294050    -0.1958090
  O        1.9273580    -1.4129110    -1.0480400
  O        1.6168640    -0.7815310     1.4560350
  O       -1.8536485     1.0792130    -1.2291520
  O       -1.6562150     0.8578460     1.3638040
  O       -2.9052609    -0.9304493    -0.0530266
  C        2.6258790     1.5668310    -0.0085760
  H        2.7349980     1.6139230     1.0781470
  H        3.4479520     0.9704660    -0.4205400
  H        2.6752270     2.5733270    -0.4286450
units angstrom
no_reorient  #important for SAPT in psi4, default
symmetry c1  #important for SAPT in psi4, default
}

set PROPERTIES_ORIGIN ["COM"]
properties('MP2/aug-cc-pvtz', properties = ['dipole'])
--------------------------------------------------------------------------

    Molecular point group: c1
  Charge       = -3
  Multiplicity = 1
  Basis Set: AUG-CC-PVTZ
    Blend: AUG-CC-PVTZ
  Basis Set: (AUG-CC-PVTZ AUX)
    Blend: AUG-CC-PVTZ-JKFIT

    Orbital Energies [Eh]
    ---------------------

    Doubly Occupied:

       1A    -79.622681     2A    -79.559040     3A    -20.153611
       4A    -20.081613     5A    -20.055221     6A    -20.051445
       7A    -19.999525     8A    -19.997540     9A    -19.997076
      10A    -10.917661    11A     -7.136725    12A     -7.072852
      13A     -5.036032    14A     -5.034513    15A     -5.033704
      16A     -4.972399    17A     -4.970014    18A     -4.969793
      19A     -0.965919    20A     -0.887211    21A     -0.841792
      22A     -0.803480    23A     -0.799326    24A     -0.741934
      25A     -0.739094    26A     -0.561225    27A     -0.336784
      28A     -0.282704    29A     -0.254764    30A     -0.229057
      31A     -0.187467    32A     -0.147594    33A     -0.144088
      34A     -0.115040    35A     -0.092536    36A     -0.089233
      37A     -0.063749    38A     -0.058016    39A     -0.043010
      40A     -0.038606    41A     -0.022724    42A      0.006662
      43A      0.020566    44A      0.022888    45A      0.026516
      46A      0.027667    47A      0.065465    48A      0.068748
      49A      0.093896

  @DF-RHF Final Energy: -1245.34515085619705

   => Energetics <=

    Nuclear Repulsion Energy =            820.1452013510602228
    One-Electron Energy =               -3405.4319250514458872
    Two-Electron Energy =                1339.9415728441886131
    Total Energy =                      -1245.3451508561970513
  Basis Set: (AUG-CC-PVTZ AUX)
    Blend: AUG-CC-PVTZ-RI
    Molecular point group: c1

    Geometry (in Angstrom), charge = -3, multiplicity = 1:

       Center              X                  Y                   Z               Mass
    ------------   -----------------  -----------------  -----------------  -----------------
         P            1.245337913098    -0.577222686550     0.012793031115    30.973761998420
         P           -1.781970086902     0.196110313450     0.007471031115    30.973761998420
         O            1.408207913098     1.048396313450    -0.368940968885    15.994914619570
         O           -0.336394086902    -0.799664686550    -0.191788968885    15.994914619570
         O            1.979566913098    -1.383170686550    -1.044019968885    15.994914619570
         O            1.669072913098    -0.751790686550     1.460055031115    15.994914619570
         O           -1.801439586902     1.108953313450    -1.225131968885    15.994914619570
         O           -1.604006086902     0.887586313450     1.367824031115    15.994914619570
         O           -2.853051986902    -0.900708986550    -0.049006568885    15.994914619570
         C            2.678087913098     1.596571313450    -0.004555968885    12.000000000000
         H            2.787206913098     1.643663313450     1.082167031115     1.007825032230
         H            3.500160913098     1.000206313450    -0.416519968885     1.007825032230
         H            2.727435913098     2.603067313450    -0.424624968885     1.007825032230

  Basis Set: AUG-CC-PVTZ
    Blend: AUG-CC-PVTZ
  Basis Set: (AUG-CC-PVTZ AUX)
    Blend: AUG-CC-PVTZ-JKFIT
	 Reference Energy          =   -1245.3451508561970513 [Eh]
	 Singles Energy            =      -0.0000000000000000 [Eh]
	 Same-Spin Energy          =      -0.6460065402054425 [Eh]
	 Opposite-Spin Energy      =      -1.8062965147420229 [Eh]
	 Correlation Energy        =      -2.4523030549474654 [Eh]
	 Total Energy              =   -1247.7974539111444301 [Eh]

	 ================> DF-SCS-MP2 Energies <==================
	-----------------------------------------------------------
	 SCS Same-Spin Scale       =       0.3333333333333333 [-]
	 SCS Opposite-Spin Scale   =       1.2000000000000000 [-]
	 SCS Same-Spin Energy      =      -0.2153355134018141 [Eh]
	 SCS Opposite-Spin Energy  =      -2.1675558176904275 [Eh]
	 SCS Correlation Energy    =      -2.3828913310922415 [Eh]
	 SCS Total Energy          =   -1247.7280421872892475 [Eh]
	-----------------------------------------------------------

  Dipole Moment: [D]
     X:     8.0037      Y:     2.3462      Z:    -0.3774     Total:     8.3491

*** Psi4 exiting successfully. Buy a developer a beer!
