                               Psi4 1.3.2 release

  ==> Input File <==

--------------------------------------------------------------------------
#psi4
#
memory 32 gb

molecule  {
-3 1
  P        1.1931290    -0.6069630     0.0087730
  P       -1.8341790     0.1663700     0.0034510
  O        1.3559990     1.0186560    -0.3729610
  O       -0.3886030    -0.8294050    -0.1958090
  O        1.9273580    -1.4129110    -1.0480400
  O        1.6168640    -0.7815310     1.4560350
  O       -1.8332320     1.0931450    -1.2188660
  O       -1.6562150     0.8578460     1.3638040
  O       -2.8968830    -0.9395270    -0.0292720
  C        2.7146608     1.6051559     0.0168994
  H        2.7349980     1.6139230     1.0781470
  H        3.4479520     0.9704660    -0.4205400
  H        2.6752270     2.5733270    -0.4286450
units angstrom
no_reorient  #important for SAPT in psi4, default
symmetry c1  #important for SAPT in psi4, default
}

set PROPERTIES_ORIGIN ["COM"]
properties('MP2/aug-cc-pvtz', properties = ['dipole'])
--------------------------------------------------------------------------

    Molecular point group: c1
  Charge       = -3
  Multiplicity = 1
  Basis Set: AUG-CC-PVTZ
    Blend: AUG-CC-PVTZ
  Basis Set: (AUG-CC-PVTZ AUX)
    Blend: AUG-CC-PVTZ-JKFIT

    Orbital Energies [Eh]
    ---------------------

    Doubly Occupied:

       1A    -79.617883     2A    -79.557497     3A    -20.147866
       4A    -20.078140     5A    -20.051923     6A    -20.048194
       7A    -19.997632     8A    -19.997401     9A    -19.995711
      10A    -10.915467    11A     -7.131872    12A     -7.071294
      13A     -5.031096    14A     -5.029722    15A     -5.028923
      16A     -4.970852    17A     -4.968418    18A     -4.968285
      19A     -0.941347    20A     -0.876528    21A     -0.837688
      22A     -0.800241    23A     -0.796910    24A     -0.740204
      25A     -0.738646    26A     -0.574630    27A     -0.325883
      28A     -0.280354    29A     -0.262119    30A     -0.217038
      31A     -0.179846    32A     -0.148363    33A     -0.144003
      34A     -0.111782    35A     -0.090434    36A     -0.086982
      37A     -0.064812    38A     -0.055231    39A     -0.040530
      40A     -0.035786    41A     -0.018319    42A      0.010759
      43A      0.023166    44A      0.024261    45A      0.027587
      46A      0.030343    47A      0.066708    48A      0.070264
      49A      0.094791

  @DF-RHF Final Energy: -1245.33215558738607

   => Energetics <=

    Nuclear Repulsion Energy =            818.0331500768107844
    One-Electron Energy =               -3401.4746663466107748
    Two-Electron Energy =                1338.1093606824140352
    Total Energy =                      -1245.3321555873860689
  Basis Set: (AUG-CC-PVTZ AUX)
    Blend: AUG-CC-PVTZ-RI
    Molecular point group: c1

    Geometry (in Angstrom), charge = -3, multiplicity = 1:

       Center              X                  Y                   Z               Mass
    ------------   -----------------  -----------------  -----------------  -----------------
         P            1.237261366522    -0.580067801388     0.008293179398    30.973761998420
         P           -1.790046633478     0.193265198612     0.002971179398    30.973761998420
         O            1.400131366522     1.045551198612    -0.373440820602    15.994914619570
         O           -0.344470633478    -0.802509801388    -0.196288820602    15.994914619570
         O            1.971490366522    -1.386015801388    -1.048519820602    15.994914619570
         O            1.660996366522    -0.754635801388     1.455555179398    15.994914619570
         O           -1.789099633478     1.120040198612    -1.219345820602    15.994914619570
         O           -1.612082633478     0.884741198612     1.363324179398    15.994914619570
         O           -2.852750633478    -0.912631801388    -0.029751820602    15.994914619570
         C            2.758793166522     1.632051098612     0.016419579398    12.000000000000
         H            2.779130366522     1.640818198612     1.077667179398     1.007825032230
         H            3.492084366522     0.997361198612    -0.421019820602     1.007825032230
         H            2.719359366522     2.600222198612    -0.429124820602     1.007825032230

  Basis Set: AUG-CC-PVTZ
    Blend: AUG-CC-PVTZ
  Basis Set: (AUG-CC-PVTZ AUX)
    Blend: AUG-CC-PVTZ-JKFIT
	 Reference Energy          =   -1245.3321555873860689 [Eh]
	 Singles Energy            =      -0.0000000000000000 [Eh]
	 Same-Spin Energy          =      -0.6464790105402218 [Eh]
	 Opposite-Spin Energy      =      -1.8084285872602650 [Eh]
	 Correlation Energy        =      -2.4549075978004868 [Eh]
	 Total Energy              =   -1247.7870631851865255 [Eh]

	 ================> DF-SCS-MP2 Energies <==================
	-----------------------------------------------------------
	 SCS Same-Spin Scale       =       0.3333333333333333 [-]
	 SCS Opposite-Spin Scale   =       1.2000000000000000 [-]
	 SCS Same-Spin Energy      =      -0.2154930035134073 [Eh]
	 SCS Opposite-Spin Energy  =      -2.1701143047123179 [Eh]
	 SCS Correlation Energy    =      -2.3856073082257252 [Eh]
	 SCS Total Energy          =   -1247.7177628956117132 [Eh]
	-----------------------------------------------------------

  Dipole Moment: [D]
     X:     8.2418      Y:     2.5745      Z:    -0.4180     Total:     8.6446

*** Psi4 exiting successfully. Buy a developer a beer!
