                               Psi4 1.3.2 release

  ==> Input File <==

--------------------------------------------------------------------------
#psi4
#
memory 32 gb

molecule  {
-3 1
  P        1.1931290    -0.6069630     0.0087730
  P       -1.8341790     0.1663700     0.0034510
  O        1.3462914     0.9217639    -0.3502084
  O       -0.3886030    -0.8294050    -0.1958090
  O        1.9273580    -1.4129110    -1.0480400
  O        1.6168640    -0.7815310     1.4560350
  O       -1.8332320     1.0931450    -1.2188660
  O       -1.6562150     0.8578460     1.3638040
  O       -2.8968830    -0.9395270    -0.0292720
  C        2.6258790     1.5668310    -0.0085760
  H        2.7349980     1.6139230     1.0781470
  H        3.4479520     0.9704660    -0.4205400
  H        2.6752270     2.5733270    -0.4286450
units angstrom
no_reorient  #important for SAPT in psi4, default
symmetry c1  #important for SAPT in psi4, default
}

set PROPERTIES_ORIGIN ["COM"]
properties('MP2/aug-cc-pvtz', properties = ['dipole'])
--------------------------------------------------------------------------

    Molecular point group: c1
  Charge       = -3
  Multiplicity = 1
  Basis Set: AUG-CC-PVTZ
    Blend: AUG-CC-PVTZ
  Basis Set: (AUG-CC-PVTZ AUX)
    Blend: AUG-CC-PVTZ-JKFIT

    Orbital Energies [Eh]
    ---------------------

    Doubly Occupied:

       1A    -79.609041     2A    -79.557006     3A    -20.155357
       4A    -20.073334     5A    -20.045618     6A    -20.041587
       7A    -19.998160     8A    -19.996666     9A    -19.995724
      10A    -10.930243    11A     -7.124916    12A     -7.070771
      13A     -5.024530    14A     -5.022701    15A     -5.021778
      16A     -4.970301    17A     -4.967918    18A     -4.967796
      19A     -0.979888    20A     -0.878998    21A     -0.835132
      22A     -0.795854    23A     -0.794854    24A     -0.740187
      25A     -0.738551    26A     -0.578237    27A     -0.337900
      28A     -0.281474    29A     -0.259286    30A     -0.240039
      31A     -0.183443    32A     -0.149480    33A     -0.146061
      34A     -0.114542    35A     -0.091994    36A     -0.088144
      37A     -0.066897    38A     -0.054201    39A     -0.039915
      40A     -0.032090    41A     -0.017239    42A      0.015088
      43A      0.024635    44A      0.025549    45A      0.028205
      46A      0.033926    47A      0.067107    48A      0.070555
      49A      0.094795

  @DF-RHF Final Energy: -1245.34009924865927

   => Energetics <=

    Nuclear Repulsion Energy =            823.8391371890025994
    One-Electron Energy =               -3413.0424849451055707
    Two-Electron Energy =                1343.8632485074438137
    Total Energy =                      -1245.3400992486592713
  Basis Set: (AUG-CC-PVTZ AUX)
    Blend: AUG-CC-PVTZ-RI
    Molecular point group: c1

    Geometry (in Angstrom), charge = -3, multiplicity = 1:

       Center              X                  Y                   Z               Mass
    ------------   -----------------  -----------------  -----------------  -----------------
         P            1.243722060621    -0.569430940050     0.007985025955    30.973761998420
         P           -1.783585939379     0.203902059950     0.002663025955    30.973761998420
         O            1.396884460621     0.959295959950    -0.350996374045    15.994914619570
         O           -0.338009939379    -0.791872940050    -0.196596974045    15.994914619570
         O            1.977951060621    -1.375378940050    -1.048827974045    15.994914619570
         O            1.667457060621    -0.743998940050     1.455247025955    15.994914619570
         O           -1.782638939379     1.130677059950    -1.219653974045    15.994914619570
         O           -1.605621939379     0.895378059950     1.363016025955    15.994914619570
         O           -2.846289939379    -0.901994940050    -0.030059974045    15.994914619570
         C            2.676472060621     1.604363059950    -0.009363974045    12.000000000000
         H            2.785591060621     1.651455059950     1.077359025955     1.007825032230
         H            3.498545060621     1.007998059950    -0.421327974045     1.007825032230
         H            2.725820060621     2.610859059950    -0.429432974045     1.007825032230

  Basis Set: AUG-CC-PVTZ
    Blend: AUG-CC-PVTZ
  Basis Set: (AUG-CC-PVTZ AUX)
    Blend: AUG-CC-PVTZ-JKFIT
	 Reference Energy          =   -1245.3400992486592713 [Eh]
	 Singles Energy            =      -0.0000000000000000 [Eh]
	 Same-Spin Energy          =      -0.6451943363037163 [Eh]
	 Opposite-Spin Energy      =      -1.8041568625990299 [Eh]
	 Correlation Energy        =      -2.4493511989027459 [Eh]
	 Total Energy              =   -1247.7894504475621034 [Eh]

	 ================> DF-SCS-MP2 Energies <==================
	-----------------------------------------------------------
	 SCS Same-Spin Scale       =       0.3333333333333333 [-]
	 SCS Opposite-Spin Scale   =       1.2000000000000000 [-]
	 SCS Same-Spin Energy      =      -0.2150647787679054 [Eh]
	 SCS Opposite-Spin Energy  =      -2.1649882351188356 [Eh]
	 SCS Correlation Energy    =      -2.3800530138867408 [Eh]
	 SCS Total Energy          =   -1247.7201522625459802 [Eh]
	-----------------------------------------------------------

  Dipole Moment: [D]
     X:     8.1990      Y:     2.8996      Z:    -0.5380     Total:     8.7132

*** Psi4 exiting successfully. Buy a developer a beer!
