                               Psi4 1.3.2 release

  ==> Input File <==

--------------------------------------------------------------------------
#psi4
#
memory 32 gb

molecule  {
-3 1
  P        1.1931290    -0.6069630     0.0087730
  P       -1.8341790     0.1663700     0.0034510
  O        1.3559990     1.0186560    -0.3729610
  O       -0.4219400    -0.8571594    -0.2774955
  O        1.9273580    -1.4129110    -1.0480400
  O        1.6168640    -0.7815310     1.4560350
  O       -1.8332320     1.0931450    -1.2188660
  O       -1.7270684     0.8941233     1.3522553
  O       -2.8968830    -0.9395270    -0.0292720
  C        2.6258790     1.5668310    -0.0085760
  H        2.7349980     1.6139230     1.0781470
  H        3.4479520     0.9704660    -0.4205400
  H        2.6752270     2.5733270    -0.4286450
units angstrom
no_reorient  #important for SAPT in psi4, default
symmetry c1  #important for SAPT in psi4, default
}

set PROPERTIES_ORIGIN ["COM"]
properties('MP2/aug-cc-pvtz', properties = ['dipole'])
--------------------------------------------------------------------------

    Molecular point group: c1
  Charge       = -3
  Multiplicity = 1
  Basis Set: AUG-CC-PVTZ
    Blend: AUG-CC-PVTZ
  Basis Set: (AUG-CC-PVTZ AUX)
    Blend: AUG-CC-PVTZ-JKFIT

    Orbital Energies [Eh]
    ---------------------

    Doubly Occupied:

       1A    -79.630349     2A    -79.555439     3A    -20.157969
       4A    -20.086448     5A    -20.060567     6A    -20.057265
       7A    -19.999657     8A    -19.992758     9A    -19.992610
      10A    -10.920749    11A     -7.143755    12A     -7.069461
      13A     -5.042972    14A     -5.041453    15A     -5.040752
      16A     -4.968895    17A     -4.966614    18A     -4.966491
      19A     -0.968478    20A     -0.882569    21A     -0.843845
      22A     -0.808934    23A     -0.795111    24A     -0.738242
      25A     -0.736410    26A     -0.564441    27A     -0.336563
      28A     -0.278618    29A     -0.258034    30A     -0.230676
      31A     -0.191636    32A     -0.146599    33A     -0.143306
      34A     -0.118015    35A     -0.090063    36A     -0.088161
      37A     -0.066533    38A     -0.060154    39A     -0.043233
      40A     -0.038227    41A     -0.025548    42A      0.001330
      43A      0.016448    44A      0.027644    45A      0.027731
      46A      0.029585    47A      0.067710    48A      0.072468
      49A      0.097055

  @DF-RHF Final Energy: -1245.33788707450958

   => Energetics <=

    Nuclear Repulsion Energy =            817.6742533305234701
    One-Electron Energy =               -3400.4090209800092452
    Two-Electron Energy =                1337.3968805749759667
    Total Energy =                      -1245.3378870745095810
  Basis Set: (AUG-CC-PVTZ AUX)
    Blend: AUG-CC-PVTZ-RI
    Molecular point group: c1

    Geometry (in Angstrom), charge = -3, multiplicity = 1:

       Center              X                  Y                   Z               Mass
    ------------   -----------------  -----------------  -----------------  -----------------
         P            1.251720796208    -0.578355175063     0.017804334268    30.973761998420
         P           -1.775587203792     0.194977824937     0.012482334268    30.973761998420
         O            1.414590796208     1.047263824937    -0.363929665732    15.994914619570
         O           -0.363348203792    -0.828551575063    -0.268464165732    15.994914619570
         O            1.985949796208    -1.384303175063    -1.039008665732    15.994914619570
         O            1.675455796208    -0.752923175063     1.465066334268    15.994914619570
         O           -1.774640203792     1.121752824937    -1.209834665732    15.994914619570
         O           -1.668476603792     0.922731124937     1.361286634268    15.994914619570
         O           -2.838291203792    -0.910919175063    -0.020240665732    15.994914619570
         C            2.684470796208     1.595438824937     0.000455334268    12.000000000000
         H            2.793589796208     1.642530824937     1.087178334268     1.007825032230
         H            3.506543796208     0.999073824937    -0.411508665732     1.007825032230
         H            2.733818796208     2.601934824937    -0.419613665732     1.007825032230

  Basis Set: AUG-CC-PVTZ
    Blend: AUG-CC-PVTZ
  Basis Set: (AUG-CC-PVTZ AUX)
    Blend: AUG-CC-PVTZ-JKFIT
	 Reference Energy          =   -1245.3378870745095810 [Eh]
	 Singles Energy            =      -0.0000000000000000 [Eh]
	 Same-Spin Energy          =      -0.6467368348104490 [Eh]
	 Opposite-Spin Energy      =      -1.8083588999219382 [Eh]
	 Correlation Energy        =      -2.4550957347323870 [Eh]
	 Total Energy              =   -1247.7929828092419484 [Eh]

	 ================> DF-SCS-MP2 Energies <==================
	-----------------------------------------------------------
	 SCS Same-Spin Scale       =       0.3333333333333333 [-]
	 SCS Opposite-Spin Scale   =       1.2000000000000000 [-]
	 SCS Same-Spin Energy      =      -0.2155789449368163 [Eh]
	 SCS Opposite-Spin Energy  =      -2.1700306799063256 [Eh]
	 SCS Correlation Energy    =      -2.3856096248431418 [Eh]
	 SCS Total Energy          =   -1247.7234966993528360 [Eh]
	-----------------------------------------------------------

  Dipole Moment: [D]
     X:     8.4669      Y:     2.2801      Z:    -0.2930     Total:     8.7735

*** Psi4 exiting successfully. Buy a developer a beer!
