                               Psi4 1.4a3.dev225

  ==> Input File <==

--------------------------------------------------------------------------
#psi4
#
memory 32 gb

molecule  {
-3 1
  P       -1.1253500     0.3591720     0.0081310
  P        2.0878660    -0.1053470     0.0007630
  O       -2.1391380    -1.0979190    -0.1147190
  O        0.1914116    -0.4231370    -0.1375533
  O       -1.5628960     1.1822930    -1.2021870
  O       -1.4752280     0.9069340     1.3887990
  O        2.4385690    -0.8874190     1.2758270
  O        2.1989840     1.4211450     0.0869110
  O        2.5676630    -0.7478960    -1.3107960
  C       -3.4907010    -0.7724380    -0.0147870
  H       -3.7335280    -0.2943150     0.9495100
  H       -3.8114220    -0.0788120    -0.8111520
  H       -4.0969940    -1.6975630    -0.1019980
units angstrom
no_reorient  #important for SAPT in psi4, default
symmetry c1  #important for SAPT in psi4, default
}

set PROPERTIES_ORIGIN ["COM"]
properties('MP2/aug-cc-pvtz', properties = ['dipole'])
--------------------------------------------------------------------------

    Molecular point group: c1
  Charge       = -3
  Multiplicity = 1
  Basis Set: AUG-CC-PVTZ
    Blend: AUG-CC-PVTZ
  Basis Set: (AUG-CC-PVTZ AUX)
    Blend: AUG-CC-PVTZ-JKFIT

    Orbital Energies [Eh]
    ---------------------

    Doubly Occupied:

       1A    -79.618879     2A    -79.592005     3A    -20.138975
       4A    -20.084852     5A    -20.050949     6A    -20.050741
       7A    -20.028710     8A    -20.028629     9A    -20.027831
      10A    -10.906712    11A     -7.133059    12A     -7.105356
      13A     -5.032477    14A     -5.030762    15A     -5.029747
      16A     -5.005065    17A     -5.001917    18A     -5.001899
      19A     -0.952666    20A     -0.888127    21A     -0.848502
      22A     -0.818533    23A     -0.796878    24A     -0.768602
      25A     -0.767369    26A     -0.538144    27A     -0.329017
      28A     -0.264026    29A     -0.241690    30A     -0.209320
      31A     -0.204630    32A     -0.157128    33A     -0.142628
      34A     -0.115820    35A     -0.100009    36A     -0.098446
      37A     -0.080678    38A     -0.051951    39A     -0.044745
      40A     -0.027200    41A     -0.010310    42A     -0.005204
      43A     -0.001639    44A     -0.001269    45A      0.010817
      46A      0.024929    47A      0.037300    48A      0.043762
      49A      0.065374

  @DF-RHF Final Energy: -1245.33995589088545

   => Energetics <=

    Nuclear Repulsion Energy =            797.1742901457985226
    One-Electron Energy =               -3358.7266523954303921
    Two-Electron Energy =                1316.2124063587466480
    Total Energy =                      -1245.3399558908854488
  Basis Set: (AUG-CC-PVTZ AUX)
    Blend: AUG-CC-PVTZ-RI
    Molecular point group: c1

    Geometry (in Angstrom), charge = -3, multiplicity = 1:

       Center              X                  Y                   Z               Mass
    ------------   -----------------  -----------------  -----------------  -----------------
         P           -1.187222206637     0.347697275427     0.008579523036    30.973761998420
         P            2.025993793363    -0.116821724573     0.001211523036    30.973761998420
         O           -2.201010206637    -1.109393724573    -0.114270476964    15.994914619570
         O            0.129539393363    -0.434611724573    -0.137104776964    15.994914619570
         O           -1.624768206637     1.170818275427    -1.201738476964    15.994914619570
         O           -1.537100206637     0.895459275427     1.389247523036    15.994914619570
         O            2.376696793363    -0.898893724573     1.276275523036    15.994914619570
         O            2.137111793363     1.409670275427     0.087359523036    15.994914619570
         O            2.505790793363    -0.759370724573    -1.310347476964    15.994914619570
         C           -3.552573206637    -0.783912724573    -0.014338476964    12.000000000000
         H           -3.795400206637    -0.305789724573     0.949958523036     1.007825032230
         H           -3.873294206637    -0.090286724573    -0.810703476964     1.007825032230
         H           -4.158866206637    -1.709037724573    -0.101549476964     1.007825032230

  Basis Set: AUG-CC-PVTZ
    Blend: AUG-CC-PVTZ
  Basis Set: (AUG-CC-PVTZ AUX)
    Blend: AUG-CC-PVTZ-JKFIT
	 Reference Energy          =   -1245.3399558908854488 [Eh]
	 Singles Energy            =      -0.0000000000000000 [Eh]
	 Same-Spin Energy          =      -0.6473964858524164 [Eh]
	 Opposite-Spin Energy      =      -1.8099176664123724 [Eh]
	 Correlation Energy        =      -2.4573141522647886 [Eh]
	 Total Energy              =   -1247.7972700431503199 [Eh]

	 ================> DF-SCS-MP2 Energies <==================
	-----------------------------------------------------------
	 SCS Same-Spin Scale       =       0.3333333333333333 [-]
	 SCS Opposite-Spin Scale   =       1.2000000000000000 [-]
	 SCS Same-Spin Energy      =      -0.2157988286174721 [Eh]
	 SCS Opposite-Spin Energy  =      -2.1719011996948470 [Eh]
	 SCS Correlation Energy    =      -2.3877000283123189 [Eh]
	 SCS Total Energy          =   -1247.7276559191977867 [Eh]
	-----------------------------------------------------------

  Dipole Moment: [D]
     X:    -7.0550      Y:    -1.8521      Z:    -0.1610     Total:     7.2959

*** Psi4 exiting successfully. Buy a developer a beer!
