                               Psi4 1.3.2 release

  ==> Input File <==

--------------------------------------------------------------------------
#psi4
#
memory 32 gb

molecule  {
-3 1
  P        1.1931290    -0.6069630     0.0087730
  P       -1.8341790     0.1663700     0.0034510
  O        1.3703806     1.0177583    -0.3703670
  O       -0.3871134    -0.8428973    -0.1921728
  O        1.9273580    -1.4129110    -1.0480400
  O        1.6168640    -0.7815310     1.4560350
  O       -1.8332320     1.0931450    -1.2188660
  O       -1.6562150     0.8578460     1.3638040
  O       -2.8968830    -0.9395270    -0.0292720
  C        2.6258790     1.5668310    -0.0085760
  H        2.7349980     1.6139230     1.0781470
  H        3.4479520     0.9704660    -0.4205400
  H        2.6752270     2.5733270    -0.4286450
units angstrom
no_reorient  #important for SAPT in psi4, default
symmetry c1  #important for SAPT in psi4, default
}

set PROPERTIES_ORIGIN ["COM"]
properties('MP2/aug-cc-pvtz', properties = ['dipole'])
--------------------------------------------------------------------------

    Molecular point group: c1
  Charge       = -3
  Multiplicity = 1
  Basis Set: AUG-CC-PVTZ
    Blend: AUG-CC-PVTZ
  Basis Set: (AUG-CC-PVTZ AUX)
    Blend: AUG-CC-PVTZ-JKFIT

    Orbital Energies [Eh]
    ---------------------

    Doubly Occupied:

       1A    -79.621688     2A    -79.560286     3A    -20.152310
       4A    -20.081312     5A    -20.053863     6A    -20.049968
       7A    -20.000789     8A    -19.999396     9A    -19.998391
      10A    -10.916149    11A     -7.135757    12A     -7.074071
      13A     -5.035038    14A     -5.033559    15A     -5.032726
      16A     -4.973624    17A     -4.971170    18A     -4.971043
      19A     -0.968371    20A     -0.887127    21A     -0.841167
      22A     -0.802244    23A     -0.799403    24A     -0.742722
      25A     -0.741131    26A     -0.559841    27A     -0.336350
      28A     -0.282448    29A     -0.255733    30A     -0.231453
      31A     -0.186676    32A     -0.147543    33A     -0.143125
      34A     -0.113205    35A     -0.093071    36A     -0.088701
      37A     -0.062711    38A     -0.058741    39A     -0.043331
      40A     -0.037492    41A     -0.021507    42A      0.007894
      43A      0.021258    44A      0.021973    45A      0.024874
      46A      0.028393    47A      0.064155    48A      0.067407
      49A      0.092289

  @DF-RHF Final Energy: -1245.34573689085096

   => Energetics <=

    Nuclear Repulsion Energy =            820.1525501670167841
    One-Electron Energy =               -3405.4425968314835700
    Two-Electron Energy =                1339.9443097736159416
    Total Energy =                      -1245.3457368908509579
  Basis Set: (AUG-CC-PVTZ AUX)
    Blend: AUG-CC-PVTZ-RI
    Molecular point group: c1

    Geometry (in Angstrom), charge = -3, multiplicity = 1:

       Center              X                  Y                   Z               Mass
    ------------   -----------------  -----------------  -----------------  -----------------
         P            1.241556607673    -0.576415412179     0.009383781166    30.973761998420
         P           -1.785751392327     0.196917587821     0.004061781166    30.973761998420
         O            1.418808207673     1.048305887821    -0.369756218834    15.994914619570
         O           -0.338685792327    -0.812349712179    -0.191562018834    15.994914619570
         O            1.975785607673    -1.382363412179    -1.047429218834    15.994914619570
         O            1.665291607673    -0.750983412179     1.456645781166    15.994914619570
         O           -1.784804392327     1.123692587821    -1.218255218834    15.994914619570
         O           -1.607787392327     0.888393587821     1.364414781166    15.994914619570
         O           -2.848455392327    -0.908979412179    -0.028661218834    15.994914619570
         C            2.674306607673     1.597378587821    -0.007965218834    12.000000000000
         H            2.783425607673     1.644470587821     1.078757781166     1.007825032230
         H            3.496379607673     1.001013587821    -0.419929218834     1.007825032230
         H            2.723654607673     2.603874587821    -0.428034218834     1.007825032230

  Basis Set: AUG-CC-PVTZ
    Blend: AUG-CC-PVTZ
  Basis Set: (AUG-CC-PVTZ AUX)
    Blend: AUG-CC-PVTZ-JKFIT
	 Reference Energy          =   -1245.3457368908509579 [Eh]
	 Singles Energy            =      -0.0000000000000000 [Eh]
	 Same-Spin Energy          =      -0.6459860523523357 [Eh]
	 Opposite-Spin Energy      =      -1.8061175577865889 [Eh]
	 Correlation Energy        =      -2.4521036101389244 [Eh]
	 Total Energy              =   -1247.7978405009898779 [Eh]

	 ================> DF-SCS-MP2 Energies <==================
	-----------------------------------------------------------
	 SCS Same-Spin Scale       =       0.3333333333333333 [-]
	 SCS Opposite-Spin Scale   =       1.2000000000000000 [-]
	 SCS Same-Spin Energy      =      -0.2153286841174452 [Eh]
	 SCS Opposite-Spin Energy  =      -2.1673410693439066 [Eh]
	 SCS Correlation Energy    =      -2.3826697534613519 [Eh]
	 SCS Total Energy          =   -1247.7284066443123720 [Eh]
	-----------------------------------------------------------

  Dipole Moment: [D]
     X:     7.8096      Y:     2.3553      Z:    -0.4805     Total:     8.1712

*** Psi4 exiting successfully. Buy a developer a beer!
