                               Psi4 1.4a3.dev225

  ==> Input File <==

--------------------------------------------------------------------------
#psi4
#
memory 32 gb

molecule  {
-3 1
  P       -1.1253500     0.3591720     0.0081310
  P        2.0878660    -0.1053470     0.0007630
  O       -2.1391380    -1.0979190    -0.1147190
  O        0.2405970    -0.4148950    -0.1339660
  O       -1.5628960     1.1822930    -1.2021870
  O       -1.4752280     0.9069340     1.3887990
  O        2.4385690    -0.8874190     1.2758270
  O        2.1989840     1.4211450     0.0869110
  O        2.5614209    -0.7395365    -1.2937327
  C       -3.4907010    -0.7724380    -0.0147870
  H       -3.7335280    -0.2943150     0.9495100
  H       -3.8114220    -0.0788120    -0.8111520
  H       -4.0969940    -1.6975630    -0.1019980
units angstrom
no_reorient  #important for SAPT in psi4, default
symmetry c1  #important for SAPT in psi4, default
}

set PROPERTIES_ORIGIN ["COM"]
properties('MP2/aug-cc-pvtz', properties = ['dipole'])
--------------------------------------------------------------------------

    Molecular point group: c1
  Charge       = -3
  Multiplicity = 1
  Basis Set: AUG-CC-PVTZ
    Blend: AUG-CC-PVTZ
  Basis Set: (AUG-CC-PVTZ AUX)
    Blend: AUG-CC-PVTZ-JKFIT

    Orbital Energies [Eh]
    ---------------------

    Doubly Occupied:

       1A    -79.628228     2A    -79.581788     3A    -20.144941
       4A    -20.087285     5A    -20.055431     6A    -20.054924
       7A    -20.021640     8A    -20.020650     9A    -20.019799
      10A    -10.910782    11A     -7.141150    12A     -7.095804
      13A     -5.040603    14A     -5.038745    15A     -5.037933
      16A     -4.995453    17A     -4.992617    18A     -4.992405
      19A     -0.955318    20A     -0.886829    21A     -0.848634
      22A     -0.816312    23A     -0.800862    24A     -0.765967
      25A     -0.761321    26A     -0.542309    27A     -0.333505
      28A     -0.267611    29A     -0.245784    30A     -0.211586
      31A     -0.203745    32A     -0.156602    33A     -0.142468
      34A     -0.117170    35A     -0.098607    36A     -0.097839
      37A     -0.079138    38A     -0.053110    39A     -0.048404
      40A     -0.029637    41A     -0.013382    42A     -0.001776
      43A      0.001022    44A      0.003180    45A      0.008629
      46A      0.022237    47A      0.043592    48A      0.048383
      49A      0.071641

  @DF-RHF Final Energy: -1245.34259523745800

   => Energetics <=

    Nuclear Repulsion Energy =            797.8661717803848887
    One-Electron Energy =               -3360.1387167813327324
    Two-Electron Energy =                1316.9299497634899581
    Total Energy =                      -1245.3425952374579992
  Basis Set: (AUG-CC-PVTZ AUX)
    Blend: AUG-CC-PVTZ-RI
    Molecular point group: c1

    Geometry (in Angstrom), charge = -3, multiplicity = 1:

       Center              X                  Y                   Z               Mass
    ------------   -----------------  -----------------  -----------------  -----------------
         P           -1.190857705393     0.346291823759     0.006831282202    30.973761998420
         P            2.022358294607    -0.118227176241    -0.000536717798    30.973761998420
         O           -2.204645705393    -1.110799176241    -0.116018717798    15.994914619570
         O            0.175089294607    -0.427775176241    -0.135265717798    15.994914619570
         O           -1.628403705393     1.169412823759    -1.203486717798    15.994914619570
         O           -1.540735705393     0.894053823759     1.387499282202    15.994914619570
         O            2.373061294607    -0.900299176241     1.274527282202    15.994914619570
         O            2.133476294607     1.408264823759     0.085611282202    15.994914619570
         O            2.495913194607    -0.752416676241    -1.295032417798    15.994914619570
         C           -3.556208705393    -0.785318176241    -0.016086717798    12.000000000000
         H           -3.799035705393    -0.307195176241     0.948210282202     1.007825032230
         H           -3.876929705393    -0.091692176241    -0.812451717798     1.007825032230
         H           -4.162501705393    -1.710443176241    -0.103297717798     1.007825032230

  Basis Set: AUG-CC-PVTZ
    Blend: AUG-CC-PVTZ
  Basis Set: (AUG-CC-PVTZ AUX)
    Blend: AUG-CC-PVTZ-JKFIT
	 Reference Energy          =   -1245.3425952374579992 [Eh]
	 Singles Energy            =      -0.0000000000000000 [Eh]
	 Same-Spin Energy          =      -0.6471199822387997 [Eh]
	 Opposite-Spin Energy      =      -1.8092032019391557 [Eh]
	 Correlation Energy        =      -2.4563231841779554 [Eh]
	 Total Energy              =   -1247.7989184216360172 [Eh]

	 ================> DF-SCS-MP2 Energies <==================
	-----------------------------------------------------------
	 SCS Same-Spin Scale       =       0.3333333333333333 [-]
	 SCS Opposite-Spin Scale   =       1.2000000000000000 [-]
	 SCS Same-Spin Energy      =      -0.2157066607462666 [Eh]
	 SCS Opposite-Spin Energy  =      -2.1710438423269869 [Eh]
	 SCS Correlation Energy    =      -2.3867505030732534 [Eh]
	 SCS Total Energy          =   -1247.7293457405312438 [Eh]
	-----------------------------------------------------------

  Dipole Moment: [D]
     X:    -7.6375      Y:    -1.8765      Z:    -0.2919     Total:     7.8700

*** Psi4 exiting successfully. Buy a developer a beer!
