                               Psi4 1.3.2 release

  ==> Input File <==

--------------------------------------------------------------------------
#psi4
#
memory 32 gb

molecule  {
-3 1
  P        1.1931290    -0.6069630     0.0087730
  P       -1.8341790     0.1663700     0.0034510
  O        1.3559990     1.0186560    -0.3729610
  O       -0.3886030    -0.8294050    -0.1958090
  O        1.9121015    -1.4019018    -1.0667032
  O        1.5983951    -0.7639843     1.4633163
  O       -1.8332320     1.0931450    -1.2188660
  O       -1.6562150     0.8578460     1.3638040
  O       -2.8968830    -0.9395270    -0.0292720
  C        2.6258790     1.5668310    -0.0085760
  H        2.7349980     1.6139230     1.0781470
  H        3.4479520     0.9704660    -0.4205400
  H        2.6752270     2.5733270    -0.4286450
units angstrom
no_reorient  #important for SAPT in psi4, default
symmetry c1  #important for SAPT in psi4, default
}

set PROPERTIES_ORIGIN ["COM"]
properties('MP2/aug-cc-pvtz', properties = ['dipole'])
--------------------------------------------------------------------------

    Molecular point group: c1
  Charge       = -3
  Multiplicity = 1
  Basis Set: AUG-CC-PVTZ
    Blend: AUG-CC-PVTZ
  Basis Set: (AUG-CC-PVTZ AUX)
    Blend: AUG-CC-PVTZ-JKFIT

    Orbital Energies [Eh]
    ---------------------

    Doubly Occupied:

       1A    -79.622074     2A    -79.558143     3A    -20.151408
       4A    -20.078606     5A    -20.056271     6A    -20.052384
       7A    -19.998417     8A    -19.997983     9A    -19.996312
      10A    -10.916647    11A     -7.136124    12A     -7.071945
      13A     -5.035439    14A     -5.033973    15A     -5.033053
      16A     -4.971503    17A     -4.969069    18A     -4.968935
      19A     -0.964457    20A     -0.885754    21A     -0.840953
      22A     -0.805195    23A     -0.797780    24A     -0.740906
      25A     -0.739281    26A     -0.560068    27A     -0.335287
      28A     -0.281409    29A     -0.253619    30A     -0.227563
      31A     -0.187095    32A     -0.146707    33A     -0.144083
      34A     -0.113736    35A     -0.091703    36A     -0.088154
      37A     -0.063155    38A     -0.057229    39A     -0.042532
      40A     -0.037874    41A     -0.021944    42A      0.006347
      43A      0.020407    44A      0.023476    45A      0.026633
      46A      0.028424    47A      0.066008    48A      0.069542
      49A      0.094133

  @DF-RHF Final Energy: -1245.34425986630754

   => Energetics <=

    Nuclear Repulsion Energy =            820.7986784200529655
    One-Electron Energy =               -3406.8062746470136517
    Two-Electron Energy =                1340.6633363606531475
    Total Energy =                      -1245.3442598663075387
  Basis Set: (AUG-CC-PVTZ AUX)
    Blend: AUG-CC-PVTZ-RI
    Molecular point group: c1

    Geometry (in Angstrom), charge = -3, multiplicity = 1:

       Center              X                  Y                   Z               Mass
    ------------   -----------------  -----------------  -----------------  -----------------
         P            1.245755362254    -0.580051131046     0.010874788323    30.973761998420
         P           -1.781552637746     0.193281868954     0.005552788323    30.973761998420
         O            1.408625362254     1.045567868954    -0.370859211677    15.994914619570
         O           -0.335976637746    -0.802493131046    -0.193707211677    15.994914619570
         O            1.964727862254    -1.374989931046    -1.064601411677    15.994914619570
         O            1.651021462254    -0.737072431046     1.465418088323    15.994914619570
         O           -1.780605637746     1.120056868954    -1.216764211677    15.994914619570
         O           -1.603588637746     0.884757868954     1.365905788323    15.994914619570
         O           -2.844256637746    -0.912615131046    -0.027170211677    15.994914619570
         C            2.678505362254     1.593742868954    -0.006474211677    12.000000000000
         H            2.787624362254     1.640834868954     1.080248788323     1.007825032230
         H            3.500578362254     0.997377868954    -0.418438211677     1.007825032230
         H            2.727853362254     2.600238868954    -0.426543211677     1.007825032230

  Basis Set: AUG-CC-PVTZ
    Blend: AUG-CC-PVTZ
  Basis Set: (AUG-CC-PVTZ AUX)
    Blend: AUG-CC-PVTZ-JKFIT
	 Reference Energy          =   -1245.3442598663075387 [Eh]
	 Singles Energy            =      -0.0000000000000000 [Eh]
	 Same-Spin Energy          =      -0.6461344160668061 [Eh]
	 Opposite-Spin Energy      =      -1.8065104683540518 [Eh]
	 Correlation Energy        =      -2.4526448844208577 [Eh]
	 Total Energy              =   -1247.7969047507283449 [Eh]

	 ================> DF-SCS-MP2 Energies <==================
	-----------------------------------------------------------
	 SCS Same-Spin Scale       =       0.3333333333333333 [-]
	 SCS Opposite-Spin Scale   =       1.2000000000000000 [-]
	 SCS Same-Spin Energy      =      -0.2153781386889353 [Eh]
	 SCS Opposite-Spin Energy  =      -2.1678125620248623 [Eh]
	 SCS Correlation Energy    =      -2.3831907007137976 [Eh]
	 SCS Total Energy          =   -1247.7274505670213784 [Eh]
	-----------------------------------------------------------

  Dipole Moment: [D]
     X:     8.0071      Y:     2.2536      Z:    -0.4437     Total:     8.3301

*** Psi4 exiting successfully. Buy a developer a beer!
