                               Psi4 1.3.2 release

  ==> Input File <==

--------------------------------------------------------------------------
#psi4
#
memory 32 gb

molecule  {
-3 1
  P        1.1931290    -0.6069630     0.0087730
  P       -1.8341790     0.1663700     0.0034510
  O        1.3559990     1.0186560    -0.3729610
  O       -0.3992794    -0.8389636    -0.2231096
  O        1.9273580    -1.4129110    -1.0480400
  O        1.6168640    -0.7815310     1.4560350
  O       -1.8332320     1.0931450    -1.2188660
  O       -1.6797882     0.8701540     1.3603674
  O       -2.8968830    -0.9395270    -0.0292720
  C        2.6258790     1.5668310    -0.0085760
  H        2.7349980     1.6139230     1.0781470
  H        3.4479520     0.9704660    -0.4205400
  H        2.6752270     2.5733270    -0.4286450
units angstrom
no_reorient  #important for SAPT in psi4, default
symmetry c1  #important for SAPT in psi4, default
}

set PROPERTIES_ORIGIN ["COM"]
properties('MP2/aug-cc-pvtz', properties = ['dipole'])
--------------------------------------------------------------------------

    Molecular point group: c1
  Charge       = -3
  Multiplicity = 1
  Basis Set: AUG-CC-PVTZ
    Blend: AUG-CC-PVTZ
  Basis Set: (AUG-CC-PVTZ AUX)
    Blend: AUG-CC-PVTZ-JKFIT

    Orbital Energies [Eh]
    ---------------------

    Doubly Occupied:

       1A    -79.624791     2A    -79.557879     3A    -20.154568
       4A    -20.082577     5A    -20.055512     6A    -20.054073
       7A    -19.998092     8A    -19.997096     9A    -19.996719
      10A    -10.918303    11A     -7.138606    12A     -7.071754
      13A     -5.037884    14A     -5.036358    15A     -5.035603
      16A     -4.971273    17A     -4.968872    18A     -4.968769
      19A     -0.966242    20A     -0.885212    21A     -0.842278
      22A     -0.804960    23A     -0.797703    24A     -0.739952
      25A     -0.739634    26A     -0.561892    27A     -0.336163
      28A     -0.281122    29A     -0.255438    30A     -0.229210
      31A     -0.188530    32A     -0.147001    33A     -0.143480
      34A     -0.115606    35A     -0.091897    36A     -0.088577
      37A     -0.064256    38A     -0.058417    39A     -0.043105
      40A     -0.038224    41A     -0.023392    42A      0.005323
      43A      0.019763    44A      0.024617    45A      0.026409
      46A      0.028200    47A      0.066248    48A      0.069324
      49A      0.094504

  @DF-RHF Final Energy: -1245.34361642580348

   => Energetics <=

    Nuclear Repulsion Energy =            819.5175875988073813
    One-Electron Energy =               -3404.1691367868356792
    Two-Electron Energy =                1339.3079327622247092
    Total Energy =                      -1245.3436164258034751
  Basis Set: (AUG-CC-PVTZ AUX)
    Blend: AUG-CC-PVTZ-RI
    Molecular point group: c1

    Geometry (in Angstrom), charge = -3, multiplicity = 1:

       Center              X                  Y                   Z               Mass
    ------------   -----------------  -----------------  -----------------  -----------------
         P            1.245799740037    -0.577866401446     0.012513371504    30.973761998420
         P           -1.781508259963     0.195466598554     0.007191371504    30.973761998420
         O            1.408669740037     1.047752598554    -0.369220628496    15.994914619570
         O           -0.346608659963    -0.809867001446    -0.219369228496    15.994914619570
         O            1.980028740037    -1.383814401446    -1.044299628496    15.994914619570
         O            1.669534740037    -0.752434401446     1.459775371504    15.994914619570
         O           -1.780561259963     1.122241598554    -1.215125628496    15.994914619570
         O           -1.627117459963     0.899250598554     1.364107771504    15.994914619570
         O           -2.844212259963    -0.910430401446    -0.025531628496    15.994914619570
         C            2.678549740037     1.595927598554    -0.004835628496    12.000000000000
         H            2.787668740037     1.643019598554     1.081887371504     1.007825032230
         H            3.500622740037     0.999562598554    -0.416799628496     1.007825032230
         H            2.727897740037     2.602423598554    -0.424904628496     1.007825032230

  Basis Set: AUG-CC-PVTZ
    Blend: AUG-CC-PVTZ
  Basis Set: (AUG-CC-PVTZ AUX)
    Blend: AUG-CC-PVTZ-JKFIT
	 Reference Energy          =   -1245.3436164258034751 [Eh]
	 Singles Energy            =      -0.0000000000000000 [Eh]
	 Same-Spin Energy          =      -0.6462230291489639 [Eh]
	 Opposite-Spin Energy      =      -1.8069146979279855 [Eh]
	 Correlation Energy        =      -2.4531377270769497 [Eh]
	 Total Energy              =   -1247.7967541528803395 [Eh]

	 ================> DF-SCS-MP2 Energies <==================
	-----------------------------------------------------------
	 SCS Same-Spin Scale       =       0.3333333333333333 [-]
	 SCS Opposite-Spin Scale   =       1.2000000000000000 [-]
	 SCS Same-Spin Energy      =      -0.2154076763829880 [Eh]
	 SCS Opposite-Spin Energy  =      -2.1682976375135827 [Eh]
	 SCS Correlation Energy    =      -2.3837053138965709 [Eh]
	 SCS Total Energy          =   -1247.7273217397000735 [Eh]
	-----------------------------------------------------------

  Dipole Moment: [D]
     X:     8.0970      Y:     2.3155      Z:    -0.4118     Total:     8.4316

*** Psi4 exiting successfully. Buy a developer a beer!
