                               Psi4 1.3.2 release

  ==> Input File <==

--------------------------------------------------------------------------
#psi4
#
memory 32 gb

molecule  {
-3 1
  P        1.1931290    -0.6069630     0.0087730
  P       -1.8341790     0.1663700     0.0034510
  O        1.3559990     1.0186560    -0.3729610
  O       -0.3886030    -0.8294050    -0.1958090
  O        1.9273580    -1.4129110    -1.0480400
  O        1.6168640    -0.7815310     1.4560350
  O       -1.8332320     1.0931450    -1.2188660
  O       -1.6562150     0.8578460     1.3638040
  O       -2.8968830    -0.9395270    -0.0292720
  C        2.6258790     1.5668310    -0.0085760
  H        2.7150348     1.6053076     0.8793324
  H        3.4479520     0.9704660    -0.4205400
  H        2.6752270     2.5733270    -0.4286450
units angstrom
no_reorient  #important for SAPT in psi4, default
symmetry c1  #important for SAPT in psi4, default
}

set PROPERTIES_ORIGIN ["COM"]
properties('MP2/aug-cc-pvtz', properties = ['dipole'])
--------------------------------------------------------------------------

    Molecular point group: c1
  Charge       = -3
  Multiplicity = 1
  Basis Set: AUG-CC-PVTZ
    Blend: AUG-CC-PVTZ
  Basis Set: (AUG-CC-PVTZ AUX)
    Blend: AUG-CC-PVTZ-JKFIT

    Orbital Energies [Eh]
    ---------------------

    Doubly Occupied:

       1A    -79.620947     2A    -79.558578     3A    -20.148671
       4A    -20.079671     5A    -20.053702     6A    -20.050685
       7A    -19.998673     8A    -19.998322     9A    -19.996844
      10A    -10.891746    11A     -7.134965    12A     -7.072383
      13A     -5.034252    14A     -5.032765    15A     -5.031971
      16A     -4.971944    17A     -4.969502    18A     -4.969371
      19A     -0.963556    20A     -0.885825    21A     -0.840868
      22A     -0.802354    23A     -0.798251    24A     -0.741200
      25A     -0.739745    26A     -0.590897    27A     -0.340908
      28A     -0.290121    29A     -0.273238    30A     -0.226150
      31A     -0.187170    32A     -0.146431    33A     -0.145679
      34A     -0.115153    35A     -0.092063    36A     -0.088748
      37A     -0.066441    38A     -0.057033    39A     -0.042335
      40A     -0.037409    41A     -0.021086    42A      0.008363
      43A      0.021514    44A      0.023227    45A      0.026353
      46A      0.028890    47A      0.065634    48A      0.069103
      49A      0.093762

  @DF-RHF Final Energy: -1245.31060096213696

   => Energetics <=

    Nuclear Repulsion Energy =            821.4723544897109377
    One-Electron Energy =               -3408.0242957716459387
    Two-Electron Energy =                1341.2413403197979278
    Total Energy =                      -1245.3106009621369594
  Basis Set: (AUG-CC-PVTZ AUX)
    Blend: AUG-CC-PVTZ-RI
    Molecular point group: c1

    Geometry (in Angstrom), charge = -3, multiplicity = 1:

       Center              X                  Y                   Z               Mass
    ------------   -----------------  -----------------  -----------------  -----------------
         P            1.243006721836    -0.577587685897     0.010971741101    30.973761998420
         P           -1.784301278164     0.195745314103     0.005649741101    30.973761998420
         O            1.405876721836     1.048031314103    -0.370762258899    15.994914619570
         O           -0.338725278164    -0.800029685897    -0.193610258899    15.994914619570
         O            1.977235721836    -1.383535685897    -1.045841258899    15.994914619570
         O            1.666741721836    -0.752155685897     1.458233741101    15.994914619570
         O           -1.783354278164     1.122520314103    -1.216667258899    15.994914619570
         O           -1.606337278164     0.887221314103     1.366002741101    15.994914619570
         O           -2.847005278164    -0.910151685897    -0.027073258899    15.994914619570
         C            2.675756721836     1.596206314103    -0.006377258899    12.000000000000
         H            2.764912521836     1.634682914103     0.881531141101     1.007825032230
         H            3.497829721836     0.999841314103    -0.418341258899     1.007825032230
         H            2.725104721836     2.602702314103    -0.426446258899     1.007825032230

  Basis Set: AUG-CC-PVTZ
    Blend: AUG-CC-PVTZ
  Basis Set: (AUG-CC-PVTZ AUX)
    Blend: AUG-CC-PVTZ-JKFIT
	 Reference Energy          =   -1245.3106009621369594 [Eh]
	 Singles Energy            =      -0.0000000000000000 [Eh]
	 Same-Spin Energy          =      -0.6458820139255805 [Eh]
	 Opposite-Spin Energy      =      -1.8054809166304191 [Eh]
	 Correlation Energy        =      -2.4513629305559999 [Eh]
	 Total Energy              =   -1247.7619638926928474 [Eh]

	 ================> DF-SCS-MP2 Energies <==================
	-----------------------------------------------------------
	 SCS Same-Spin Scale       =       0.3333333333333333 [-]
	 SCS Opposite-Spin Scale   =       1.2000000000000000 [-]
	 SCS Same-Spin Energy      =      -0.2152940046418602 [Eh]
	 SCS Opposite-Spin Energy  =      -2.1665770999565028 [Eh]
	 SCS Correlation Energy    =      -2.3818711045983632 [Eh]
	 SCS Total Energy          =   -1247.6924720667352631 [Eh]
	-----------------------------------------------------------

  Dipole Moment: [D]
     X:     8.0199      Y:     2.4378      Z:    -0.3577     Total:     8.3899

*** Psi4 exiting successfully. Buy a developer a beer!
