                               Psi4 1.3.2 release

  ==> Input File <==

--------------------------------------------------------------------------
#psi4
#
memory 32 gb

molecule  {
-3 1
  P        1.1931290    -0.6069630     0.0087730
  P       -1.8341790     0.1663700     0.0034510
  O        1.3559990     1.0186560    -0.3729610
  O       -0.3886030    -0.8294050    -0.1958090
  O        1.9273580    -1.4129110    -1.0480400
  O        1.6726888    -0.8045294     1.6467040
  O       -1.8332320     1.0931450    -1.2188660
  O       -1.6562150     0.8578460     1.3638040
  O       -2.8968830    -0.9395270    -0.0292720
  C        2.6258790     1.5668310    -0.0085760
  H        2.7349980     1.6139230     1.0781470
  H        3.4479520     0.9704660    -0.4205400
  H        2.6752270     2.5733270    -0.4286450
units angstrom
no_reorient  #important for SAPT in psi4, default
symmetry c1  #important for SAPT in psi4, default
}

set PROPERTIES_ORIGIN ["COM"]
properties('MP2/aug-cc-pvtz', properties = ['dipole'])
--------------------------------------------------------------------------

    Molecular point group: c1
  Charge       = -3
  Multiplicity = 1
  Basis Set: AUG-CC-PVTZ
    Blend: AUG-CC-PVTZ
  Basis Set: (AUG-CC-PVTZ AUX)
    Blend: AUG-CC-PVTZ-JKFIT

    Orbital Energies [Eh]
    ---------------------

    Doubly Occupied:

       1A    -79.650961     2A    -79.564195     3A    -20.166157
       4A    -20.095039     5A    -20.071516     6A    -20.059064
       7A    -20.004373     8A    -20.003141     9A    -20.000501
      10A    -10.921544    11A     -7.161267    12A     -7.078121
      13A     -5.060654    14A     -5.059057    15A     -5.057638
      16A     -4.977744    17A     -4.975167    18A     -4.975027
      19A     -0.972695    20A     -0.893692    21A     -0.843489
      22A     -0.807295    23A     -0.752134    24A     -0.746477
      25A     -0.743805    26A     -0.566430    27A     -0.349708
      28A     -0.288291    29A     -0.259803    30A     -0.236689
      31A     -0.188751    32A     -0.151228    33A     -0.145101
      34A     -0.115913    35A     -0.100447    36A     -0.091807
      37A     -0.065287    38A     -0.059989    39A     -0.040820
      40A     -0.032484    41A     -0.017986    42A      0.016221
      43A      0.020129    44A      0.020825    45A      0.023204
      46A      0.031482    47A      0.060386    48A      0.063905
      49A      0.089254

  @DF-RHF Final Energy: -1245.30857944473587

   => Energetics <=

    Nuclear Repulsion Energy =            811.7337939056393452
    One-Electron Energy =               -3388.0325858710011744
    Two-Electron Energy =                1330.9902125206260735
    Total Energy =                      -1245.3085794447358694
  Basis Set: (AUG-CC-PVTZ AUX)
    Blend: AUG-CC-PVTZ-RI
    Molecular point group: c1

    Geometry (in Angstrom), charge = -3, multiplicity = 1:

       Center              X                  Y                   Z               Mass
    ------------   -----------------  -----------------  -----------------  -----------------
         P            1.238174211277    -0.575686641276    -0.006230459660    30.973761998420
         P           -1.789133788723     0.197646358724    -0.011552459660    30.973761998420
         O            1.401044211277     1.049932358724    -0.387964459660    15.994914619570
         O           -0.343557788723    -0.798128641276    -0.210812459660    15.994914619570
         O            1.972403211277    -1.381634641276    -1.063043459660    15.994914619570
         O            1.717734011277    -0.773253041276     1.631700540340    15.994914619570
         O           -1.788186788723     1.124421358724    -1.233869459660    15.994914619570
         O           -1.611169788723     0.889122358724     1.348800540340    15.994914619570
         O           -2.851837788723    -0.908250641276    -0.044275459660    15.994914619570
         C            2.670924211277     1.598107358724    -0.023579459660    12.000000000000
         H            2.780043211277     1.645199358724     1.063143540340     1.007825032230
         H            3.492997211277     1.001742358724    -0.435543459660     1.007825032230
         H            2.720272211277     2.604603358724    -0.443648459660     1.007825032230

  Basis Set: AUG-CC-PVTZ
    Blend: AUG-CC-PVTZ
  Basis Set: (AUG-CC-PVTZ AUX)
    Blend: AUG-CC-PVTZ-JKFIT
	 Reference Energy          =   -1245.3085794447358694 [Eh]
	 Singles Energy            =      -0.0000000000000000 [Eh]
	 Same-Spin Energy          =      -0.6494919063287681 [Eh]
	 Opposite-Spin Energy      =      -1.8157946723441345 [Eh]
	 Correlation Energy        =      -2.4652865786729024 [Eh]
	 Total Energy              =   -1247.7738660234088002 [Eh]

	 ================> DF-SCS-MP2 Energies <==================
	-----------------------------------------------------------
	 SCS Same-Spin Scale       =       0.3333333333333333 [-]
	 SCS Opposite-Spin Scale   =       1.2000000000000000 [-]
	 SCS Same-Spin Energy      =      -0.2164973021095893 [Eh]
	 SCS Opposite-Spin Energy  =      -2.1789536068129611 [Eh]
	 SCS Correlation Energy    =      -2.3954509089225504 [Eh]
	 SCS Total Energy          =   -1247.7040303536584815 [Eh]
	-----------------------------------------------------------

  Dipole Moment: [D]
     X:     7.3970      Y:     2.6218      Z:    -1.6104     Total:     8.0114

*** Psi4 exiting successfully. Buy a developer a beer!
