                               Psi4 1.3.2 release

  ==> Input File <==

--------------------------------------------------------------------------
#psi4
#
memory 32 gb

molecule  {
-3 1
  P        1.1931290    -0.6069630     0.0087730
  P       -1.8341790     0.1663700     0.0034510
  O        1.3559990     1.0186560    -0.3729610
  O       -0.3886030    -0.8294050    -0.1958090
  O        1.9273580    -1.4129110    -1.0480400
  O        1.6168640    -0.7815310     1.4560350
  O       -1.8128157     1.1067947    -1.2082076
  O       -1.6562150     0.8578460     1.3638040
  O       -2.8881814    -0.9482678    -0.0055074
  C        2.6258790     1.5668310    -0.0085760
  H        2.7349980     1.6139230     1.0781470
  H        3.4479520     0.9704660    -0.4205400
  H        2.6752270     2.5733270    -0.4286450
units angstrom
no_reorient  #important for SAPT in psi4, default
symmetry c1  #important for SAPT in psi4, default
}

set PROPERTIES_ORIGIN ["COM"]
properties('MP2/aug-cc-pvtz', properties = ['dipole'])
--------------------------------------------------------------------------

    Molecular point group: c1
  Charge       = -3
  Multiplicity = 1
  Basis Set: AUG-CC-PVTZ
    Blend: AUG-CC-PVTZ
  Basis Set: (AUG-CC-PVTZ AUX)
    Blend: AUG-CC-PVTZ-JKFIT

    Orbital Energies [Eh]
    ---------------------

    Doubly Occupied:

       1A    -79.621283     2A    -79.559104     3A    -20.152117
       4A    -20.079416     5A    -20.054182     6A    -20.050157
       7A    -20.000869     8A    -20.000350     9A    -19.994916
      10A    -10.916499    11A     -7.135320    12A     -7.072924
      13A     -5.034628    14A     -5.033102    15A     -5.032308
      16A     -4.972501    17A     -4.970020    18A     -4.969919
      19A     -0.964450    20A     -0.885926    21A     -0.841187
      22A     -0.802291    23A     -0.798462    24A     -0.744167
      25A     -0.738365    26A     -0.560009    27A     -0.335400
      28A     -0.281487    29A     -0.253520    30A     -0.227706
      31A     -0.186601    32A     -0.146874    33A     -0.143182
      34A     -0.113811    35A     -0.092987    36A     -0.087948
      37A     -0.062709    38A     -0.057211    39A     -0.043029
      40A     -0.037395    41A     -0.021592    42A      0.008014
      43A      0.021228    44A      0.022682    45A      0.025346
      46A      0.029035    47A      0.063912    48A      0.069534
      49A      0.093105

  @DF-RHF Final Energy: -1245.34474907265394

   => Energetics <=

    Nuclear Repulsion Energy =            820.7464673803642654
    One-Electron Energy =               -3406.6962996574438876
    Two-Electron Energy =                1340.6050832044256822
    Total Energy =                      -1245.3447490726539399
  Basis Set: (AUG-CC-PVTZ AUX)
    Blend: AUG-CC-PVTZ-RI
    Molecular point group: c1

    Geometry (in Angstrom), charge = -3, multiplicity = 1:

       Center              X                  Y                   Z               Mass
    ------------   -----------------  -----------------  -----------------  -----------------
         P            1.240435167043    -0.578049220641     0.006997031910    30.973761998420
         P           -1.786872832957     0.195283779359     0.001675031910    30.973761998420
         O            1.403305167043     1.047569779359    -0.374736968090    15.994914619570
         O           -0.341296832957    -0.800491220641    -0.197584968090    15.994914619570
         O            1.974664167043    -1.383997220641    -1.049815968090    15.994914619570
         O            1.664170167043    -0.752617220641     1.454259031910    15.994914619570
         O           -1.765509532957     1.135708479359    -1.209983568090    15.994914619570
         O           -1.608908832957     0.886759779359     1.362028031910    15.994914619570
         O           -2.840875232957    -0.919354020641    -0.007283368090    15.994914619570
         C            2.673185167043     1.595744779359    -0.010351968090    12.000000000000
         H            2.782304167043     1.642836779359     1.076371031910     1.007825032230
         H            3.495258167043     0.999379779359    -0.422315968090     1.007825032230
         H            2.722533167043     2.602240779359    -0.430420968090     1.007825032230

  Basis Set: AUG-CC-PVTZ
    Blend: AUG-CC-PVTZ
  Basis Set: (AUG-CC-PVTZ AUX)
    Blend: AUG-CC-PVTZ-JKFIT
	 Reference Energy          =   -1245.3447490726539399 [Eh]
	 Singles Energy            =      -0.0000000000000000 [Eh]
	 Same-Spin Energy          =      -0.6460937235443696 [Eh]
	 Opposite-Spin Energy      =      -1.8064396894217465 [Eh]
	 Correlation Energy        =      -2.4525334129661163 [Eh]
	 Total Energy              =   -1247.7972824856201441 [Eh]

	 ================> DF-SCS-MP2 Energies <==================
	-----------------------------------------------------------
	 SCS Same-Spin Scale       =       0.3333333333333333 [-]
	 SCS Opposite-Spin Scale   =       1.2000000000000000 [-]
	 SCS Same-Spin Energy      =      -0.2153645745147899 [Eh]
	 SCS Opposite-Spin Energy  =      -2.1677276273060957 [Eh]
	 SCS Correlation Energy    =      -2.3830922018208858 [Eh]
	 SCS Total Energy          =   -1247.7278412744747129 [Eh]
	-----------------------------------------------------------

  Dipole Moment: [D]
     X:     7.8222      Y:     2.3184      Z:    -0.5667     Total:     8.1782

*** Psi4 exiting successfully. Buy a developer a beer!
