                               Psi4 1.3.2 release

  ==> Input File <==

--------------------------------------------------------------------------
#psi4
#
memory 32 gb

molecule  {
-3 1
  P        1.1931290    -0.6069630     0.0087730
  P       -1.8341790     0.1663700     0.0034510
  O        1.3559990     1.0186560    -0.3729610
  O       -0.3853887    -0.8219921    -0.2089388
  O        1.9273580    -1.4129110    -1.0480400
  O        1.6168640    -0.7815310     1.4560350
  O       -1.8219168     1.0874065    -1.2231350
  O       -1.6562150     0.8578460     1.3638040
  O       -2.8968830    -0.9395270    -0.0292720
  C        2.6258790     1.5668310    -0.0085760
  H        2.7349980     1.6139230     1.0781470
  H        3.4479520     0.9704660    -0.4205400
  H        2.6752270     2.5733270    -0.4286450
units angstrom
no_reorient  #important for SAPT in psi4, default
symmetry c1  #important for SAPT in psi4, default
}

set PROPERTIES_ORIGIN ["COM"]
properties('MP2/aug-cc-pvtz', properties = ['dipole'])
--------------------------------------------------------------------------

    Molecular point group: c1
  Charge       = -3
  Multiplicity = 1
  Basis Set: AUG-CC-PVTZ
    Blend: AUG-CC-PVTZ
  Basis Set: (AUG-CC-PVTZ AUX)
    Blend: AUG-CC-PVTZ-JKFIT

    Orbital Energies [Eh]
    ---------------------

    Doubly Occupied:

       1A    -79.621322     2A    -79.559244     3A    -20.152048
       4A    -20.079744     5A    -20.053910     6A    -20.051027
       7A    -19.999492     8A    -19.998620     9A    -19.998090
      10A    -10.916506    11A     -7.135393    12A     -7.073056
      13A     -5.034709    14A     -5.033175    15A     -5.032386
      16A     -4.972632    17A     -4.970172    18A     -4.970033
      19A     -0.964643    20A     -0.886427    21A     -0.841362
      22A     -0.802737    23A     -0.798798    24A     -0.741901
      25A     -0.740705    26A     -0.560052    27A     -0.335854
      28A     -0.281776    29A     -0.253595    30A     -0.227715
      31A     -0.187039    32A     -0.147140    33A     -0.143419
      34A     -0.113975    35A     -0.092694    36A     -0.088452
      37A     -0.062656    38A     -0.057411    39A     -0.043149
      40A     -0.037918    41A     -0.021678    42A      0.007356
      43A      0.020647    44A      0.022744    45A      0.025850
      46A      0.028534    47A      0.064745    48A      0.068482
      49A      0.092911

  @DF-RHF Final Energy: -1245.34541633790991

   => Energetics <=

    Nuclear Repulsion Energy =            820.7015747088127000
    One-Electron Energy =               -3406.5912121500891772
    Two-Electron Energy =                1340.5442211033666808
    Total Energy =                      -1245.3454163379099100
  Basis Set: (AUG-CC-PVTZ AUX)
    Blend: AUG-CC-PVTZ-RI
    Molecular point group: c1

    Geometry (in Angstrom), charge = -3, multiplicity = 1:

       Center              X                  Y                   Z               Mass
    ------------   -----------------  -----------------  -----------------  -----------------
         P            1.241670193463    -0.577775393974     0.011384167725    30.973761998420
         P           -1.785637806537     0.195557606026     0.006062167725    30.973761998420
         O            1.404540193463     1.047843606026    -0.370349832275    15.994914619570
         O           -0.336847506537    -0.792804493974    -0.206327632275    15.994914619570
         O            1.975899193463    -1.383723393974    -1.045428832275    15.994914619570
         O            1.665405193463    -0.752343393974     1.458646167725    15.994914619570
         O           -1.773375606537     1.116594106026    -1.220523832275    15.994914619570
         O           -1.607673806537     0.887033606026     1.366415167725    15.994914619570
         O           -2.848341806537    -0.910339393974    -0.026660832275    15.994914619570
         C            2.674420193463     1.596018606026    -0.005964832275    12.000000000000
         H            2.783539193463     1.643110606026     1.080758167725     1.007825032230
         H            3.496493193463     0.999653606026    -0.417928832275     1.007825032230
         H            2.723768193463     2.602514606026    -0.426033832275     1.007825032230

  Basis Set: AUG-CC-PVTZ
    Blend: AUG-CC-PVTZ
  Basis Set: (AUG-CC-PVTZ AUX)
    Blend: AUG-CC-PVTZ-JKFIT
	 Reference Energy          =   -1245.3454163379099100 [Eh]
	 Singles Energy            =      -0.0000000000000000 [Eh]
	 Same-Spin Energy          =      -0.6460476747583002 [Eh]
	 Opposite-Spin Energy      =      -1.8063323451470463 [Eh]
	 Correlation Energy        =      -2.4523800199053465 [Eh]
	 Total Energy              =   -1247.7977963578152867 [Eh]

	 ================> DF-SCS-MP2 Energies <==================
	-----------------------------------------------------------
	 SCS Same-Spin Scale       =       0.3333333333333333 [-]
	 SCS Opposite-Spin Scale   =       1.2000000000000000 [-]
	 SCS Same-Spin Energy      =      -0.2153492249194334 [Eh]
	 SCS Opposite-Spin Energy  =      -2.1675988141764555 [Eh]
	 SCS Correlation Energy    =      -2.3829480390958890 [Eh]
	 SCS Total Energy          =   -1247.7283643770058461 [Eh]
	-----------------------------------------------------------

  Dipole Moment: [D]
     X:     7.8565      Y:     2.3334      Z:    -0.4416     Total:     8.2075

*** Psi4 exiting successfully. Buy a developer a beer!
