                               Psi4 1.3.2 release

  ==> Input File <==

--------------------------------------------------------------------------
#psi4
#
memory 32 gb

molecule  {
-3 1
  P        1.1931290    -0.6069630     0.0087730
  P       -1.8341790     0.1663700     0.0034510
  O        1.3369645     1.0068044    -0.4270603
  O       -0.3886030    -0.8294050    -0.1958090
  O        1.9273580    -1.4129110    -1.0480400
  O        1.6065406    -0.8333346     1.4518390
  O       -1.8332320     1.0931450    -1.2188660
  O       -1.6562150     0.8578460     1.3638040
  O       -2.8968830    -0.9395270    -0.0292720
  C        2.6258790     1.5668310    -0.0085760
  H        2.7349980     1.6139230     1.0781470
  H        3.4479520     0.9704660    -0.4205400
  H        2.6752270     2.5733270    -0.4286450
units angstrom
no_reorient  #important for SAPT in psi4, default
symmetry c1  #important for SAPT in psi4, default
}

set PROPERTIES_ORIGIN ["COM"]
properties('MP2/aug-cc-pvtz', properties = ['dipole'])
--------------------------------------------------------------------------

    Molecular point group: c1
  Charge       = -3
  Multiplicity = 1
  Basis Set: AUG-CC-PVTZ
    Blend: AUG-CC-PVTZ
  Basis Set: (AUG-CC-PVTZ AUX)
    Blend: AUG-CC-PVTZ-JKFIT

    Orbital Energies [Eh]
    ---------------------

    Doubly Occupied:

       1A    -79.620588     2A    -79.558136     3A    -20.158443
       4A    -20.077358     5A    -20.053037     6A    -20.050493
       7A    -19.998282     8A    -19.997787     9A    -19.997003
      10A    -10.922280    11A     -7.134769    12A     -7.071929
      13A     -5.034067    14A     -5.032487    15A     -5.031779
      16A     -4.971478    17A     -4.969059    18A     -4.968934
      19A     -0.959057    20A     -0.883204    21A     -0.840496
      22A     -0.801572    23A     -0.797221    24A     -0.740764
      25A     -0.739721    26A     -0.565218    27A     -0.333724
      28A     -0.279616    29A     -0.252756    30A     -0.222487
      31A     -0.187461    32A     -0.146942    33A     -0.142959
      34A     -0.118117    35A     -0.092099    36A     -0.087180
      37A     -0.066902    38A     -0.056146    39A     -0.042426
      40A     -0.036425    41A     -0.022118    42A      0.008060
      43A      0.022115    44A      0.023700    45A      0.026658
      46A      0.029873    47A      0.066055    48A      0.069441
      49A      0.093965

  @DF-RHF Final Energy: -1245.34021577172371

   => Energetics <=

    Nuclear Repulsion Energy =            819.8815066557258433
    One-Electron Energy =               -3404.9981460439767034
    Two-Electron Energy =                1339.7764236165271541
    Total Energy =                      -1245.3402157717237060
  Basis Set: (AUG-CC-PVTZ AUX)
    Blend: AUG-CC-PVTZ-RI
    Molecular point group: c1

    Geometry (in Angstrom), charge = -3, multiplicity = 1:

       Center              X                  Y                   Z               Mass
    ------------   -----------------  -----------------  -----------------  -----------------
         P            1.245385617945    -0.572244713296     0.014846388256    30.973761998420
         P           -1.781922382055     0.201088286704     0.009524388256    30.973761998420
         O            1.389221117945     1.041522686704    -0.420986911744    15.994914619570
         O           -0.336346382055    -0.794686713296    -0.189735611744    15.994914619570
         O            1.979614617945    -1.378192713296    -1.041966611744    15.994914619570
         O            1.658797217945    -0.798616313296     1.457912388256    15.994914619570
         O           -1.780975382055     1.127863286704    -1.212792611744    15.994914619570
         O           -1.603958382055     0.892564286704     1.369877388256    15.994914619570
         O           -2.844626382055    -0.904808713296    -0.023198611744    15.994914619570
         C            2.678135617945     1.601549286704    -0.002502611744    12.000000000000
         H            2.787254617945     1.648641286704     1.084220388256     1.007825032230
         H            3.500208617945     1.005184286704    -0.414466611744     1.007825032230
         H            2.727483617945     2.608045286704    -0.422571611744     1.007825032230

  Basis Set: AUG-CC-PVTZ
    Blend: AUG-CC-PVTZ
  Basis Set: (AUG-CC-PVTZ AUX)
    Blend: AUG-CC-PVTZ-JKFIT
	 Reference Energy          =   -1245.3402157717237060 [Eh]
	 Singles Energy            =      -0.0000000000000000 [Eh]
	 Same-Spin Energy          =      -0.6463413622671135 [Eh]
	 Opposite-Spin Energy      =      -1.8075832731862169 [Eh]
	 Correlation Energy        =      -2.4539246354533306 [Eh]
	 Total Energy              =   -1247.7941404071771103 [Eh]

	 ================> DF-SCS-MP2 Energies <==================
	-----------------------------------------------------------
	 SCS Same-Spin Scale       =       0.3333333333333333 [-]
	 SCS Opposite-Spin Scale   =       1.2000000000000000 [-]
	 SCS Same-Spin Energy      =      -0.2154471207557045 [Eh]
	 SCS Opposite-Spin Energy  =      -2.1690999278234604 [Eh]
	 SCS Correlation Energy    =      -2.3845470485791651 [Eh]
	 SCS Total Energy          =   -1247.7247628203028853 [Eh]
	-----------------------------------------------------------

  Dipole Moment: [D]
     X:     8.0487      Y:     2.5186      Z:    -0.3882     Total:     8.4425

*** Psi4 exiting successfully. Buy a developer a beer!
