                               Psi4 1.3.2 release

  ==> Input File <==

--------------------------------------------------------------------------
#psi4
#
memory 32 gb

molecule  {
-3 1
  P        1.1931290    -0.6069630     0.0087730
  P       -1.8341790     0.1663700     0.0034510
  O        1.4420641     1.0114157    -0.3569678
  O       -0.3778631    -0.9100688    -0.1737676
  O        1.9273580    -1.4129110    -1.0480400
  O        1.6168640    -0.7815310     1.4560350
  O       -1.8332320     1.0931450    -1.2188660
  O       -1.6562150     0.8578460     1.3638040
  O       -2.8968830    -0.9395270    -0.0292720
  C        2.6258790     1.5668310    -0.0085760
  H        2.7349980     1.6139230     1.0781470
  H        3.4479520     0.9704660    -0.4205400
  H        2.6752270     2.5733270    -0.4286450
units angstrom
no_reorient  #important for SAPT in psi4, default
symmetry c1  #important for SAPT in psi4, default
}

set PROPERTIES_ORIGIN ["COM"]
properties('MP2/aug-cc-pvtz', properties = ['dipole'])
--------------------------------------------------------------------------

    Molecular point group: c1
  Charge       = -3
  Multiplicity = 1
  Basis Set: AUG-CC-PVTZ
    Blend: AUG-CC-PVTZ
  Basis Set: (AUG-CC-PVTZ AUX)
    Blend: AUG-CC-PVTZ-JKFIT

    Orbital Energies [Eh]
    ---------------------

    Doubly Occupied:

       1A    -79.620679     2A    -79.566598     3A    -20.149460
       4A    -20.084951     5A    -20.049827     6A    -20.045910
       7A    -20.008777     8A    -20.004477     9A    -20.002992
      10A    -10.911042    11A     -7.134849    12A     -7.080286
      13A     -5.034042    14A     -5.032695    15A     -5.031734
      16A     -4.979800    17A     -4.977285    18A     -4.977180
      19A     -0.987378    20A     -0.888800    21A     -0.840443
      22A     -0.801669    23A     -0.798906    24A     -0.748518
      25A     -0.745743    26A     -0.555964    27A     -0.340197
      28A     -0.282573    29A     -0.264782    30A     -0.246726
      31A     -0.186005    32A     -0.148936    33A     -0.139845
      34A     -0.106822    35A     -0.094208    36A     -0.089253
      37A     -0.065201    38A     -0.060260    39A     -0.043342
      40A     -0.034464    41A     -0.018221    42A      0.010524
      43A      0.017650    44A      0.019055    45A      0.022291
      46A      0.029980    47A      0.058948    48A      0.061472
      49A      0.086946

  @DF-RHF Final Energy: -1245.34229441936532

   => Energetics <=

    Nuclear Repulsion Energy =            818.7927789751456658
    One-Electron Energy =               -3402.5221943376368472
    Two-Electron Energy =                1338.3871209431258649
    Total Energy =                      -1245.3422944193653166
  Basis Set: (AUG-CC-PVTZ AUX)
    Blend: AUG-CC-PVTZ-RI
    Molecular point group: c1

    Geometry (in Angstrom), charge = -3, multiplicity = 1:

       Center              X                  Y                   Z               Mass
    ------------   -----------------  -----------------  -----------------  -----------------
         P            1.234704904863    -0.570191847172     0.006691280668    30.973761998420
         P           -1.792603095137     0.203141152828     0.001369280668    30.973761998420
         O            1.483640004863     1.048186852828    -0.359049519332    15.994914619570
         O           -0.336287195137    -0.873297647172    -0.175849319332    15.994914619570
         O            1.968933904863    -1.376139847172    -1.050121719332    15.994914619570
         O            1.658439904863    -0.744759847172     1.453953280668    15.994914619570
         O           -1.791656095137     1.129916152828    -1.220947719332    15.994914619570
         O           -1.614639095137     0.894617152828     1.361722280668    15.994914619570
         O           -2.855307095137    -0.902755847172    -0.031353719332    15.994914619570
         C            2.667454904863     1.603602152828    -0.010657719332    12.000000000000
         H            2.776573904863     1.650694152828     1.076065280668     1.007825032230
         H            3.489527904863     1.007237152828    -0.422621719332     1.007825032230
         H            2.716802904863     2.610098152828    -0.430726719332     1.007825032230

  Basis Set: AUG-CC-PVTZ
    Blend: AUG-CC-PVTZ
  Basis Set: (AUG-CC-PVTZ AUX)
    Blend: AUG-CC-PVTZ-JKFIT
	 Reference Energy          =   -1245.3422944193653166 [Eh]
	 Singles Energy            =      -0.0000000000000000 [Eh]
	 Same-Spin Energy          =      -0.6460010359358297 [Eh]
	 Opposite-Spin Energy      =      -1.8055366546192322 [Eh]
	 Correlation Energy        =      -2.4515376905550621 [Eh]
	 Total Energy              =   -1247.7938321099204586 [Eh]

	 ================> DF-SCS-MP2 Energies <==================
	-----------------------------------------------------------
	 SCS Same-Spin Scale       =       0.3333333333333333 [-]
	 SCS Opposite-Spin Scale   =       1.2000000000000000 [-]
	 SCS Same-Spin Energy      =      -0.2153336786452766 [Eh]
	 SCS Opposite-Spin Energy  =      -2.1666439855430784 [Eh]
	 SCS Correlation Energy    =      -2.3819776641883550 [Eh]
	 SCS Total Energy          =   -1247.7242720835536147 [Eh]
	-----------------------------------------------------------

  Dipole Moment: [D]
     X:     7.2463      Y:     2.4449      Z:    -0.5275     Total:     7.6658

*** Psi4 exiting successfully. Buy a developer a beer!
