                               Psi4 1.3.2 release

  ==> Input File <==

--------------------------------------------------------------------------
#psi4
#
memory 32 gb

molecule  {
-3 1
  P        1.1931290    -0.6069630     0.0087730
  P       -1.8341790     0.1663700     0.0034510
  O        1.3559990     1.0186560    -0.3729610
  O       -0.3886030    -0.8294050    -0.1958090
  O        1.9349027    -1.4183237    -1.0385873
  O        1.6260504    -0.7902847     1.4522289
  O       -1.8332320     1.0931450    -1.2188660
  O       -1.6562150     0.8578460     1.3638040
  O       -2.8968830    -0.9395270    -0.0292720
  C        2.6258790     1.5668310    -0.0085760
  H        2.7349980     1.6139230     1.0781470
  H        3.4479520     0.9704660    -0.4205400
  H        2.6752270     2.5733270    -0.4286450
units angstrom
no_reorient  #important for SAPT in psi4, default
symmetry c1  #important for SAPT in psi4, default
}

set PROPERTIES_ORIGIN ["COM"]
properties('MP2/aug-cc-pvtz', properties = ['dipole'])
--------------------------------------------------------------------------

    Molecular point group: c1
  Charge       = -3
  Multiplicity = 1
  Basis Set: AUG-CC-PVTZ
    Blend: AUG-CC-PVTZ
  Basis Set: (AUG-CC-PVTZ AUX)
    Blend: AUG-CC-PVTZ-JKFIT

    Orbital Energies [Eh]
    ---------------------

    Doubly Occupied:

       1A    -79.621938     2A    -79.559529     3A    -20.153591
       4A    -20.081461     5A    -20.053891     6A    -20.049985
       7A    -19.999648     8A    -19.999128     9A    -19.997691
      10A    -10.917299    11A     -7.135975    12A     -7.073347
      13A     -5.035278    14A     -5.033728    15A     -5.032987
      16A     -4.972914    17A     -4.970459    18A     -4.970329
      19A     -0.965556    20A     -0.886975    21A     -0.841732
      22A     -0.801715    23A     -0.799403    24A     -0.742103
      25A     -0.740606    26A     -0.560893    27A     -0.336497
      28A     -0.282435    29A     -0.254407    30A     -0.228792
      31A     -0.186989    32A     -0.147506    33A     -0.143404
      34A     -0.114762    35A     -0.093265    36A     -0.088824
      37A     -0.063252    38A     -0.057819    39A     -0.043323
      40A     -0.038041    41A     -0.022254    42A      0.007882
      43A      0.021251    44A      0.022381    45A      0.025480
      46A      0.028476    47A      0.064735    48A      0.068135
      49A      0.092899

  @DF-RHF Final Energy: -1245.34550756534418

   => Energetics <=

    Nuclear Repulsion Energy =            820.2636467597715182
    One-Electron Energy =               -3405.6813257192143283
    Two-Electron Energy =                1340.0721713940988593
    Total Energy =                      -1245.3455075653441781
  Basis Set: (AUG-CC-PVTZ AUX)
    Blend: AUG-CC-PVTZ-RI
    Molecular point group: c1

    Geometry (in Angstrom), charge = -3, multiplicity = 1:

       Center              X                  Y                   Z               Mass
    ------------   -----------------  -----------------  -----------------  -----------------
         P            1.241483810161    -0.576434341733     0.009433187641    30.973761998420
         P           -1.785824189839     0.196898658267     0.004111187641    30.973761998420
         O            1.404353810161     1.049184658267    -0.372300812359    15.994914619570
         O           -0.340248189839    -0.798876341733    -0.195148812359    15.994914619570
         O            1.983257510161    -1.387795041733    -1.037927112359    15.994914619570
         O            1.674405210161    -0.759756041733     1.452889087641    15.994914619570
         O           -1.784877189839     1.123673658267    -1.218205812359    15.994914619570
         O           -1.607860189839     0.888374658267     1.364464187641    15.994914619570
         O           -2.848528189839    -0.908998341733    -0.028611812359    15.994914619570
         C            2.674233810161     1.597359658267    -0.007915812359    12.000000000000
         H            2.783352810161     1.644451658267     1.078807187641     1.007825032230
         H            3.496306810161     1.000994658267    -0.419879812359     1.007825032230
         H            2.723581810161     2.603855658267    -0.427984812359     1.007825032230

  Basis Set: AUG-CC-PVTZ
    Blend: AUG-CC-PVTZ
  Basis Set: (AUG-CC-PVTZ AUX)
    Blend: AUG-CC-PVTZ-JKFIT
	 Reference Energy          =   -1245.3455075653441781 [Eh]
	 Singles Energy            =      -0.0000000000000000 [Eh]
	 Same-Spin Energy          =      -0.6459957821919555 [Eh]
	 Opposite-Spin Energy      =      -1.8062738737694870 [Eh]
	 Correlation Energy        =      -2.4522696559614428 [Eh]
	 Total Energy              =   -1247.7977772213055232 [Eh]

	 ================> DF-SCS-MP2 Energies <==================
	-----------------------------------------------------------
	 SCS Same-Spin Scale       =       0.3333333333333333 [-]
	 SCS Opposite-Spin Scale   =       1.2000000000000000 [-]
	 SCS Same-Spin Energy      =      -0.2153319273973185 [Eh]
	 SCS Opposite-Spin Energy  =      -2.1675286485233842 [Eh]
	 SCS Correlation Energy    =      -2.3828605759207027 [Eh]
	 SCS Total Energy          =   -1247.7283681412648093 [Eh]
	-----------------------------------------------------------

  Dipole Moment: [D]
     X:     7.8656      Y:     2.3717      Z:    -0.4858     Total:     8.2297

*** Psi4 exiting successfully. Buy a developer a beer!
