                               Psi4 1.4a3.dev225

  ==> Input File <==

--------------------------------------------------------------------------
#psi4
#
memory 32 gb

molecule  {
-3 1
  P       -1.1253500     0.3591720     0.0081310
  P        2.0878660    -0.1053470     0.0007630
  O       -2.1391380    -1.0979190    -0.1147190
  O        0.2405970    -0.4148950    -0.1339660
  O       -1.5628960     1.1822930    -1.2021870
  O       -1.4798135     0.9141130     1.4068942
  O        2.4385690    -0.8874190     1.2758270
  O        2.1989840     1.4211450     0.0869110
  O        2.5676630    -0.7478960    -1.3107960
  C       -3.4907010    -0.7724380    -0.0147870
  H       -3.7335280    -0.2943150     0.9495100
  H       -3.8114220    -0.0788120    -0.8111520
  H       -4.0969940    -1.6975630    -0.1019980
units angstrom
no_reorient  #important for SAPT in psi4, default
symmetry c1  #important for SAPT in psi4, default
}

set PROPERTIES_ORIGIN ["COM"]
properties('MP2/aug-cc-pvtz', properties = ['dipole'])
--------------------------------------------------------------------------

    Molecular point group: c1
  Charge       = -3
  Multiplicity = 1
  Basis Set: AUG-CC-PVTZ
    Blend: AUG-CC-PVTZ
  Basis Set: (AUG-CC-PVTZ AUX)
    Blend: AUG-CC-PVTZ-JKFIT

    Orbital Energies [Eh]
    ---------------------

    Doubly Occupied:

       1A    -79.632478     2A    -79.586162     3A    -20.146729
       4A    -20.090047     5A    -20.057702     6A    -20.056314
       7A    -20.023215     8A    -20.022932     9A    -20.022102
      10A    -10.911515    11A     -7.144753    12A     -7.099488
      13A     -5.044252    14A     -5.042374    15A     -5.041460
      16A     -4.999197    17A     -4.996173    18A     -4.996154
      19A     -0.956231    20A     -0.887396    21A     -0.846309
      22A     -0.816109    23A     -0.798163    24A     -0.763721
      25A     -0.762535    26A     -0.543212    27A     -0.335655
      28A     -0.268796    29A     -0.246693    30A     -0.212942
      31A     -0.204636    32A     -0.156792    33A     -0.142847
      34A     -0.117779    35A     -0.098491    36A     -0.097527
      37A     -0.078945    38A     -0.053897    39A     -0.048359
      40A     -0.029308    41A     -0.013505    42A     -0.001496
      43A      0.001105    44A      0.003052    45A      0.008700
      46A      0.022155    47A      0.042628    48A      0.047560
      49A      0.070435

  @DF-RHF Final Energy: -1245.33934619721140

   => Energetics <=

    Nuclear Repulsion Energy =            796.0514521156819683
    One-Electron Energy =               -3356.3840824236240223
    Two-Electron Energy =                1314.9932841107306558
    Total Energy =                      -1245.3393461972113982
  Basis Set: (AUG-CC-PVTZ AUX)
    Blend: AUG-CC-PVTZ-RI
    Molecular point group: c1

    Geometry (in Angstrom), charge = -3, multiplicity = 1:

       Center              X                  Y                   Z               Mass
    ------------   -----------------  -----------------  -----------------  -----------------
         P           -1.190997950024     0.346391762662     0.006743923494    30.973761998420
         P            2.022218049976    -0.118127237338    -0.000624076506    30.973761998420
         O           -2.204785950024    -1.110699237338    -0.116106076506    15.994914619570
         O            0.174949049976    -0.427675237338    -0.135353076506    15.994914619570
         O           -1.628543950024     1.169512762662    -1.203574076506    15.994914619570
         O           -1.545461450024     0.901332762662     1.405507123494    15.994914619570
         O            2.372921049976    -0.900199237338     1.274439923494    15.994914619570
         O            2.133336049976     1.408364762662     0.085523923494    15.994914619570
         O            2.502015049976    -0.760676237338    -1.312183076506    15.994914619570
         C           -3.556348950024    -0.785218237338    -0.016174076506    12.000000000000
         H           -3.799175950024    -0.307095237338     0.948122923494     1.007825032230
         H           -3.877069950024    -0.091592237338    -0.812539076506     1.007825032230
         H           -4.162641950024    -1.710343237338    -0.103385076506     1.007825032230

  Basis Set: AUG-CC-PVTZ
    Blend: AUG-CC-PVTZ
  Basis Set: (AUG-CC-PVTZ AUX)
    Blend: AUG-CC-PVTZ-JKFIT
	 Reference Energy          =   -1245.3393461972113982 [Eh]
	 Singles Energy            =      -0.0000000000000000 [Eh]
	 Same-Spin Energy          =      -0.6478814939311285 [Eh]
	 Opposite-Spin Energy      =      -1.8111773451263733 [Eh]
	 Correlation Energy        =      -2.4590588390575019 [Eh]
	 Total Energy              =   -1247.7984050362688322 [Eh]

	 ================> DF-SCS-MP2 Energies <==================
	-----------------------------------------------------------
	 SCS Same-Spin Scale       =       0.3333333333333333 [-]
	 SCS Opposite-Spin Scale   =       1.2000000000000000 [-]
	 SCS Same-Spin Energy      =      -0.2159604979770428 [Eh]
	 SCS Opposite-Spin Energy  =      -2.1734128141516478 [Eh]
	 SCS Correlation Energy    =      -2.3893733121286904 [Eh]
	 SCS Total Energy          =   -1247.7287195093401806 [Eh]
	-----------------------------------------------------------

  Dipole Moment: [D]
     X:    -7.6714      Y:    -1.8618      Z:    -0.2773     Total:     7.8989

*** Psi4 exiting successfully. Buy a developer a beer!
