                               Psi4 1.3.2 release

  ==> Input File <==

--------------------------------------------------------------------------
#psi4
#
memory 32 gb

molecule  {
-3 1
  P        1.1931290    -0.6069630     0.0087730
  P       -1.8341790     0.1663700     0.0034510
  O        1.3402309     1.0118484    -0.3000734
  O       -0.3886030    -0.8294050    -0.1958090
  O        1.9273580    -1.4129110    -1.0480400
  O        1.6168640    -0.7815310     1.4560350
  O       -1.8332320     1.0931450    -1.2188660
  O       -1.6562150     0.8578460     1.3638040
  O       -2.8968830    -0.9395270    -0.0292720
  C        2.6258790     1.5668310    -0.0085760
  H        2.6826313     1.5913174     1.0828777
  H        3.4479520     0.9704660    -0.4205400
  H        2.6752270     2.5733270    -0.4286450
units angstrom
no_reorient  #important for SAPT in psi4, default
symmetry c1  #important for SAPT in psi4, default
}

set PROPERTIES_ORIGIN ["COM"]
properties('MP2/aug-cc-pvtz', properties = ['dipole'])
--------------------------------------------------------------------------

    Molecular point group: c1
  Charge       = -3
  Multiplicity = 1
  Basis Set: AUG-CC-PVTZ
    Blend: AUG-CC-PVTZ
  Basis Set: (AUG-CC-PVTZ AUX)
    Blend: AUG-CC-PVTZ-JKFIT

    Orbital Energies [Eh]
    ---------------------

    Doubly Occupied:

       1A    -79.619449     2A    -79.558438     3A    -20.151096
       4A    -20.078956     5A    -20.055889     6A    -20.045920
       7A    -19.998988     8A    -19.998178     9A    -19.996348
      10A    -10.918057    11A     -7.133767    12A     -7.072239
      13A     -5.033126    14A     -5.031580    15A     -5.030744
      16A     -4.971797    17A     -4.969361    18A     -4.969228
      19A     -0.969683    20A     -0.885386    21A     -0.840461
      22A     -0.801071    23A     -0.798043    24A     -0.741301
      25A     -0.739420    26A     -0.562511    27A     -0.336211
      28A     -0.282102    29A     -0.259667    30A     -0.231755
      31A     -0.185159    32A     -0.147044    33A     -0.143713
      34A     -0.112928    35A     -0.092164    36A     -0.088530
      37A     -0.062057    38A     -0.056828    39A     -0.041925
      40A     -0.037153    41A     -0.022429    42A      0.010133
      43A      0.022528    44A      0.023200    45A      0.026491
      46A      0.029278    47A      0.065754    48A      0.069292
      49A      0.093864

  @DF-RHF Final Energy: -1245.34409357965637

   => Energetics <=

    Nuclear Repulsion Energy =            821.7366793890025747
    One-Electron Energy =               -3408.7012249713347956
    Two-Electron Energy =                1341.6204520026756200
    Total Energy =                      -1245.3440935796563735
  Basis Set: (AUG-CC-PVTZ AUX)
    Blend: AUG-CC-PVTZ-RI
    Molecular point group: c1

    Geometry (in Angstrom), charge = -3, multiplicity = 1:

       Center              X                  Y                   Z               Mass
    ------------   -----------------  -----------------  -----------------  -----------------
         P            1.244514467179    -0.576936740370     0.003715456800    30.973761998420
         P           -1.782793532821     0.196396259630    -0.001606543200    30.973761998420
         O            1.391616367179     1.041874659630    -0.305130943200    15.994914619570
         O           -0.337217532821    -0.799378740370    -0.200866543200    15.994914619570
         O            1.978743467179    -1.382884740370    -1.053097543200    15.994914619570
         O            1.668249467179    -0.751504740370     1.450977456800    15.994914619570
         O           -1.781846532821     1.123171259630    -1.223923543200    15.994914619570
         O           -1.604829532821     0.887872259630     1.358746456800    15.994914619570
         O           -2.845497532821    -0.909500740370    -0.034329543200    15.994914619570
         C            2.677264467179     1.596857259630    -0.013633543200    12.000000000000
         H            2.734016767179     1.621343659630     1.077820156800     1.007825032230
         H            3.499337467179     1.000492259630    -0.425597543200     1.007825032230
         H            2.726612467179     2.603353259630    -0.433702543200     1.007825032230

  Basis Set: AUG-CC-PVTZ
    Blend: AUG-CC-PVTZ
  Basis Set: (AUG-CC-PVTZ AUX)
    Blend: AUG-CC-PVTZ-JKFIT
	 Reference Energy          =   -1245.3440935796563735 [Eh]
	 Singles Energy            =      -0.0000000000000000 [Eh]
	 Same-Spin Energy          =      -0.6458736430687853 [Eh]
	 Opposite-Spin Energy      =      -1.8056826408014484 [Eh]
	 Correlation Energy        =      -2.4515562838702336 [Eh]
	 Total Energy              =   -1247.7956498635267053 [Eh]

	 ================> DF-SCS-MP2 Energies <==================
	-----------------------------------------------------------
	 SCS Same-Spin Scale       =       0.3333333333333333 [-]
	 SCS Opposite-Spin Scale   =       1.2000000000000000 [-]
	 SCS Same-Spin Energy      =      -0.2152912143562618 [Eh]
	 SCS Opposite-Spin Energy  =      -2.1668191689617378 [Eh]
	 SCS Correlation Energy    =      -2.3821103833179995 [Eh]
	 SCS Total Energy          =   -1247.7262039629742958 [Eh]
	-----------------------------------------------------------

  Dipole Moment: [D]
     X:     7.9716      Y:     2.4274      Z:    -0.5783     Total:     8.3531

*** Psi4 exiting successfully. Buy a developer a beer!
