                               Psi4 1.3.2 release

  ==> Input File <==

--------------------------------------------------------------------------
#psi4
#
memory 32 gb

molecule  {
-3 1
  P        1.1931290    -0.6069630     0.0087730
  P       -1.8341790     0.1663700     0.0034510
  O        1.3559990     1.0186560    -0.3729610
  O       -0.3886030    -0.8294050    -0.1958090
  O        1.8809361    -1.3791605    -1.1030411
  O        1.5610928    -0.7287529     1.4765477
  O       -1.8332320     1.0931450    -1.2188660
  O       -1.6562150     0.8578460     1.3638040
  O       -2.8968830    -0.9395270    -0.0292720
  C        2.6258790     1.5668310    -0.0085760
  H        2.7349980     1.6139230     1.0781470
  H        3.4479520     0.9704660    -0.4205400
  H        2.6752270     2.5733270    -0.4286450
units angstrom
no_reorient  #important for SAPT in psi4, default
symmetry c1  #important for SAPT in psi4, default
}

set PROPERTIES_ORIGIN ["COM"]
properties('MP2/aug-cc-pvtz', properties = ['dipole'])
--------------------------------------------------------------------------

    Molecular point group: c1
  Charge       = -3
  Multiplicity = 1
  Basis Set: AUG-CC-PVTZ
    Blend: AUG-CC-PVTZ
  Basis Set: (AUG-CC-PVTZ AUX)
    Blend: AUG-CC-PVTZ-JKFIT

    Orbital Energies [Eh]
    ---------------------

    Doubly Occupied:

       1A    -79.622247     2A    -79.556264     3A    -20.148448
       4A    -20.074719     5A    -20.059189     6A    -20.055338
       7A    -19.996753     8A    -19.996434     9A    -19.994445
      10A    -10.915768    11A     -7.136331    12A     -7.070044
      13A     -5.035657    14A     -5.034299    15A     -5.033148
      16A     -4.969590    17A     -4.967184    18A     -4.967045
      19A     -0.963033    20A     -0.884176    21A     -0.839778
      22A     -0.809446    23A     -0.795452    24A     -0.739288
      25A     -0.737486    26A     -0.558954    27A     -0.333687
      28A     -0.280025    29A     -0.252567    30A     -0.225916
      31A     -0.187128    32A     -0.146489    33A     -0.144079
      34A     -0.112285    35A     -0.089602    36A     -0.087213
      37A     -0.063015    38A     -0.056496    39A     -0.041855
      40A     -0.037014    41A     -0.021383    42A      0.004739
      43A      0.019014    44A      0.025105    45A      0.028164
      46A      0.029651    47A      0.067735    48A      0.071473
      49A      0.095805

  @DF-RHF Final Energy: -1245.34084518921668

   => Energetics <=

    Nuclear Repulsion Energy =            821.5712548698570572
    One-Electron Energy =               -3408.4290281201142534
    Two-Electron Energy =                1341.5169280610405167
    Total Energy =                      -1245.3408451892166795
  Basis Set: (AUG-CC-PVTZ AUX)
    Blend: AUG-CC-PVTZ-RI
    Molecular point group: c1

    Geometry (in Angstrom), charge = -3, multiplicity = 1:

       Center              X                  Y                   Z               Mass
    ------------   -----------------  -----------------  -----------------  -----------------
         P            1.251551708558    -0.584958990451     0.012830941018    30.973761998420
         P           -1.775756291442     0.188374009549     0.007508941018    30.973761998420
         O            1.414421708558     1.040660009549    -0.368903058982    15.994914619570
         O           -0.330180291442    -0.807400990451    -0.191751058982    15.994914619570
         O            1.939358808558    -1.357156490451    -1.098983158982    15.994914619570
         O            1.619515508558    -0.706748890451     1.480605641018    15.994914619570
         O           -1.774809291442     1.115149009549    -1.214808058982    15.994914619570
         O           -1.597792291442     0.879850009549     1.367861941018    15.994914619570
         O           -2.838460291442    -0.917522990451    -0.025214058982    15.994914619570
         C            2.684301708558     1.588835009549    -0.004518058982    12.000000000000
         H            2.793420708558     1.635927009549     1.082204941018     1.007825032230
         H            3.506374708558     0.992470009549    -0.416482058982     1.007825032230
         H            2.733649708558     2.595331009549    -0.424587058982     1.007825032230

  Basis Set: AUG-CC-PVTZ
    Blend: AUG-CC-PVTZ
  Basis Set: (AUG-CC-PVTZ AUX)
    Blend: AUG-CC-PVTZ-JKFIT
	 Reference Energy          =   -1245.3408451892166795 [Eh]
	 Singles Energy            =      -0.0000000000000000 [Eh]
	 Same-Spin Energy          =      -0.6464134972978661 [Eh]
	 Opposite-Spin Energy      =      -1.8070009311263857 [Eh]
	 Correlation Energy        =      -2.4534144284242521 [Eh]
	 Total Energy              =   -1247.7942596176408188 [Eh]

	 ================> DF-SCS-MP2 Energies <==================
	-----------------------------------------------------------
	 SCS Same-Spin Scale       =       0.3333333333333333 [-]
	 SCS Opposite-Spin Scale   =       1.2000000000000000 [-]
	 SCS Same-Spin Energy      =      -0.2154711657659554 [Eh]
	 SCS Opposite-Spin Energy  =      -2.1684011173516629 [Eh]
	 SCS Correlation Energy    =      -2.3838722831176185 [Eh]
	 SCS Total Energy          =   -1247.7247174723343051 [Eh]
	-----------------------------------------------------------

  Dipole Moment: [D]
     X:     8.1950      Y:     2.0960      Z:    -0.3870     Total:     8.4676

*** Psi4 exiting successfully. Buy a developer a beer!
