                               Psi4 1.3.2 release

  ==> Input File <==

--------------------------------------------------------------------------
#psi4
#
memory 32 gb

molecule  {
-3 1
  P        1.1931290    -0.6069630     0.0087730
  P       -1.8341790     0.1663700     0.0034510
  O        1.3752478     1.0269661    -0.4448499
  O       -0.3886030    -0.8294050    -0.1958090
  O        1.9273580    -1.4129110    -1.0480400
  O        1.6168640    -0.7815310     1.4560350
  O       -1.8332320     1.0931450    -1.2188660
  O       -1.6562150     0.8578460     1.3638040
  O       -2.8968830    -0.9395270    -0.0292720
  C        2.6258790     1.5668310    -0.0085760
  H        2.7870656     1.6363995     1.0704377
  H        3.4479520     0.9704660    -0.4205400
  H        2.6752270     2.5733270    -0.4286450
units angstrom
no_reorient  #important for SAPT in psi4, default
symmetry c1  #important for SAPT in psi4, default
}

set PROPERTIES_ORIGIN ["COM"]
properties('MP2/aug-cc-pvtz', properties = ['dipole'])
--------------------------------------------------------------------------

    Molecular point group: c1
  Charge       = -3
  Multiplicity = 1
  Basis Set: AUG-CC-PVTZ
    Blend: AUG-CC-PVTZ
  Basis Set: (AUG-CC-PVTZ AUX)
    Blend: AUG-CC-PVTZ-JKFIT

    Orbital Energies [Eh]
    ---------------------

    Doubly Occupied:

       1A    -79.624997     2A    -79.559883     3A    -20.154427
       4A    -20.082499     5A    -20.055836     6A    -20.053973
       7A    -19.999663     8A    -19.999484     9A    -19.998270
      10A    -10.915656    11A     -7.138756    12A     -7.073711
      13A     -5.038018    14A     -5.036497    15A     -5.035729
      16A     -4.973280    17A     -4.970819    18A     -4.970687
      19A     -0.960334    20A     -0.888074    21A     -0.842926
      22A     -0.804988    23A     -0.799735    24A     -0.742285
      25A     -0.741064    26A     -0.558238    27A     -0.335979
      28A     -0.282014    29A     -0.250070    30A     -0.221981
      31A     -0.189338    32A     -0.147569    33A     -0.143270
      34A     -0.116769    35A     -0.093280    36A     -0.088536
      37A     -0.063626    38A     -0.058493    39A     -0.044015
      40A     -0.039006    41A     -0.022318    42A      0.004932
      43A      0.019378    44A      0.022081    45A      0.025078
      46A      0.027284    47A      0.064371    48A      0.067753
      49A      0.092597

  @DF-RHF Final Energy: -1245.34206257402820

   => Energetics <=

    Nuclear Repulsion Energy =            818.9835541675029162
    One-Electron Energy =               -3403.0659936465544888
    Two-Electron Energy =                1338.7403769050233677
    Total Energy =                      -1245.3420625740282048
  Basis Set: (AUG-CC-PVTZ AUX)
    Blend: AUG-CC-PVTZ-RI
    Molecular point group: c1

    Geometry (in Angstrom), charge = -3, multiplicity = 1:

       Center              X                  Y                   Z               Mass
    ------------   -----------------  -----------------  -----------------  -----------------
         P            1.240992925835    -0.578457054654     0.016038319970    30.973761998420
         P           -1.786315074165     0.194875945346     0.010716319970    30.973761998420
         O            1.423111725835     1.055472045346    -0.437584580030    15.994914619570
         O           -0.340739074165    -0.800899054654    -0.188543680030    15.994914619570
         O            1.975221925835    -1.384405054654    -1.040774680030    15.994914619570
         O            1.664727925835    -0.753025054654     1.463300319970    15.994914619570
         O           -1.785368074165     1.121650945346    -1.211600680030    15.994914619570
         O           -1.608351074165     0.886351945346     1.371069319970    15.994914619570
         O           -2.849019074165    -0.911021054654    -0.022006680030    15.994914619570
         C            2.673742925835     1.595336945346    -0.001310680030    12.000000000000
         H            2.834929525835     1.664905445346     1.077703019970     1.007825032230
         H            3.495815925835     0.998971945346    -0.413274680030     1.007825032230
         H            2.723090925835     2.601832945346    -0.421379680030     1.007825032230

  Basis Set: AUG-CC-PVTZ
    Blend: AUG-CC-PVTZ
  Basis Set: (AUG-CC-PVTZ AUX)
    Blend: AUG-CC-PVTZ-JKFIT
	 Reference Energy          =   -1245.3420625740282048 [Eh]
	 Singles Energy            =      -0.0000000000000000 [Eh]
	 Same-Spin Energy          =      -0.6464156198432826 [Eh]
	 Opposite-Spin Energy      =      -1.8074333801393523 [Eh]
	 Correlation Energy        =      -2.4538489999826347 [Eh]
	 Total Energy              =   -1247.7959115740109155 [Eh]

	 ================> DF-SCS-MP2 Energies <==================
	-----------------------------------------------------------
	 SCS Same-Spin Scale       =       0.3333333333333333 [-]
	 SCS Opposite-Spin Scale   =       1.2000000000000000 [-]
	 SCS Same-Spin Energy      =      -0.2154718732810942 [Eh]
	 SCS Opposite-Spin Energy  =      -2.1689200561672228 [Eh]
	 SCS Correlation Energy    =      -2.3843919294483169 [Eh]
	 SCS Total Energy          =   -1247.7264545034765888 [Eh]
	-----------------------------------------------------------

  Dipole Moment: [D]
     X:     7.8284      Y:     2.2105      Z:    -0.3688     Total:     8.1428

*** Psi4 exiting successfully. Buy a developer a beer!
