                               Psi4 1.4a3.dev225

  ==> Input File <==

--------------------------------------------------------------------------
#psi4
#
memory 32 gb

molecule  {
1 1
  N       -1.8084550     0.0000000    -0.7896910
  C       -1.0774430     0.0000000     0.5533100
  C       -0.2407120    -1.2715670     0.6435230
  C       -0.2407120     1.2715670     0.6435240
  C        0.9483640    -1.2633510    -0.3226430
  C        0.9483630     1.2633510    -0.3226440
  C        1.7921720     0.0000000    -0.1500480
  H       -1.8788710     0.0000000     1.2988220
  H       -0.8715790    -2.1591400     0.5029120
  H        0.1300900    -1.3254650     1.6735610
  H        0.1300910     1.3254640     1.6735620
  H       -0.8715790     2.1591400     0.5029130
  H        0.6104140    -1.3458840    -1.3672040
  H        1.5530020    -2.1580160    -0.1459610
  H        1.5419491     2.1416628    -0.1491915
  H        0.6104120     1.3458830    -1.3672040
  H        2.2390370     0.0000010     0.8520310
  H        2.6220820     0.0000000    -0.8633810
  H       -1.1366960    -0.0000120    -1.5675160
  H       -2.4051950     0.8313860    -0.8944410
  H       -2.4052130    -0.8313750    -0.8944310
units angstrom
no_reorient  #important for SAPT in psi4, default
symmetry c1  #important for SAPT in psi4, default
}

set PROPERTIES_ORIGIN ["COM"]
properties('MP2/aug-cc-pvtz', properties = ['dipole'])
--------------------------------------------------------------------------

    Molecular point group: c1
  Charge       = 1
  Multiplicity = 1
  Basis Set: AUG-CC-PVTZ
    Blend: AUG-CC-PVTZ
  Basis Set: (AUG-CC-PVTZ AUX)
    Blend: AUG-CC-PVTZ-JKFIT

    Orbital Energies [Eh]
    ---------------------

    Doubly Occupied:

       1A    -15.874470     2A    -11.466690     3A    -11.390418
       4A    -11.390385     5A    -11.371553     6A    -11.369387
       7A    -11.357762     8A     -1.492349     9A     -1.277710
      10A     -1.173152    11A     -1.170791    12A     -1.010166
      13A     -1.007224    14A     -0.950915    15A     -0.934275
      16A     -0.918900    17A     -0.815475    18A     -0.814272
      19A     -0.765141    20A     -0.756456    21A     -0.699263
      22A     -0.696358    23A     -0.687249    24A     -0.686448
      25A     -0.646631    26A     -0.611113    27A     -0.596484
      28A     -0.594911

  @DF-RHF Final Energy:  -289.70983245652980

   => Energetics <=

    Nuclear Repulsion Energy =            346.8002753101994244
    One-Electron Energy =               -1067.9683191260824060
    Two-Electron Energy =                 431.4582113593532426
    Total Energy =                       -289.7098324565297958
  Basis Set: (AUG-CC-PVTZ AUX)
    Blend: AUG-CC-PVTZ-RI
    Molecular point group: c1

    Geometry (in Angstrom), charge = 1, multiplicity = 1:

       Center              X                  Y                   Z               Mass
    ------------   -----------------  -----------------  -----------------  -----------------
         N           -1.809487492757     0.000164646368    -0.796990780680    14.003074004430
         C           -1.078475492757     0.000164646368     0.546010219320    12.000000000000
         C           -0.241744492757    -1.271402353632     0.636223219320    12.000000000000
         C           -0.241744492757     1.271731646368     0.636224219320    12.000000000000
         C            0.947331507243    -1.263186353632    -0.329942780680    12.000000000000
         C            0.947330507243     1.263515646368    -0.329943780680    12.000000000000
         C            1.791139507243     0.000164646368    -0.157347780680    12.000000000000
         H           -1.879903492757     0.000164646368     1.291522219320     1.007825032230
         H           -0.872611492757    -2.158975353632     0.495612219320     1.007825032230
         H            0.129057507243    -1.325300353632     1.666261219320     1.007825032230
         H            0.129058507243     1.325628646368     1.666262219320     1.007825032230
         H           -0.872611492757     2.159304646368     0.495613219320     1.007825032230
         H            0.609381507243    -1.345719353632    -1.374503780680     1.007825032230
         H            1.551969507243    -2.157851353632    -0.153260780680     1.007825032230
         H            1.540916607243     2.141827446368    -0.156491280680     1.007825032230
         H            0.609379507243     1.346047646368    -1.374503780680     1.007825032230
         H            2.238004507243     0.000165646368     0.844731219320     1.007825032230
         H            2.621049507243     0.000164646368    -0.870680780680     1.007825032230
         H           -1.137728492757     0.000152646368    -1.574815780680     1.007825032230
         H           -2.406227492757     0.831550646368    -0.901740780680     1.007825032230
         H           -2.406245492757    -0.831210353632    -0.901730780680     1.007825032230

  Basis Set: AUG-CC-PVTZ
    Blend: AUG-CC-PVTZ
  Basis Set: (AUG-CC-PVTZ AUX)
    Blend: AUG-CC-PVTZ-JKFIT
	 Reference Energy          =    -289.7098324565297958 [Eh]
	 Singles Energy            =      -0.0000000000000000 [Eh]
	 Same-Spin Energy          =      -0.3076201866541953 [Eh]
	 Opposite-Spin Energy      =      -1.0937575218585089 [Eh]
	 Correlation Energy        =      -1.4013777085127042 [Eh]
	 Total Energy              =    -291.1112101650425075 [Eh]

	 ================> DF-SCS-MP2 Energies <==================
	-----------------------------------------------------------
	 SCS Same-Spin Scale       =       0.3333333333333333 [-]
	 SCS Opposite-Spin Scale   =       1.2000000000000000 [-]
	 SCS Same-Spin Energy      =      -0.1025400622180651 [Eh]
	 SCS Opposite-Spin Energy  =      -1.3125090262302106 [Eh]
	 SCS Correlation Energy    =      -1.4150490884482756 [Eh]
	 SCS Total Energy          =    -291.1248815449780523 [Eh]
	-----------------------------------------------------------

  Dipole Moment: [D]
     X:    -5.5969      Y:     0.0064      Z:    -2.0520     Total:     5.9612

*** Psi4 exiting successfully. Buy a developer a beer!
