                               Psi4 1.4a3.dev225

  ==> Input File <==

--------------------------------------------------------------------------
#psi4
#
memory 32 gb

molecule  {
1 1
  N       -1.8084550     0.0000000    -0.7896910
  C       -1.0774430     0.0000000     0.5533100
  C       -0.2407120    -1.2715670     0.6435230
  C       -0.2407120     1.2715670     0.6435240
  C        0.9483640    -1.2633510    -0.3226430
  C        0.9483630     1.2633510    -0.3226440
  C        1.7490599    -0.0292500    -0.1616286
  H       -1.8788710     0.0000000     1.2988220
  H       -0.8715790    -2.1591400     0.5029120
  H        0.1300900    -1.3254650     1.6735610
  H        0.1300910     1.3254640     1.6735620
  H       -0.8715790     2.1591400     0.5029130
  H        0.6104140    -1.3458840    -1.3672040
  H        1.5530020    -2.1580160    -0.1459610
  H        1.5530010     2.1580160    -0.1459620
  H        0.6104120     1.3458830    -1.3672040
  H        2.2390370     0.0000010     0.8520310
  H        2.6220820     0.0000000    -0.8633810
  H       -1.1366960    -0.0000120    -1.5675160
  H       -2.4051950     0.8313860    -0.8944410
  H       -2.4052130    -0.8313750    -0.8944310
units angstrom
no_reorient  #important for SAPT in psi4, default
symmetry c1  #important for SAPT in psi4, default
}

set PROPERTIES_ORIGIN ["COM"]
properties('MP2/aug-cc-pvtz', properties = ['dipole'])
--------------------------------------------------------------------------

    Molecular point group: c1
  Charge       = 1
  Multiplicity = 1
  Basis Set: AUG-CC-PVTZ
    Blend: AUG-CC-PVTZ
  Basis Set: (AUG-CC-PVTZ AUX)
    Blend: AUG-CC-PVTZ-JKFIT

    Orbital Energies [Eh]
    ---------------------

    Doubly Occupied:

       1A    -15.874725     2A    -11.467115     3A    -11.390679
       4A    -11.390078     5A    -11.372238     6A    -11.370564
       7A    -11.359873     8A     -1.492662     9A     -1.281081
      10A     -1.176858    11A     -1.171425    12A     -1.010819
      13A     -1.006917    14A     -0.951274    15A     -0.934665
      16A     -0.915889    17A     -0.815886    18A     -0.814761
      19A     -0.764243    20A     -0.757030    21A     -0.702514
      22A     -0.697925    23A     -0.687345    24A     -0.685172
      25A     -0.647364    26A     -0.608645    27A     -0.598990
      28A     -0.588224

  @DF-RHF Final Energy:  -289.70603644034748

   => Energetics <=

    Nuclear Repulsion Energy =            347.4295723129385465
    One-Electron Energy =               -1069.2012929046939007
    Two-Electron Energy =                 432.0656841514079360
    Total Energy =                       -289.7060364403474750
  Basis Set: (AUG-CC-PVTZ AUX)
    Blend: AUG-CC-PVTZ-RI
    Molecular point group: c1

    Geometry (in Angstrom), charge = 1, multiplicity = 1:

       Center              X                  Y                   Z               Mass
    ------------   -----------------  -----------------  -----------------  -----------------
         N           -1.804431119285     0.003506071463    -0.795635183124    14.003074004430
         C           -1.073419119285     0.003506071463     0.547365816876    12.000000000000
         C           -0.236688119285    -1.268060928537     0.637578816876    12.000000000000
         C           -0.236688119285     1.275073071463     0.637579816876    12.000000000000
         C            0.952387880715    -1.259844928537    -0.328587183124    12.000000000000
         C            0.952386880715     1.266857071463    -0.328588183124    12.000000000000
         C            1.753083780715    -0.025743928537    -0.167572783124    12.000000000000
         H           -1.874847119285     0.003506071463     1.292877816876     1.007825032230
         H           -0.867555119285    -2.155633928537     0.496967816876     1.007825032230
         H            0.134113880715    -1.321958928537     1.667616816876     1.007825032230
         H            0.134114880715     1.328970071463     1.667617816876     1.007825032230
         H           -0.867555119285     2.162646071463     0.496968816876     1.007825032230
         H            0.614437880715    -1.342377928537    -1.373148183124     1.007825032230
         H            1.557025880715    -2.154509928537    -0.151905183124     1.007825032230
         H            1.557024880715     2.161522071463    -0.151906183124     1.007825032230
         H            0.614435880715     1.349389071463    -1.373148183124     1.007825032230
         H            2.243060880715     0.003507071463     0.846086816876     1.007825032230
         H            2.626105880715     0.003506071463    -0.869325183124     1.007825032230
         H           -1.132672119285     0.003494071463    -1.573460183124     1.007825032230
         H           -2.401171119285     0.834892071463    -0.900385183124     1.007825032230
         H           -2.401189119285    -0.827868928537    -0.900375183124     1.007825032230

  Basis Set: AUG-CC-PVTZ
    Blend: AUG-CC-PVTZ
  Basis Set: (AUG-CC-PVTZ AUX)
    Blend: AUG-CC-PVTZ-JKFIT
	 Reference Energy          =    -289.7060364403474750 [Eh]
	 Singles Energy            =      -0.0000000000000000 [Eh]
	 Same-Spin Energy          =      -0.3081227403427722 [Eh]
	 Opposite-Spin Energy      =      -1.0944619408893650 [Eh]
	 Correlation Energy        =      -1.4025846812321372 [Eh]
	 Total Energy              =    -291.1086211215796311 [Eh]

	 ================> DF-SCS-MP2 Energies <==================
	-----------------------------------------------------------
	 SCS Same-Spin Scale       =       0.3333333333333333 [-]
	 SCS Opposite-Spin Scale   =       1.2000000000000000 [-]
	 SCS Same-Spin Energy      =      -0.1027075801142574 [Eh]
	 SCS Opposite-Spin Energy  =      -1.3133543290672380 [Eh]
	 SCS Correlation Energy    =      -1.4160619091814954 [Eh]
	 SCS Total Energy          =    -291.1220983495289829 [Eh]
	-----------------------------------------------------------

  Dipole Moment: [D]
     X:    -5.5863      Y:     0.0052      Z:    -2.0520     Total:     5.9513

*** Psi4 exiting successfully. Buy a developer a beer!
