                               Psi4 1.4a3.dev225

  ==> Input File <==

--------------------------------------------------------------------------
#psi4
#
memory 32 gb

molecule  {
1 1
  N       -1.8084550     0.0000000    -0.7896910
  C       -1.0774430     0.0000000     0.5533100
  C       -0.2681487    -1.2298719     0.6405649
  C       -0.2407120     1.2715670     0.6435240
  C        0.9483640    -1.2633510    -0.3226430
  C        0.9483630     1.2633510    -0.3226440
  C        1.7921720     0.0000000    -0.1500480
  H       -1.8788710     0.0000000     1.2988220
  H       -0.8715790    -2.1591400     0.5029120
  H        0.1300900    -1.3254650     1.6735610
  H        0.1300910     1.3254640     1.6735620
  H       -0.8715790     2.1591400     0.5029130
  H        0.6104140    -1.3458840    -1.3672040
  H        1.5530020    -2.1580160    -0.1459610
  H        1.5530010     2.1580160    -0.1459620
  H        0.6104120     1.3458830    -1.3672040
  H        2.2390370     0.0000010     0.8520310
  H        2.6220820     0.0000000    -0.8633810
  H       -1.1366960    -0.0000120    -1.5675160
  H       -2.4051950     0.8313860    -0.8944410
  H       -2.4052130    -0.8313750    -0.8944310
units angstrom
no_reorient  #important for SAPT in psi4, default
symmetry c1  #important for SAPT in psi4, default
}

set PROPERTIES_ORIGIN ["COM"]
properties('MP2/aug-cc-pvtz', properties = ['dipole'])
--------------------------------------------------------------------------

    Molecular point group: c1
  Charge       = 1
  Multiplicity = 1
  Basis Set: AUG-CC-PVTZ
    Blend: AUG-CC-PVTZ
  Basis Set: (AUG-CC-PVTZ AUX)
    Blend: AUG-CC-PVTZ-JKFIT

    Orbital Energies [Eh]
    ---------------------

    Doubly Occupied:

       1A    -15.874701     2A    -11.466018     3A    -11.390842
       4A    -11.390646     5A    -11.372957     6A    -11.371872
       7A    -11.357415     8A     -1.493852     9A     -1.281004
      10A     -1.175941    11A     -1.169698    12A     -1.009744
      13A     -1.006881    14A     -0.951562    15A     -0.934152
      16A     -0.918523    17A     -0.817311    18A     -0.816286
      19A     -0.762550    20A     -0.754982    21A     -0.705315
      22A     -0.697661    23A     -0.685328    24A     -0.683317
      25A     -0.644512    26A     -0.610213    27A     -0.599153
      28A     -0.589903

  @DF-RHF Final Energy:  -289.70673221557030

   => Energetics <=

    Nuclear Repulsion Energy =            347.2719055409910425
    One-Electron Energy =               -1068.8926025789078267
    Two-Electron Energy =                 431.9139648223464860
    Total Energy =                       -289.7067322155702982
  Basis Set: (AUG-CC-PVTZ AUX)
    Blend: AUG-CC-PVTZ-RI
    Molecular point group: c1

    Geometry (in Angstrom), charge = 1, multiplicity = 1:

       Center              X                  Y                   Z               Mass
    ------------   -----------------  -----------------  -----------------  -----------------
         N           -1.806310051148    -0.004997763140    -0.796668719110    14.003074004430
         C           -1.075298051148    -0.004997763140     0.546332280890    12.000000000000
         C           -0.266003751148    -1.234869663140     0.633587180890    12.000000000000
         C           -0.238567051148     1.266569236860     0.636546280890    12.000000000000
         C            0.950508948852    -1.268348763140    -0.329620719110    12.000000000000
         C            0.950507948852     1.258353236860    -0.329621719110    12.000000000000
         C            1.794316948852    -0.004997763140    -0.157025719110    12.000000000000
         H           -1.876726051148    -0.004997763140     1.291844280890     1.007825032230
         H           -0.869434051148    -2.164137763140     0.495934280890     1.007825032230
         H            0.132234948852    -1.330462763140     1.666583280890     1.007825032230
         H            0.132235948852     1.320466236860     1.666584280890     1.007825032230
         H           -0.869434051148     2.154142236860     0.495935280890     1.007825032230
         H            0.612558948852    -1.350881763140    -1.374181719110     1.007825032230
         H            1.555146948852    -2.163013763140    -0.152938719110     1.007825032230
         H            1.555145948852     2.153018236860    -0.152939719110     1.007825032230
         H            0.612556948852     1.340885236860    -1.374181719110     1.007825032230
         H            2.241181948852    -0.004996763140     0.845053280890     1.007825032230
         H            2.624226948852    -0.004997763140    -0.870358719110     1.007825032230
         H           -1.134551051148    -0.005009763140    -1.574493719110     1.007825032230
         H           -2.403050051148     0.826388236860    -0.901418719110     1.007825032230
         H           -2.403068051148    -0.836372763140    -0.901408719110     1.007825032230

  Basis Set: AUG-CC-PVTZ
    Blend: AUG-CC-PVTZ
  Basis Set: (AUG-CC-PVTZ AUX)
    Blend: AUG-CC-PVTZ-JKFIT
	 Reference Energy          =    -289.7067322155702982 [Eh]
	 Singles Energy            =      -0.0000000000000000 [Eh]
	 Same-Spin Energy          =      -0.3080301132780903 [Eh]
	 Opposite-Spin Energy      =      -1.0943759345138153 [Eh]
	 Correlation Energy        =      -1.4024060477919056 [Eh]
	 Total Energy              =    -291.1091382633621834 [Eh]

	 ================> DF-SCS-MP2 Energies <==================
	-----------------------------------------------------------
	 SCS Same-Spin Scale       =       0.3333333333333333 [-]
	 SCS Opposite-Spin Scale   =       1.2000000000000000 [-]
	 SCS Same-Spin Energy      =      -0.1026767044260301 [Eh]
	 SCS Opposite-Spin Energy  =      -1.3132511214165783 [Eh]
	 SCS Correlation Energy    =      -1.4159278258426085 [Eh]
	 SCS Total Energy          =    -291.1226600414129280 [Eh]
	-----------------------------------------------------------

  Dipole Moment: [D]
     X:    -5.5790      Y:    -0.0141      Z:    -2.0428     Total:     5.9413

*** Psi4 exiting successfully. Buy a developer a beer!
