                               Psi4 1.4a3.dev225

  ==> Input File <==

--------------------------------------------------------------------------
#psi4
#
memory 32 gb

molecule  {
1 1
  N       -1.8084550     0.0000000    -0.7896910
  C       -1.0774430     0.0000000     0.5533100
  C       -0.2407120    -1.2715670     0.6435230
  C       -0.2407120     1.2715670     0.6435240
  C        0.9483640    -1.2633510    -0.3226430
  C        0.9483630     1.2633510    -0.3226440
  C        1.7921720     0.0000000    -0.1500480
  H       -1.8788710     0.0000000     1.2988220
  H       -0.8715790    -2.1591400     0.5029120
  H        0.1300900    -1.3254650     1.6735610
  H        0.1233250     1.3244805     1.6547670
  H       -0.8715790     2.1591400     0.5029130
  H        0.6104140    -1.3458840    -1.3672040
  H        1.5530020    -2.1580160    -0.1459610
  H        1.5530010     2.1580160    -0.1459620
  H        0.6104120     1.3458830    -1.3672040
  H        2.2390370     0.0000010     0.8520310
  H        2.6220820     0.0000000    -0.8633810
  H       -1.1366960    -0.0000120    -1.5675160
  H       -2.4051950     0.8313860    -0.8944410
  H       -2.4052130    -0.8313750    -0.8944310
units angstrom
no_reorient  #important for SAPT in psi4, default
symmetry c1  #important for SAPT in psi4, default
}

set PROPERTIES_ORIGIN ["COM"]
properties('MP2/aug-cc-pvtz', properties = ['dipole'])
--------------------------------------------------------------------------

    Molecular point group: c1
  Charge       = 1
  Multiplicity = 1
  Basis Set: AUG-CC-PVTZ
    Blend: AUG-CC-PVTZ
  Basis Set: (AUG-CC-PVTZ AUX)
    Blend: AUG-CC-PVTZ-JKFIT

    Orbital Energies [Eh]
    ---------------------

    Doubly Occupied:

       1A    -15.874453     2A    -11.466683     3A    -11.390526
       4A    -11.388229     5A    -11.371668     6A    -11.371529
       7A    -11.357884     8A     -1.492336     9A     -1.277959
      10A     -1.173278    11A     -1.170727    12A     -1.010554
      13A     -1.006666    14A     -0.951207    15A     -0.934594
      16A     -0.918888    17A     -0.815490    18A     -0.813919
      19A     -0.764111    20A     -0.757580    21A     -0.698851
      22A     -0.696084    23A     -0.688496    24A     -0.686065
      25A     -0.647697    26A     -0.611122    27A     -0.595497
      28A     -0.594878

  @DF-RHF Final Energy:  -289.70982951579697

   => Energetics <=

    Nuclear Repulsion Energy =            346.7967465117129677
    One-Electron Energy =               -1067.9592111259944431
    Two-Electron Energy =                 431.4526350984845067
    Total Energy =                       -289.7098295157969687
  Basis Set: (AUG-CC-PVTZ AUX)
    Blend: AUG-CC-PVTZ-RI
    Molecular point group: c1

    Geometry (in Angstrom), charge = 1, multiplicity = 1:

       Center              X                  Y                   Z               Mass
    ------------   -----------------  -----------------  -----------------  -----------------
         N           -1.809530638537     0.000009920942    -0.796834084153    14.003074004430
         C           -1.078518638537     0.000009920942     0.546166915847    12.000000000000
         C           -0.241787638537    -1.271557079058     0.636379915847    12.000000000000
         C           -0.241787638537     1.271576920942     0.636380915847    12.000000000000
         C            0.947288361463    -1.263341079058    -0.329786084153    12.000000000000
         C            0.947287361463     1.263360920942    -0.329787084153    12.000000000000
         C            1.791096361463     0.000009920942    -0.157191084153    12.000000000000
         H           -1.879946638537     0.000009920942     1.291678915847     1.007825032230
         H           -0.872654638537    -2.159130079058     0.495768915847     1.007825032230
         H            0.129014361463    -1.325455079058     1.666417915847     1.007825032230
         H            0.122249361463     1.324490420942     1.647623915847     1.007825032230
         H           -0.872654638537     2.159149920942     0.495769915847     1.007825032230
         H            0.609338361463    -1.345874079058    -1.374347084153     1.007825032230
         H            1.551926361463    -2.158006079058    -0.153104084153     1.007825032230
         H            1.551925361463     2.158025920942    -0.153105084153     1.007825032230
         H            0.609336361463     1.345892920942    -1.374347084153     1.007825032230
         H            2.237961361463     0.000010920942     0.844887915847     1.007825032230
         H            2.621006361463     0.000009920942    -0.870524084153     1.007825032230
         H           -1.137771638537    -0.000002079058    -1.574659084153     1.007825032230
         H           -2.406270638537     0.831395920942    -0.901584084153     1.007825032230
         H           -2.406288638537    -0.831365079058    -0.901574084153     1.007825032230

  Basis Set: AUG-CC-PVTZ
    Blend: AUG-CC-PVTZ
  Basis Set: (AUG-CC-PVTZ AUX)
    Blend: AUG-CC-PVTZ-JKFIT
	 Reference Energy          =    -289.7098295157969687 [Eh]
	 Singles Energy            =      -0.0000000000000000 [Eh]
	 Same-Spin Energy          =      -0.3076137276791114 [Eh]
	 Opposite-Spin Energy      =      -1.0937554911750795 [Eh]
	 Correlation Energy        =      -1.4013692188541909 [Eh]
	 Total Energy              =    -291.1111987346511683 [Eh]

	 ================> DF-SCS-MP2 Energies <==================
	-----------------------------------------------------------
	 SCS Same-Spin Scale       =       0.3333333333333333 [-]
	 SCS Opposite-Spin Scale   =       1.2000000000000000 [-]
	 SCS Same-Spin Energy      =      -0.1025379092263705 [Eh]
	 SCS Opposite-Spin Energy  =      -1.3125065894100953 [Eh]
	 SCS Correlation Energy    =      -1.4150444986364659 [Eh]
	 SCS Total Energy          =    -291.1248740144334306 [Eh]
	-----------------------------------------------------------

  Dipole Moment: [D]
     X:    -5.5999      Y:    -0.0010      Z:    -2.0474     Total:     5.9625

*** Psi4 exiting successfully. Buy a developer a beer!
