                               Psi4 1.4a3.dev225

  ==> Input File <==

--------------------------------------------------------------------------
#psi4
#
memory 32 gb

molecule  {
1 1
  N       -1.8084550     0.0000000    -0.7896910
  C       -1.0774430     0.0000000     0.5533100
  C       -0.2407120    -1.2715670     0.6435230
  C       -0.2570589     1.2252730     0.6223192
  C        0.9483640    -1.2633510    -0.3226430
  C        0.9483630     1.2633510    -0.3226440
  C        1.7921720     0.0000000    -0.1500480
  H       -1.8788710     0.0000000     1.2988220
  H       -0.8715790    -2.1591400     0.5029120
  H        0.1300900    -1.3254650     1.6735610
  H        0.1300910     1.3254640     1.6735620
  H       -0.8715790     2.1591400     0.5029130
  H        0.6104140    -1.3458840    -1.3672040
  H        1.5530020    -2.1580160    -0.1459610
  H        1.5530010     2.1580160    -0.1459620
  H        0.6104120     1.3458830    -1.3672040
  H        2.2390370     0.0000010     0.8520310
  H        2.6220820     0.0000000    -0.8633810
  H       -1.1366960    -0.0000120    -1.5675160
  H       -2.4051950     0.8313860    -0.8944410
  H       -2.4052130    -0.8313750    -0.8944310
units angstrom
no_reorient  #important for SAPT in psi4, default
symmetry c1  #important for SAPT in psi4, default
}

set PROPERTIES_ORIGIN ["COM"]
properties('MP2/aug-cc-pvtz', properties = ['dipole'])
--------------------------------------------------------------------------

    Molecular point group: c1
  Charge       = 1
  Multiplicity = 1
  Basis Set: AUG-CC-PVTZ
    Blend: AUG-CC-PVTZ
  Basis Set: (AUG-CC-PVTZ AUX)
    Blend: AUG-CC-PVTZ-JKFIT

    Orbital Energies [Eh]
    ---------------------

    Doubly Occupied:

       1A    -15.874361     2A    -11.466287     3A    -11.391679
       4A    -11.390782     5A    -11.372263     6A    -11.372014
       7A    -11.357520     8A     -1.493823     9A     -1.282145
      10A     -1.175427    11A     -1.171663    12A     -1.010767
      13A     -1.006145    14A     -0.951358    15A     -0.933641
      16A     -0.918528    17A     -0.817307    18A     -0.816580
      19A     -0.762739    20A     -0.754558    21A     -0.705525
      22A     -0.697567    23A     -0.686998    24A     -0.682873
      25A     -0.642398    26A     -0.609814    27A     -0.599801
      28A     -0.590886

  @DF-RHF Final Energy:  -289.70595408600423

   => Energetics <=

    Nuclear Repulsion Energy =            347.5253409181351572
    One-Electron Energy =               -1069.3916885422545420
    Two-Electron Energy =                 432.1603935381151587
    Total Energy =                       -289.7059540860042262
  Basis Set: (AUG-CC-PVTZ AUX)
    Blend: AUG-CC-PVTZ-RI
    Molecular point group: c1

    Geometry (in Angstrom), charge = 1, multiplicity = 1:

       Center              X                  Y                   Z               Mass
    ------------   -----------------  -----------------  -----------------  -----------------
         N           -1.807639330055     0.005549050569    -0.794481578365    14.003074004430
         C           -1.076627330055     0.005549050569     0.548519421635    12.000000000000
         C           -0.239896330055    -1.266017949431     0.638732421635    12.000000000000
         C           -0.256243230055     1.230822050569     0.617528621635    12.000000000000
         C            0.949179669945    -1.257801949431    -0.327433578365    12.000000000000
         C            0.949178669945     1.268900050569    -0.327434578365    12.000000000000
         C            1.792987669945     0.005549050569    -0.154838578365    12.000000000000
         H           -1.878055330055     0.005549050569     1.294031421635     1.007825032230
         H           -0.870763330055    -2.153590949431     0.498121421635     1.007825032230
         H            0.130905669945    -1.319915949431     1.668770421635     1.007825032230
         H            0.130906669945     1.331013050569     1.668771421635     1.007825032230
         H           -0.870763330055     2.164689050569     0.498122421635     1.007825032230
         H            0.611229669945    -1.340334949431    -1.371994578365     1.007825032230
         H            1.553817669945    -2.152466949431    -0.150751578365     1.007825032230
         H            1.553816669945     2.163565050569    -0.150752578365     1.007825032230
         H            0.611227669945     1.351432050569    -1.371994578365     1.007825032230
         H            2.239852669945     0.005550050569     0.847240421635     1.007825032230
         H            2.622897669945     0.005549050569    -0.868171578365     1.007825032230
         H           -1.135880330055     0.005537050569    -1.572306578365     1.007825032230
         H           -2.404379330055     0.836935050569    -0.899231578365     1.007825032230
         H           -2.404397330055    -0.825825949431    -0.899221578365     1.007825032230

  Basis Set: AUG-CC-PVTZ
    Blend: AUG-CC-PVTZ
  Basis Set: (AUG-CC-PVTZ AUX)
    Blend: AUG-CC-PVTZ-JKFIT
	 Reference Energy          =    -289.7059540860042262 [Eh]
	 Singles Energy            =      -0.0000000000000000 [Eh]
	 Same-Spin Energy          =      -0.3081940695250030 [Eh]
	 Opposite-Spin Energy      =      -1.0945649461586813 [Eh]
	 Correlation Energy        =      -1.4027590156836842 [Eh]
	 Total Energy              =    -291.1087131016878971 [Eh]

	 ================> DF-SCS-MP2 Energies <==================
	-----------------------------------------------------------
	 SCS Same-Spin Scale       =       0.3333333333333333 [-]
	 SCS Opposite-Spin Scale   =       1.2000000000000000 [-]
	 SCS Same-Spin Energy      =      -0.1027313565083343 [Eh]
	 SCS Opposite-Spin Energy  =      -1.3134779353904176 [Eh]
	 SCS Correlation Energy    =      -1.4162092918987519 [Eh]
	 SCS Total Energy          =    -291.1221633779029503 [Eh]
	-----------------------------------------------------------

  Dipole Moment: [D]
     X:    -5.5794      Y:     0.0140      Z:    -2.0308     Total:     5.9375

*** Psi4 exiting successfully. Buy a developer a beer!
