                               Psi4 1.4a3.dev225

  ==> Input File <==

--------------------------------------------------------------------------
#psi4
#
memory 32 gb

molecule  {
1 1
  N       -1.8084550     0.0000000    -0.7896910
  C       -1.1405329    -0.0406140     0.6287952
  C       -0.2407120    -1.2715670     0.6435230
  C       -0.2407120     1.2715670     0.6435240
  C        0.9483640    -1.2633510    -0.3226430
  C        0.9483630     1.2633510    -0.3226440
  C        1.7921720     0.0000000    -0.1500480
  H       -1.8788710     0.0000000     1.2988220
  H       -0.8715790    -2.1591400     0.5029120
  H        0.1300900    -1.3254650     1.6735610
  H        0.1300910     1.3254640     1.6735620
  H       -0.8715790     2.1591400     0.5029130
  H        0.6104140    -1.3458840    -1.3672040
  H        1.5530020    -2.1580160    -0.1459610
  H        1.5530010     2.1580160    -0.1459620
  H        0.6104120     1.3458830    -1.3672040
  H        2.2390370     0.0000010     0.8520310
  H        2.6220820     0.0000000    -0.8633810
  H       -1.1366960    -0.0000120    -1.5675160
  H       -2.4051950     0.8313860    -0.8944410
  H       -2.4052130    -0.8313750    -0.8944310
units angstrom
no_reorient  #important for SAPT in psi4, default
symmetry c1  #important for SAPT in psi4, default
}

set PROPERTIES_ORIGIN ["COM"]
properties('MP2/aug-cc-pvtz', properties = ['dipole'])
--------------------------------------------------------------------------

    Molecular point group: c1
  Charge       = 1
  Multiplicity = 1
  Basis Set: AUG-CC-PVTZ
    Blend: AUG-CC-PVTZ
  Basis Set: (AUG-CC-PVTZ AUX)
    Blend: AUG-CC-PVTZ-JKFIT

    Orbital Energies [Eh]
    ---------------------

    Doubly Occupied:

       1A    -15.868788     2A    -11.466627     3A    -11.393645
       4A    -11.391802     5A    -11.374077     6A    -11.372969
       7A    -11.358169     8A     -1.481145     9A     -1.272883
      10A     -1.175808    11A     -1.167276    12A     -1.018550
      13A     -1.003680    14A     -0.940016    15A     -0.928931
      16A     -0.916777    17A     -0.835249    18A     -0.805533
      19A     -0.765887    20A     -0.753559    21A     -0.712005
      22A     -0.690821    23A     -0.687333    24A     -0.676504
      25A     -0.644037    26A     -0.611579    27A     -0.602729
      28A     -0.590659

  @DF-RHF Final Energy:  -289.69693007572255

   => Energetics <=

    Nuclear Repulsion Energy =            345.2715123095436525
    One-Electron Energy =               -1064.9228066953796770
    Two-Electron Energy =                 429.9543643101135331
    Total Energy =                       -289.6969300757225483
  Basis Set: (AUG-CC-PVTZ AUX)
    Blend: AUG-CC-PVTZ-RI
    Molecular point group: c1

    Geometry (in Angstrom), charge = 1, multiplicity = 1:

       Center              X                  Y                   Z               Mass
    ------------   -----------------  -----------------  -----------------  -----------------
         N           -1.802036480234     0.004868217353    -0.806071325475    14.003074004430
         C           -1.134114380234    -0.035745782647     0.612414874525    12.000000000000
         C           -0.234293480234    -1.266698782647     0.627142674525    12.000000000000
         C           -0.234293480234     1.276435217353     0.627143674525    12.000000000000
         C            0.954782519766    -1.258482782647    -0.339023325475    12.000000000000
         C            0.954781519766     1.268219217353    -0.339024325475    12.000000000000
         C            1.798590519766     0.004868217353    -0.166428325475    12.000000000000
         H           -1.872452480234     0.004868217353     1.282441674525     1.007825032230
         H           -0.865160480234    -2.154271782647     0.486531674525     1.007825032230
         H            0.136508519766    -1.320596782647     1.657180674525     1.007825032230
         H            0.136509519766     1.330332217353     1.657181674525     1.007825032230
         H           -0.865160480234     2.164008217353     0.486532674525     1.007825032230
         H            0.616832519766    -1.341015782647    -1.383584325475     1.007825032230
         H            1.559420519766    -2.153147782647    -0.162341325475     1.007825032230
         H            1.559419519766     2.162884217353    -0.162342325475     1.007825032230
         H            0.616830519766     1.350751217353    -1.383584325475     1.007825032230
         H            2.245455519766     0.004869217353     0.835650674525     1.007825032230
         H            2.628500519766     0.004868217353    -0.879761325475     1.007825032230
         H           -1.130277480234     0.004856217353    -1.583896325475     1.007825032230
         H           -2.398776480234     0.836254217353    -0.910821325475     1.007825032230
         H           -2.398794480234    -0.826506782647    -0.910811325475     1.007825032230

  Basis Set: AUG-CC-PVTZ
    Blend: AUG-CC-PVTZ
  Basis Set: (AUG-CC-PVTZ AUX)
    Blend: AUG-CC-PVTZ-JKFIT
	 Reference Energy          =    -289.6969300757225483 [Eh]
	 Singles Energy            =      -0.0000000000000000 [Eh]
	 Same-Spin Energy          =      -0.3070660605164499 [Eh]
	 Opposite-Spin Energy      =      -1.0939118119915006 [Eh]
	 Correlation Energy        =      -1.4009778725079505 [Eh]
	 Total Energy              =    -291.0979079482304996 [Eh]

	 ================> DF-SCS-MP2 Energies <==================
	-----------------------------------------------------------
	 SCS Same-Spin Scale       =       0.3333333333333333 [-]
	 SCS Opposite-Spin Scale   =       1.2000000000000000 [-]
	 SCS Same-Spin Energy      =      -0.1023553535054833 [Eh]
	 SCS Opposite-Spin Energy  =      -1.3126941743898006 [Eh]
	 SCS Correlation Energy    =      -1.4150495278952839 [Eh]
	 SCS Total Energy          =    -291.1119796036178400 [Eh]
	-----------------------------------------------------------

  Dipole Moment: [D]
     X:    -5.5309      Y:    -0.0130      Z:    -1.9962     Total:     5.8801

*** Psi4 exiting successfully. Buy a developer a beer!
