                               Psi4 1.4a3.dev225

  ==> Input File <==

--------------------------------------------------------------------------
#psi4
#
memory 32 gb

molecule  {
1 1
  N       -1.8084550     0.0000000    -0.7896910
  C       -1.0774430     0.0000000     0.5533100
  C       -0.2407120    -1.2715670     0.6435230
  C       -0.2407120     1.2715670     0.6435240
  C        0.9483640    -1.2633510    -0.3226430
  C        0.9483630     1.2633510    -0.3226440
  C        1.7921720     0.0000000    -0.1500480
  H       -1.8788710     0.0000000     1.2988220
  H       -0.8715790    -2.1591400     0.5029120
  H        0.1300900    -1.3254650     1.6735610
  H        0.1300910     1.3254640     1.6735620
  H       -0.8715790     2.1591400     0.5029130
  H        0.6104140    -1.3458840    -1.3672040
  H        1.5530020    -2.1580160    -0.1459610
  H        1.5304403     2.1873376    -0.2543518
  H        0.6104120     1.3458830    -1.3672040
  H        2.2390370     0.0000010     0.8520310
  H        2.6220820     0.0000000    -0.8633810
  H       -1.1366960    -0.0000120    -1.5675160
  H       -2.4051950     0.8313860    -0.8944410
  H       -2.4052130    -0.8313750    -0.8944310
units angstrom
no_reorient  #important for SAPT in psi4, default
symmetry c1  #important for SAPT in psi4, default
}

set PROPERTIES_ORIGIN ["COM"]
properties('MP2/aug-cc-pvtz', properties = ['dipole'])
--------------------------------------------------------------------------

    Molecular point group: c1
  Charge       = 1
  Multiplicity = 1
  Basis Set: AUG-CC-PVTZ
    Blend: AUG-CC-PVTZ
  Basis Set: (AUG-CC-PVTZ AUX)
    Blend: AUG-CC-PVTZ-JKFIT

    Orbital Energies [Eh]
    ---------------------

    Doubly Occupied:

       1A    -15.874266     2A    -11.467229     3A    -11.391107
       4A    -11.390656     5A    -11.372038     6A    -11.371659
       7A    -11.358437     8A     -1.492220     9A     -1.277565
      10A     -1.172566    11A     -1.170683    12A     -1.010198
      13A     -1.007056    14A     -0.950626    15A     -0.934299
      16A     -0.920132    17A     -0.815633    18A     -0.815055
      19A     -0.762304    20A     -0.753325    21A     -0.700646
      22A     -0.696683    23A     -0.687247    24A     -0.686990
      25A     -0.644303    26A     -0.609297    27A     -0.597193
      28A     -0.595114

  @DF-RHF Final Energy:  -289.70842872527578

   => Energetics <=

    Nuclear Repulsion Energy =            346.6332828363736667
    One-Electron Energy =               -1067.6343692137747894
    Two-Electron Energy =                 431.2926576521253992
    Total Energy =                       -289.7084287252757804
  Basis Set: (AUG-CC-PVTZ AUX)
    Blend: AUG-CC-PVTZ-RI
    Molecular point group: c1

    Geometry (in Angstrom), charge = 1, multiplicity = 1:

       Center              X                  Y                   Z               Mass
    ------------   -----------------  -----------------  -----------------  -----------------
         N           -1.809371634674    -0.000295157848    -0.795932141140    14.003074004430
         C           -1.078359634674    -0.000295157848     0.547068858860    12.000000000000
         C           -0.241628634674    -1.271862157848     0.637281858860    12.000000000000
         C           -0.241628634674     1.271271842152     0.637282858860    12.000000000000
         C            0.947447365326    -1.263646157848    -0.328884141140    12.000000000000
         C            0.947446365326     1.263055842152    -0.328885141140    12.000000000000
         C            1.791255365326    -0.000295157848    -0.156289141140    12.000000000000
         H           -1.879787634674    -0.000295157848     1.292580858860     1.007825032230
         H           -0.872495634674    -2.159435157848     0.496670858860     1.007825032230
         H            0.129173365326    -1.325760157848     1.667319858860     1.007825032230
         H            0.129174365326     1.325168842152     1.667320858860     1.007825032230
         H           -0.872495634674     2.158844842152     0.496671858860     1.007825032230
         H            0.609497365326    -1.346179157848    -1.373445141140     1.007825032230
         H            1.552085365326    -2.158311157848    -0.152202141140     1.007825032230
         H            1.529523665326     2.187042442152    -0.260592941140     1.007825032230
         H            0.609495365326     1.345587842152    -1.373445141140     1.007825032230
         H            2.238120365326    -0.000294157848     0.845789858860     1.007825032230
         H            2.621165365326    -0.000295157848    -0.869622141140     1.007825032230
         H           -1.137612634674    -0.000307157848    -1.573757141140     1.007825032230
         H           -2.406111634674     0.831090842152    -0.900682141140     1.007825032230
         H           -2.406129634674    -0.831670157848    -0.900672141140     1.007825032230

  Basis Set: AUG-CC-PVTZ
    Blend: AUG-CC-PVTZ
  Basis Set: (AUG-CC-PVTZ AUX)
    Blend: AUG-CC-PVTZ-JKFIT
	 Reference Energy          =    -289.7084287252757804 [Eh]
	 Singles Energy            =      -0.0000000000000000 [Eh]
	 Same-Spin Energy          =      -0.3077168547332187 [Eh]
	 Opposite-Spin Energy      =      -1.0939388291802294 [Eh]
	 Correlation Energy        =      -1.4016556839134482 [Eh]
	 Total Energy              =    -291.1100844091892554 [Eh]

	 ================> DF-SCS-MP2 Energies <==================
	-----------------------------------------------------------
	 SCS Same-Spin Scale       =       0.3333333333333333 [-]
	 SCS Opposite-Spin Scale   =       1.2000000000000000 [-]
	 SCS Same-Spin Energy      =      -0.1025722849110729 [Eh]
	 SCS Opposite-Spin Energy  =      -1.3127265950162752 [Eh]
	 SCS Correlation Energy    =      -1.4152988799273480 [Eh]
	 SCS Total Energy          =    -291.1237276052031007 [Eh]
	-----------------------------------------------------------

  Dipole Moment: [D]
     X:    -5.6022      Y:     0.0105      Z:    -2.0830     Total:     5.9769

*** Psi4 exiting successfully. Buy a developer a beer!
