                               Psi4 1.4a3.dev225

  ==> Input File <==

--------------------------------------------------------------------------
#psi4
#
memory 32 gb

molecule  {
1 1
  N       -1.8084550     0.0000000    -0.7896910
  C       -1.0774430     0.0000000     0.5533100
  C       -0.2407120    -1.2715670     0.6435230
  C       -0.2407120     1.2715670     0.6435240
  C        0.9483640    -1.2633510    -0.3226430
  C        0.9483630     1.2633510    -0.3226440
  C        1.7921720     0.0000000    -0.1500480
  H       -1.8788710     0.0000000     1.2988220
  H       -0.8715790    -2.1591400     0.5029120
  H        0.1300900    -1.3254650     1.6735610
  H        0.1300910     1.3254640     1.6735620
  H       -0.8715790     2.1591400     0.5029130
  H        0.6104140    -1.3458840    -1.3672040
  H        1.5530020    -2.1580160    -0.1459610
  H        1.5530010     2.1580160    -0.1459620
  H        0.6104120     1.3458830    -1.3672040
  H        2.2390370     0.0000010     0.8520310
  H        2.6220820     0.0000000    -0.8633810
  H       -1.1366960    -0.0000120    -1.5675160
  H       -2.4051950     0.8313860    -0.8944410
  H       -2.3762083    -0.7909670    -0.8893402
units angstrom
no_reorient  #important for SAPT in psi4, default
symmetry c1  #important for SAPT in psi4, default
}

set PROPERTIES_ORIGIN ["COM"]
properties('MP2/aug-cc-pvtz', properties = ['dipole'])
--------------------------------------------------------------------------

    Molecular point group: c1
  Charge       = 1
  Multiplicity = 1
  Basis Set: AUG-CC-PVTZ
    Blend: AUG-CC-PVTZ
  Basis Set: (AUG-CC-PVTZ AUX)
    Blend: AUG-CC-PVTZ-JKFIT

    Orbital Energies [Eh]
    ---------------------

    Doubly Occupied:

       1A    -15.871148     2A    -11.467338     3A    -11.390817
       4A    -11.390777     5A    -11.371949     6A    -11.371934
       7A    -11.358112     8A     -1.500782     9A     -1.279093
      10A     -1.173104    11A     -1.171726    12A     -1.010870
      13A     -1.007951    14A     -0.958701    15A     -0.942054
      16A     -0.918972    17A     -0.816493    18A     -0.814602
      19A     -0.764452    20A     -0.757222    21A     -0.699147
      22A     -0.696581    23A     -0.687611    24A     -0.686528
      25A     -0.646922    26A     -0.611304    27A     -0.595832
      28A     -0.595236

  @DF-RHF Final Energy:  -289.70949465153501

   => Energetics <=

    Nuclear Repulsion Energy =            346.9793525600015300
    One-Electron Energy =               -1068.2631834031653852
    Two-Electron Energy =                 431.5743361916288450
    Total Energy =                       -289.7094946515350102
  Basis Set: (AUG-CC-PVTZ AUX)
    Blend: AUG-CC-PVTZ-RI
    Molecular point group: c1

    Geometry (in Angstrom), charge = 1, multiplicity = 1:

       Center              X                  Y                   Z               Mass
    ------------   -----------------  -----------------  -----------------  -----------------
         N           -1.809890739045    -0.000406763667    -0.797074540412    14.003074004430
         C           -1.078878739045    -0.000406763667     0.545926459588    12.000000000000
         C           -0.242147739045    -1.271973763667     0.636139459588    12.000000000000
         C           -0.242147739045     1.271160236333     0.636140459588    12.000000000000
         C            0.946928260955    -1.263757763667    -0.330026540412    12.000000000000
         C            0.946927260955     1.262944236333    -0.330027540412    12.000000000000
         C            1.790736260955    -0.000406763667    -0.157431540412    12.000000000000
         H           -1.880306739045    -0.000406763667     1.291438459588     1.007825032230
         H           -0.873014739045    -2.159546763667     0.495528459588     1.007825032230
         H            0.128654260955    -1.325871763667     1.666177459588     1.007825032230
         H            0.128655260955     1.325057236333     1.666178459588     1.007825032230
         H           -0.873014739045     2.158733236333     0.495529459588     1.007825032230
         H            0.608978260955    -1.346290763667    -1.374587540412     1.007825032230
         H            1.551566260955    -2.158422763667    -0.153344540412     1.007825032230
         H            1.551565260955     2.157609236333    -0.153345540412     1.007825032230
         H            0.608976260955     1.345476236333    -1.374587540412     1.007825032230
         H            2.237601260955    -0.000405763667     0.844647459588     1.007825032230
         H            2.620646260955    -0.000406763667    -0.870764540412     1.007825032230
         H           -1.138131739045    -0.000418763667    -1.574899540412     1.007825032230
         H           -2.406630739045     0.830979236333    -0.901824540412     1.007825032230
         H           -2.377644039045    -0.791373763667    -0.896723740412     1.007825032230

  Basis Set: AUG-CC-PVTZ
    Blend: AUG-CC-PVTZ
  Basis Set: (AUG-CC-PVTZ AUX)
    Blend: AUG-CC-PVTZ-JKFIT
	 Reference Energy          =    -289.7094946515350102 [Eh]
	 Singles Energy            =      -0.0000000000000000 [Eh]
	 Same-Spin Energy          =      -0.3073504834045304 [Eh]
	 Opposite-Spin Energy      =      -1.0930441639982902 [Eh]
	 Correlation Energy        =      -1.4003946474028206 [Eh]
	 Total Energy              =    -291.1098892989378442 [Eh]

	 ================> DF-SCS-MP2 Energies <==================
	-----------------------------------------------------------
	 SCS Same-Spin Scale       =       0.3333333333333333 [-]
	 SCS Opposite-Spin Scale   =       1.2000000000000000 [-]
	 SCS Same-Spin Energy      =      -0.1024501611348435 [Eh]
	 SCS Opposite-Spin Energy  =      -1.3116529967979482 [Eh]
	 SCS Correlation Energy    =      -1.4141031579327916 [Eh]
	 SCS Total Energy          =    -291.1235978094678103 [Eh]
	-----------------------------------------------------------

  Dipole Moment: [D]
     X:    -5.5557      Y:     0.0483      Z:    -2.0420     Total:     5.9193

*** Psi4 exiting successfully. Buy a developer a beer!
