                               Psi4 1.4a3.dev225

  ==> Input File <==

--------------------------------------------------------------------------
#psi4
#
memory 32 gb

molecule  {
1 1
  N       -1.8084550     0.0000000    -0.7896910
  C       -1.0774430     0.0000000     0.5533100
  C       -0.2407120    -1.2715670     0.6435230
  C       -0.2407120     1.2715670     0.6435240
  C        0.9483640    -1.2633510    -0.3226430
  C        0.9483630     1.2633510    -0.3226440
  C        1.8032094    -0.0165251    -0.1477904
  H       -1.8788710     0.0000000     1.2988220
  H       -0.8715790    -2.1591400     0.5029120
  H        0.1300900    -1.3254650     1.6735610
  H        0.1300910     1.3254640     1.6735620
  H       -0.8715790     2.1591400     0.5029130
  H        0.6104140    -1.3458840    -1.3672040
  H        1.5530020    -2.1580160    -0.1459610
  H        1.5530010     2.1580160    -0.1459620
  H        0.6104120     1.3458830    -1.3672040
  H        2.2390370     0.0000010     0.8520310
  H        2.6220820     0.0000000    -0.8633810
  H       -1.1366960    -0.0000120    -1.5675160
  H       -2.4051950     0.8313860    -0.8944410
  H       -2.4052130    -0.8313750    -0.8944310
units angstrom
no_reorient  #important for SAPT in psi4, default
symmetry c1  #important for SAPT in psi4, default
}

set PROPERTIES_ORIGIN ["COM"]
properties('MP2/aug-cc-pvtz', properties = ['dipole'])
--------------------------------------------------------------------------

    Molecular point group: c1
  Charge       = 1
  Multiplicity = 1
  Basis Set: AUG-CC-PVTZ
    Blend: AUG-CC-PVTZ
  Basis Set: (AUG-CC-PVTZ AUX)
    Blend: AUG-CC-PVTZ-JKFIT

    Orbital Energies [Eh]
    ---------------------

    Doubly Occupied:

       1A    -15.874498     2A    -11.466702     3A    -11.390715
       4A    -11.390367     5A    -11.372080     6A    -11.371391
       7A    -11.357527     8A     -1.492372     9A     -1.276869
      10A     -1.172902    11A     -1.169347    12A     -1.010781
      13A     -1.005440    14A     -0.950899    15A     -0.934194
      16A     -0.918975    17A     -0.815584    18A     -0.813583
      19A     -0.764312    20A     -0.756091    21A     -0.699024
      22A     -0.695192    23A     -0.687337    24A     -0.685780
      25A     -0.646373    26A     -0.613091    27A     -0.597779
      28A     -0.591204

  @DF-RHF Final Energy:  -289.70956268820106

   => Energetics <=

    Nuclear Repulsion Energy =            346.5127725376541434
    One-Electron Energy =               -1067.4038532049492005
    Two-Electron Energy =                 431.1815179790939396
    Total Energy =                       -289.7095626882010606
  Basis Set: (AUG-CC-PVTZ AUX)
    Blend: AUG-CC-PVTZ-RI
    Molecular point group: c1

    Geometry (in Angstrom), charge = 1, multiplicity = 1:

       Center              X                  Y                   Z               Mass
    ------------   -----------------  -----------------  -----------------  -----------------
         N           -1.810921749248     0.001980801290    -0.797293899004    14.003074004430
         C           -1.079909749248     0.001980801290     0.545707100996    12.000000000000
         C           -0.243178749248    -1.269586198710     0.635920100996    12.000000000000
         C           -0.243178749248     1.273547801290     0.635921100996    12.000000000000
         C            0.945897250752    -1.261370198710    -0.330245899004    12.000000000000
         C            0.945896250752     1.265331801290    -0.330246899004    12.000000000000
         C            1.800742650752    -0.014544298710    -0.155393299004    12.000000000000
         H           -1.881337749248     0.001980801290     1.291219100996     1.007825032230
         H           -0.874045749248    -2.157159198710     0.495309100996     1.007825032230
         H            0.127623250752    -1.323484198710     1.665958100996     1.007825032230
         H            0.127624250752     1.327444801290     1.665959100996     1.007825032230
         H           -0.874045749248     2.161120801290     0.495310100996     1.007825032230
         H            0.607947250752    -1.343903198710    -1.374806899004     1.007825032230
         H            1.550535250752    -2.156035198710    -0.153563899004     1.007825032230
         H            1.550534250752     2.159996801290    -0.153564899004     1.007825032230
         H            0.607945250752     1.347863801290    -1.374806899004     1.007825032230
         H            2.236570250752     0.001981801290     0.844428100996     1.007825032230
         H            2.619615250752     0.001980801290    -0.870983899004     1.007825032230
         H           -1.139162749248     0.001968801290    -1.575118899004     1.007825032230
         H           -2.407661749248     0.833366801290    -0.902043899004     1.007825032230
         H           -2.407679749248    -0.829394198710    -0.902033899004     1.007825032230

  Basis Set: AUG-CC-PVTZ
    Blend: AUG-CC-PVTZ
  Basis Set: (AUG-CC-PVTZ AUX)
    Blend: AUG-CC-PVTZ-JKFIT
	 Reference Energy          =    -289.7095626882010606 [Eh]
	 Singles Energy            =      -0.0000000000000000 [Eh]
	 Same-Spin Energy          =      -0.3075525851620383 [Eh]
	 Opposite-Spin Energy      =      -1.0938346819907294 [Eh]
	 Correlation Energy        =      -1.4013872671527676 [Eh]
	 Total Energy              =    -291.1109499553538171 [Eh]

	 ================> DF-SCS-MP2 Energies <==================
	-----------------------------------------------------------
	 SCS Same-Spin Scale       =       0.3333333333333333 [-]
	 SCS Opposite-Spin Scale   =       1.2000000000000000 [-]
	 SCS Same-Spin Energy      =      -0.1025175283873461 [Eh]
	 SCS Opposite-Spin Energy  =      -1.3126016183888753 [Eh]
	 SCS Correlation Energy    =      -1.4151191467762214 [Eh]
	 SCS Total Energy          =    -291.1246818349773093 [Eh]
	-----------------------------------------------------------

  Dipole Moment: [D]
     X:    -5.6032      Y:     0.0022      Z:    -2.0506     Total:     5.9666

*** Psi4 exiting successfully. Buy a developer a beer!
