                               Psi4 1.4a3.dev225

  ==> Input File <==

--------------------------------------------------------------------------
#psi4
#
memory 32 gb

molecule  {
1 1
  N       -1.8715383     0.1403978    -0.7458171
  C       -1.0774430     0.0000000     0.5533100
  C       -0.2407120    -1.2715670     0.6435230
  C       -0.2407120     1.2715670     0.6435240
  C        0.9483640    -1.2633510    -0.3226430
  C        0.9483630     1.2633510    -0.3226440
  C        1.7921720     0.0000000    -0.1500480
  H       -1.8788710     0.0000000     1.2988220
  H       -0.8715790    -2.1591400     0.5029120
  H        0.1300900    -1.3254650     1.6735610
  H        0.1300910     1.3254640     1.6735620
  H       -0.8715790     2.1591400     0.5029130
  H        0.6104140    -1.3458840    -1.3672040
  H        1.5530020    -2.1580160    -0.1459610
  H        1.5530010     2.1580160    -0.1459620
  H        0.6104120     1.3458830    -1.3672040
  H        2.2390370     0.0000010     0.8520310
  H        2.6220820     0.0000000    -0.8633810
  H       -1.1366960    -0.0000120    -1.5675160
  H       -2.4051950     0.8313860    -0.8944410
  H       -2.4052130    -0.8313750    -0.8944310
units angstrom
no_reorient  #important for SAPT in psi4, default
symmetry c1  #important for SAPT in psi4, default
}

set PROPERTIES_ORIGIN ["COM"]
properties('MP2/aug-cc-pvtz', properties = ['dipole'])
--------------------------------------------------------------------------

    Molecular point group: c1
  Charge       = 1
  Multiplicity = 1
  Basis Set: AUG-CC-PVTZ
    Blend: AUG-CC-PVTZ
  Basis Set: (AUG-CC-PVTZ AUX)
    Blend: AUG-CC-PVTZ-JKFIT

    Orbital Energies [Eh]
    ---------------------

    Doubly Occupied:

       1A    -15.873416     2A    -11.467725     3A    -11.395662
       4A    -11.387964     5A    -11.373707     6A    -11.370895
       7A    -11.358427     8A     -1.495374     9A     -1.280337
      10A     -1.173911    11A     -1.172183    12A     -1.018729
      13A     -1.007192    14A     -0.978511    15A     -0.915375
      16A     -0.898420    17A     -0.818944    18A     -0.802363
      19A     -0.766503    20A     -0.754420    21A     -0.699317
      22A     -0.696539    23A     -0.689594    24A     -0.683944
      25A     -0.646761    26A     -0.611125    27A     -0.596037
      28A     -0.595289

  @DF-RHF Final Energy:  -289.66927597326361

   => Energetics <=

    Nuclear Repulsion Energy =            346.1963582117514306
    One-Electron Energy =               -1066.6739412884114699
    Two-Electron Energy =                 430.8083071033964302
    Total Energy =                       -289.6692759732636091
  Basis Set: (AUG-CC-PVTZ AUX)
    Blend: AUG-CC-PVTZ-RI
    Molecular point group: c1

    Geometry (in Angstrom), charge = 1, multiplicity = 1:

       Center              X                  Y                   Z               Mass
    ------------   -----------------  -----------------  -----------------  -----------------
         N           -1.863858387687     0.120759929367    -0.759286174941    14.003074004430
         C           -1.069763087687    -0.019637870633     0.539840925059    12.000000000000
         C           -0.233032087687    -1.291204870633     0.630053925059    12.000000000000
         C           -0.233032087687     1.251929129367     0.630054925059    12.000000000000
         C            0.956043912313    -1.282988870633    -0.336112074941    12.000000000000
         C            0.956042912313     1.243713129367    -0.336113074941    12.000000000000
         C            1.799851912313    -0.019637870633    -0.163517074941    12.000000000000
         H           -1.871191087687    -0.019637870633     1.285352925059     1.007825032230
         H           -0.863899087687    -2.178777870633     0.489442925059     1.007825032230
         H            0.137769912313    -1.345102870633     1.660091925059     1.007825032230
         H            0.137770912313     1.305826129367     1.660092925059     1.007825032230
         H           -0.863899087687     2.139502129367     0.489443925059     1.007825032230
         H            0.618093912313    -1.365521870633    -1.380673074941     1.007825032230
         H            1.560681912313    -2.177653870633    -0.159430074941     1.007825032230
         H            1.560680912313     2.138378129367    -0.159431074941     1.007825032230
         H            0.618091912313     1.326245129367    -1.380673074941     1.007825032230
         H            2.246716912313    -0.019636870633     0.838561925059     1.007825032230
         H            2.629761912313    -0.019637870633    -0.876850074941     1.007825032230
         H           -1.129016087687    -0.019649870633    -1.580985074941     1.007825032230
         H           -2.397515087687     0.811748129367    -0.907910074941     1.007825032230
         H           -2.397533087687    -0.851012870633    -0.907900074941     1.007825032230

  Basis Set: AUG-CC-PVTZ
    Blend: AUG-CC-PVTZ
  Basis Set: (AUG-CC-PVTZ AUX)
    Blend: AUG-CC-PVTZ-JKFIT
	 Reference Energy          =    -289.6692759732636091 [Eh]
	 Singles Energy            =      -0.0000000000000000 [Eh]
	 Same-Spin Energy          =      -0.3083873332504673 [Eh]
	 Opposite-Spin Energy      =      -1.0959439452278410 [Eh]
	 Correlation Energy        =      -1.4043312784783084 [Eh]
	 Total Energy              =    -291.0736072517419188 [Eh]

	 ================> DF-SCS-MP2 Energies <==================
	-----------------------------------------------------------
	 SCS Same-Spin Scale       =       0.3333333333333333 [-]
	 SCS Opposite-Spin Scale   =       1.2000000000000000 [-]
	 SCS Same-Spin Energy      =      -0.1027957777501558 [Eh]
	 SCS Opposite-Spin Energy  =      -1.3151327342734092 [Eh]
	 SCS Correlation Energy    =      -1.4179285120235650 [Eh]
	 SCS Total Energy          =    -291.0872044852872023 [Eh]
	-----------------------------------------------------------

  Dipole Moment: [D]
     X:    -5.4545      Y:    -0.2437      Z:    -2.0744     Total:     5.8407

*** Psi4 exiting successfully. Buy a developer a beer!
