                               Psi4 1.4a3.dev225

  ==> Input File <==

--------------------------------------------------------------------------
#psi4
#
memory 32 gb

molecule  {
1 1
  N       -1.8084550     0.0000000    -0.7896910
  C       -1.0774430     0.0000000     0.5533100
  C       -0.2407120    -1.2715670     0.6435230
  C       -0.2407120     1.2715670     0.6435240
  C        0.9483640    -1.2633510    -0.3226430
  C        0.9483630     1.2633510    -0.3226440
  C        1.7921720     0.0000000    -0.1500480
  H       -1.8788710     0.0000000     1.2988220
  H       -0.8715790    -2.1591400     0.5029120
  H        0.1300900    -1.3254650     1.6735610
  H        0.1300910     1.3254640     1.6735620
  H       -0.8715790     2.1591400     0.5029130
  H        0.5559500    -1.2456030    -1.3511496
  H        1.5530020    -2.1580160    -0.1459610
  H        1.5530010     2.1580160    -0.1459620
  H        0.6104120     1.3458830    -1.3672040
  H        2.2390370     0.0000010     0.8520310
  H        2.6220820     0.0000000    -0.8633810
  H       -1.1366960    -0.0000120    -1.5675160
  H       -2.4051950     0.8313860    -0.8944410
  H       -2.4052130    -0.8313750    -0.8944310
units angstrom
no_reorient  #important for SAPT in psi4, default
symmetry c1  #important for SAPT in psi4, default
}

set PROPERTIES_ORIGIN ["COM"]
properties('MP2/aug-cc-pvtz', properties = ['dipole'])
--------------------------------------------------------------------------

    Molecular point group: c1
  Charge       = 1
  Multiplicity = 1
  Basis Set: AUG-CC-PVTZ
    Blend: AUG-CC-PVTZ
  Basis Set: (AUG-CC-PVTZ AUX)
    Blend: AUG-CC-PVTZ-JKFIT

    Orbital Energies [Eh]
    ---------------------

    Doubly Occupied:

       1A    -15.874810     2A    -11.466992     3A    -11.390666
       4A    -11.389888     5A    -11.373026     6A    -11.371966
       7A    -11.357497     8A     -1.492821     9A     -1.278314
      10A     -1.173122    11A     -1.171137    12A     -1.010347
      13A     -1.005746    14A     -0.951882    15A     -0.934524
      16A     -0.917629    17A     -0.816606    18A     -0.813022
      19A     -0.766908    20A     -0.757186    21A     -0.698686
      22A     -0.696589    23A     -0.687651    24A     -0.686537
      25A     -0.645834    26A     -0.611475    27A     -0.595418
      28A     -0.594987

  @DF-RHF Final Energy:  -289.70834782787955

   => Energetics <=

    Nuclear Repulsion Energy =            346.9282689311157242
    One-Electron Energy =               -1068.2107000942680770
    Two-Electron Energy =                 431.5740833352727464
    Total Energy =                       -289.7083478278795496
  Basis Set: (AUG-CC-PVTZ AUX)
    Blend: AUG-CC-PVTZ-RI
    Molecular point group: c1

    Geometry (in Angstrom), charge = 1, multiplicity = 1:

       Center              X                  Y                   Z               Mass
    ------------   -----------------  -----------------  -----------------  -----------------
         N           -1.809050466944    -0.001009499920    -0.797184910014    14.003074004430
         C           -1.078038466944    -0.001009499920     0.545816089986    12.000000000000
         C           -0.241307466944    -1.272576499920     0.636029089986    12.000000000000
         C           -0.241307466944     1.270557500080     0.636030089986    12.000000000000
         C            0.947768533056    -1.264360499920    -0.330136910014    12.000000000000
         C            0.947767533056     1.262341500080    -0.330137910014    12.000000000000
         C            1.791576533056    -0.001009499920    -0.157541910014    12.000000000000
         H           -1.879466466944    -0.001009499920     1.291328089986     1.007825032230
         H           -0.872174466944    -2.160149499920     0.495418089986     1.007825032230
         H            0.129494533056    -1.326474499920     1.666067089986     1.007825032230
         H            0.129495533056     1.324454500080     1.666068089986     1.007825032230
         H           -0.872174466944     2.158130500080     0.495419089986     1.007825032230
         H            0.555354533056    -1.246612499920    -1.358643510014     1.007825032230
         H            1.552406533056    -2.159025499920    -0.153454910014     1.007825032230
         H            1.552405533056     2.157006500080    -0.153455910014     1.007825032230
         H            0.609816533056     1.344873500080    -1.374697910014     1.007825032230
         H            2.238441533056    -0.001008499920     0.844537089986     1.007825032230
         H            2.621486533056    -0.001009499920    -0.870874910014     1.007825032230
         H           -1.137291466944    -0.001021499920    -1.575009910014     1.007825032230
         H           -2.405790466944     0.830376500080    -0.901934910014     1.007825032230
         H           -2.405808466944    -0.832384499920    -0.901924910014     1.007825032230

  Basis Set: AUG-CC-PVTZ
    Blend: AUG-CC-PVTZ
  Basis Set: (AUG-CC-PVTZ AUX)
    Blend: AUG-CC-PVTZ-JKFIT
	 Reference Energy          =    -289.7083478278795496 [Eh]
	 Singles Energy            =      -0.0000000000000000 [Eh]
	 Same-Spin Energy          =      -0.3077580357905975 [Eh]
	 Opposite-Spin Energy      =      -1.0941747479107087 [Eh]
	 Correlation Energy        =      -1.4019327837013063 [Eh]
	 Total Energy              =    -291.1102806115808335 [Eh]

	 ================> DF-SCS-MP2 Energies <==================
	-----------------------------------------------------------
	 SCS Same-Spin Scale       =       0.3333333333333333 [-]
	 SCS Opposite-Spin Scale   =       1.2000000000000000 [-]
	 SCS Same-Spin Energy      =      -0.1025860119301992 [Eh]
	 SCS Opposite-Spin Energy  =      -1.3130096974928505 [Eh]
	 SCS Correlation Energy    =      -1.4155957094230496 [Eh]
	 SCS Total Energy          =    -291.1239435373025799 [Eh]
	-----------------------------------------------------------

  Dipole Moment: [D]
     X:    -5.6006      Y:     0.0255      Z:    -2.0222     Total:     5.9545

*** Psi4 exiting successfully. Buy a developer a beer!
