                               Psi4 1.4a3.dev225

  ==> Input File <==

--------------------------------------------------------------------------
#psi4
#
memory 32 gb

molecule  {
1 1
  N       -1.8084550     0.0000000    -0.7896910
  C       -1.0535391     0.0000000     0.5972258
  C       -0.2407120    -1.2715670     0.6435230
  C       -0.2407120     1.2715670     0.6435240
  C        0.9483640    -1.2633510    -0.3226430
  C        0.9483630     1.2633510    -0.3226440
  C        1.7921720     0.0000000    -0.1500480
  H       -1.8788710     0.0000000     1.2988220
  H       -0.8715790    -2.1591400     0.5029120
  H        0.1300900    -1.3254650     1.6735610
  H        0.1300910     1.3254640     1.6735620
  H       -0.8715790     2.1591400     0.5029130
  H        0.6104140    -1.3458840    -1.3672040
  H        1.5530020    -2.1580160    -0.1459610
  H        1.5530010     2.1580160    -0.1459620
  H        0.6104120     1.3458830    -1.3672040
  H        2.2390370     0.0000010     0.8520310
  H        2.6220820     0.0000000    -0.8633810
  H       -1.1366960    -0.0000120    -1.5675160
  H       -2.4051950     0.8313860    -0.8944410
  H       -2.4052130    -0.8313750    -0.8944310
units angstrom
no_reorient  #important for SAPT in psi4, default
symmetry c1  #important for SAPT in psi4, default
}

set PROPERTIES_ORIGIN ["COM"]
properties('MP2/aug-cc-pvtz', properties = ['dipole'])
--------------------------------------------------------------------------

    Molecular point group: c1
  Charge       = 1
  Multiplicity = 1
  Basis Set: AUG-CC-PVTZ
    Blend: AUG-CC-PVTZ
  Basis Set: (AUG-CC-PVTZ AUX)
    Blend: AUG-CC-PVTZ-JKFIT

    Orbital Energies [Eh]
    ---------------------

    Doubly Occupied:

       1A    -15.866209     2A    -11.470662     3A    -11.391116
       4A    -11.391104     5A    -11.372688     6A    -11.372685
       7A    -11.358754     8A     -1.478739     9A     -1.281505
      10A     -1.175048    11A     -1.173389    12A     -1.008158
      13A     -1.007423    14A     -0.941919    15A     -0.927091
      16A     -0.916063    17A     -0.819077    18A     -0.810164
      19A     -0.764422    20A     -0.756545    21A     -0.704236
      22A     -0.703609    23A     -0.688354    24A     -0.682459
      25A     -0.646843    26A     -0.611490    27A     -0.598839
      28A     -0.597055

  @DF-RHF Final Energy:  -289.70796767351720

   => Energetics <=

    Nuclear Repulsion Energy =            346.5271582851828498
    One-Electron Energy =               -1067.4389640034805780
    Two-Electron Energy =                 431.2038380447805253
    Total Energy =                       -289.7079676735172029
  Basis Set: (AUG-CC-PVTZ AUX)
    Blend: AUG-CC-PVTZ-RI
    Molecular point group: c1

    Geometry (in Angstrom), charge = 1, multiplicity = 1:

       Center              X                  Y                   Z               Mass
    ------------   -----------------  -----------------  -----------------  -----------------
         N           -1.812463992305     0.000000020134    -0.802287259259    14.003074004430
         C           -1.057548092305     0.000000020134     0.584629540741    12.000000000000
         C           -0.244720992305    -1.271566979866     0.630926740741    12.000000000000
         C           -0.244720992305     1.271567020134     0.630927740741    12.000000000000
         C            0.944355007695    -1.263350979866    -0.335239259259    12.000000000000
         C            0.944354007695     1.263351020134    -0.335240259259    12.000000000000
         C            1.788163007695     0.000000020134    -0.162644259259    12.000000000000
         H           -1.882879992305     0.000000020134     1.286225740741     1.007825032230
         H           -0.875587992305    -2.159139979866     0.490315740741     1.007825032230
         H            0.126081007695    -1.325464979866     1.660964740741     1.007825032230
         H            0.126082007695     1.325464020134     1.660965740741     1.007825032230
         H           -0.875587992305     2.159140020134     0.490316740741     1.007825032230
         H            0.606405007695    -1.345883979866    -1.379800259259     1.007825032230
         H            1.548993007695    -2.158015979866    -0.158557259259     1.007825032230
         H            1.548992007695     2.158016020134    -0.158558259259     1.007825032230
         H            0.606403007695     1.345883020134    -1.379800259259     1.007825032230
         H            2.235028007695     0.000001020134     0.839434740741     1.007825032230
         H            2.618073007695     0.000000020134    -0.875977259259     1.007825032230
         H           -1.140704992305    -0.000011979866    -1.580112259259     1.007825032230
         H           -2.409203992305     0.831386020134    -0.907037259259     1.007825032230
         H           -2.409221992305    -0.831374979866    -0.907027259259     1.007825032230

  Basis Set: AUG-CC-PVTZ
    Blend: AUG-CC-PVTZ
  Basis Set: (AUG-CC-PVTZ AUX)
    Blend: AUG-CC-PVTZ-JKFIT
	 Reference Energy          =    -289.7079676735172029 [Eh]
	 Singles Energy            =      -0.0000000000000000 [Eh]
	 Same-Spin Energy          =      -0.3075885283186321 [Eh]
	 Opposite-Spin Energy      =      -1.0940133140627504 [Eh]
	 Correlation Energy        =      -1.4016018423813825 [Eh]
	 Total Energy              =    -291.1095695158986132 [Eh]

	 ================> DF-SCS-MP2 Energies <==================
	-----------------------------------------------------------
	 SCS Same-Spin Scale       =       0.3333333333333333 [-]
	 SCS Opposite-Spin Scale   =       1.2000000000000000 [-]
	 SCS Same-Spin Energy      =      -0.1025295094395440 [Eh]
	 SCS Opposite-Spin Energy  =      -1.3128159768753005 [Eh]
	 SCS Correlation Energy    =      -1.4153454863148445 [Eh]
	 SCS Total Energy          =    -291.1233131598320369 [Eh]
	-----------------------------------------------------------

  Dipole Moment: [D]
     X:    -5.4978      Y:    -0.0000      Z:    -1.9398     Total:     5.8299

*** Psi4 exiting successfully. Buy a developer a beer!
