                               Psi4 1.4a3.dev225

  ==> Input File <==

--------------------------------------------------------------------------
#psi4
#
memory 32 gb

molecule  {
1 1
  N       -1.7971425    -0.0234413    -0.7955834
  C       -1.0774430     0.0000000     0.5533100
  C       -0.2407120    -1.2715670     0.6435230
  C       -0.2407120     1.2715670     0.6435240
  C        0.9483640    -1.2633510    -0.3226430
  C        0.9483630     1.2633510    -0.3226440
  C        1.7921720     0.0000000    -0.1500480
  H       -1.8788710     0.0000000     1.2988220
  H       -0.8715790    -2.1591400     0.5029120
  H        0.1300900    -1.3254650     1.6735610
  H        0.1300910     1.3254640     1.6735620
  H       -0.8715790     2.1591400     0.5029130
  H        0.6104140    -1.3458840    -1.3672040
  H        1.5530020    -2.1580160    -0.1459610
  H        1.5530010     2.1580160    -0.1459620
  H        0.6104120     1.3458830    -1.3672040
  H        2.2390370     0.0000010     0.8520310
  H        2.6220820     0.0000000    -0.8633810
  H       -1.1366960    -0.0000120    -1.5675160
  H       -2.4051950     0.8313860    -0.8944410
  H       -2.4052130    -0.8313750    -0.8944310
units angstrom
no_reorient  #important for SAPT in psi4, default
symmetry c1  #important for SAPT in psi4, default
}

set PROPERTIES_ORIGIN ["COM"]
properties('MP2/aug-cc-pvtz', properties = ['dipole'])
--------------------------------------------------------------------------

    Molecular point group: c1
  Charge       = 1
  Multiplicity = 1
  Basis Set: AUG-CC-PVTZ
    Blend: AUG-CC-PVTZ
  Basis Set: (AUG-CC-PVTZ AUX)
    Blend: AUG-CC-PVTZ-JKFIT

    Orbital Energies [Eh]
    ---------------------

    Doubly Occupied:

       1A    -15.874601     2A    -11.466874     3A    -11.390948
       4A    -11.389745     5A    -11.371821     6A    -11.371389
       7A    -11.357829     8A     -1.492647     9A     -1.277539
      10A     -1.172619    11A     -1.170759    12A     -1.010740
      13A     -1.005990    14A     -0.955268    15A     -0.928277
      16A     -0.919098    17A     -0.816259    18A     -0.814428
      19A     -0.764015    20A     -0.755843    21A     -0.699002
      22A     -0.696082    23A     -0.686883    24A     -0.685767
      25A     -0.646456    26A     -0.611003    27A     -0.595470
      28A     -0.594905

  @DF-RHF Final Energy:  -289.70876543418541

   => Energetics <=

    Nuclear Repulsion Energy =            346.8009855834019959
    One-Electron Energy =               -1067.9749884447669501
    Two-Electron Energy =                 431.4652374271794883
    Total Energy =                       -289.7087654341854090
  Basis Set: (AUG-CC-PVTZ AUX)
    Blend: AUG-CC-PVTZ-RI
    Molecular point group: c1

    Geometry (in Angstrom), charge = 1, multiplicity = 1:

       Center              X                  Y                   Z               Mass
    ------------   -----------------  -----------------  -----------------  -----------------
         N           -1.799868566940    -0.020162470021    -0.802091502880    14.003074004430
         C           -1.080169066940     0.003278829979     0.546801897120    12.000000000000
         C           -0.243438066940    -1.268288170021     0.637014897120    12.000000000000
         C           -0.243438066940     1.274845829979     0.637015897120    12.000000000000
         C            0.945637933060    -1.260072170021    -0.329151102880    12.000000000000
         C            0.945636933060     1.266629829979    -0.329152102880    12.000000000000
         C            1.789445933060     0.003278829979    -0.156556102880    12.000000000000
         H           -1.881597066940     0.003278829979     1.292313897120     1.007825032230
         H           -0.874305066940    -2.155861170021     0.496403897120     1.007825032230
         H            0.127363933060    -1.322186170021     1.667052897120     1.007825032230
         H            0.127364933060     1.328742829979     1.667053897120     1.007825032230
         H           -0.874305066940     2.162418829979     0.496404897120     1.007825032230
         H            0.607687933060    -1.342605170021    -1.373712102880     1.007825032230
         H            1.550275933060    -2.154737170021    -0.152469102880     1.007825032230
         H            1.550274933060     2.161294829979    -0.152470102880     1.007825032230
         H            0.607685933060     1.349161829979    -1.373712102880     1.007825032230
         H            2.236310933060     0.003279829979     0.845522897120     1.007825032230
         H            2.619355933060     0.003278829979    -0.869889102880     1.007825032230
         H           -1.139422066940     0.003266829979    -1.574024102880     1.007825032230
         H           -2.407921066940     0.834664829979    -0.900949102880     1.007825032230
         H           -2.407939066940    -0.828096170021    -0.900939102880     1.007825032230

  Basis Set: AUG-CC-PVTZ
    Blend: AUG-CC-PVTZ
  Basis Set: (AUG-CC-PVTZ AUX)
    Blend: AUG-CC-PVTZ-JKFIT
	 Reference Energy          =    -289.7087654341854090 [Eh]
	 Singles Energy            =      -0.0000000000000000 [Eh]
	 Same-Spin Energy          =      -0.3076610909153565 [Eh]
	 Opposite-Spin Energy      =      -1.0939730849228981 [Eh]
	 Correlation Energy        =      -1.4016341758382547 [Eh]
	 Total Energy              =    -291.1103996100236486 [Eh]

	 ================> DF-SCS-MP2 Energies <==================
	-----------------------------------------------------------
	 SCS Same-Spin Scale       =       0.3333333333333333 [-]
	 SCS Opposite-Spin Scale   =       1.2000000000000000 [-]
	 SCS Same-Spin Energy      =      -0.1025536969717855 [Eh]
	 SCS Opposite-Spin Energy  =      -1.3127677019074777 [Eh]
	 SCS Correlation Energy    =      -1.4153213988792632 [Eh]
	 SCS Total Energy          =    -291.1240868330646663 [Eh]
	-----------------------------------------------------------

  Dipole Moment: [D]
     X:    -5.6172      Y:     0.0373      Z:    -2.0447     Total:     5.9779

*** Psi4 exiting successfully. Buy a developer a beer!
