                               Psi4 1.4a3.dev225

  ==> Input File <==

--------------------------------------------------------------------------
#psi4
#
memory 32 gb

molecule  {
1 1
  N       -1.8084550     0.0000000    -0.7896910
  C       -1.0774430     0.0000000     0.5533100
  C       -0.2407120    -1.2715670     0.6435230
  C       -0.2407120     1.2715670     0.6435240
  C        0.9483640    -1.2633510    -0.3226430
  C        0.9483630     1.2633510    -0.3226440
  C        1.7921720     0.0000000    -0.1500480
  H       -1.8788710     0.0000000     1.2988220
  H       -0.8715790    -2.1591400     0.5029120
  H        0.1300900    -1.3254650     1.6735610
  H        0.1300910     1.3254640     1.6735620
  H       -0.8715790     2.1591400     0.5029130
  H        0.6104140    -1.3458840    -1.3672040
  H        1.5530020    -2.1580160    -0.1459610
  H        1.5462061     2.1688971    -0.1819352
  H        0.6104120     1.3458830    -1.3672040
  H        2.2390370     0.0000010     0.8520310
  H        2.6220820     0.0000000    -0.8633810
  H       -1.1366960    -0.0000120    -1.5675160
  H       -2.4051950     0.8313860    -0.8944410
  H       -2.4052130    -0.8313750    -0.8944310
units angstrom
no_reorient  #important for SAPT in psi4, default
symmetry c1  #important for SAPT in psi4, default
}

set PROPERTIES_ORIGIN ["COM"]
properties('MP2/aug-cc-pvtz', properties = ['dipole'])
--------------------------------------------------------------------------

    Molecular point group: c1
  Charge       = 1
  Multiplicity = 1
  Basis Set: AUG-CC-PVTZ
    Blend: AUG-CC-PVTZ
  Basis Set: (AUG-CC-PVTZ AUX)
    Blend: AUG-CC-PVTZ-JKFIT

    Orbital Energies [Eh]
    ---------------------

    Doubly Occupied:

       1A    -15.874452     2A    -11.466938     3A    -11.390685
       4A    -11.390550     5A    -11.371797     6A    -11.371654
       7A    -11.358052     8A     -1.492361     9A     -1.277599
      10A     -1.172617    11A     -1.170672    12A     -1.010147
      13A     -1.006544    14A     -0.950856    15A     -0.934283
      16A     -0.918950    17A     -0.815463    18A     -0.814378
      19A     -0.763214    20A     -0.755515    21A     -0.699313
      22A     -0.696378    23A     -0.687114    24A     -0.686514
      25A     -0.645789    26A     -0.610347    27A     -0.596354
      28A     -0.595032

  @DF-RHF Final Energy:  -289.70961069117737

   => Energetics <=

    Nuclear Repulsion Energy =            346.6743892139515992
    One-Electron Energy =               -1067.7208664965073694
    Two-Electron Energy =                 431.3368665913783957
    Total Energy =                       -289.7096106911773745
  Basis Set: (AUG-CC-PVTZ AUX)
    Blend: AUG-CC-PVTZ-RI
    Molecular point group: c1

    Geometry (in Angstrom), charge = 1, multiplicity = 1:

       Center              X                  Y                   Z               Mass
    ------------   -----------------  -----------------  -----------------  -----------------
         N           -1.809530347604    -0.000109518948    -0.796661152717    14.003074004430
         C           -1.078518347604    -0.000109518948     0.546339847283    12.000000000000
         C           -0.241787347604    -1.271676518948     0.636552847283    12.000000000000
         C           -0.241787347604     1.271457481052     0.636553847283    12.000000000000
         C            0.947288652396    -1.263460518948    -0.329613152717    12.000000000000
         C            0.947287652396     1.263241481052    -0.329614152717    12.000000000000
         C            1.791096652396    -0.000109518948    -0.157018152717    12.000000000000
         H           -1.879946347604    -0.000109518948     1.291851847283     1.007825032230
         H           -0.872654347604    -2.159249518948     0.495941847283     1.007825032230
         H            0.129014652396    -1.325574518948     1.666590847283     1.007825032230
         H            0.129015652396     1.325354481052     1.666591847283     1.007825032230
         H           -0.872654347604     2.159030481052     0.495942847283     1.007825032230
         H            0.609338652396    -1.345993518948    -1.374174152717     1.007825032230
         H            1.551926652396    -2.158125518948    -0.152931152717     1.007825032230
         H            1.545130752396     2.168787581052    -0.188905352717     1.007825032230
         H            0.609336652396     1.345773481052    -1.374174152717     1.007825032230
         H            2.237961652396    -0.000108518948     0.845060847283     1.007825032230
         H            2.621006652396    -0.000109518948    -0.870351152717     1.007825032230
         H           -1.137771347604    -0.000121518948    -1.574486152717     1.007825032230
         H           -2.406270347604     0.831276481052    -0.901411152717     1.007825032230
         H           -2.406288347604    -0.831484518948    -0.901401152717     1.007825032230

  Basis Set: AUG-CC-PVTZ
    Blend: AUG-CC-PVTZ
  Basis Set: (AUG-CC-PVTZ AUX)
    Blend: AUG-CC-PVTZ-JKFIT
	 Reference Energy          =    -289.7096106911773745 [Eh]
	 Singles Energy            =      -0.0000000000000000 [Eh]
	 Same-Spin Energy          =      -0.3076479291366965 [Eh]
	 Opposite-Spin Energy      =      -1.0938862905275424 [Eh]
	 Correlation Energy        =      -1.4015342196642389 [Eh]
	 Total Energy              =    -291.1111449108416309 [Eh]

	 ================> DF-SCS-MP2 Energies <==================
	-----------------------------------------------------------
	 SCS Same-Spin Scale       =       0.3333333333333333 [-]
	 SCS Opposite-Spin Scale   =       1.2000000000000000 [-]
	 SCS Same-Spin Energy      =      -0.1025493097122322 [Eh]
	 SCS Opposite-Spin Energy  =      -1.3126635486330509 [Eh]
	 SCS Correlation Energy    =      -1.4152128583452830 [Eh]
	 SCS Total Energy          =    -291.1248235495226595 [Eh]
	-----------------------------------------------------------

  Dipole Moment: [D]
     X:    -5.6000      Y:     0.0036      Z:    -2.0610     Total:     5.9672

*** Psi4 exiting successfully. Buy a developer a beer!
