                               Psi4 1.4a3.dev225

  ==> Input File <==

--------------------------------------------------------------------------
#psi4
#
memory 32 gb

molecule  {
1 1
  N       -1.8084550     0.0000000    -0.7896910
  C       -1.0774430     0.0000000     0.5533100
  C       -0.2407120    -1.2715670     0.6435230
  C       -0.2407120     1.2715670     0.6435240
  C        0.9483640    -1.2633510    -0.3226430
  C        0.9483630     1.2633510    -0.3226440
  C        1.7921720     0.0000000    -0.1500480
  H       -1.8788710     0.0000000     1.2988220
  H       -0.8715790    -2.1591400     0.5029120
  H        0.1300900    -1.3254650     1.6735610
  H        0.1639211     1.3303813     1.7675372
  H       -0.8715790     2.1591400     0.5029130
  H        0.6104140    -1.3458840    -1.3672040
  H        1.5530020    -2.1580160    -0.1459610
  H        1.5530010     2.1580160    -0.1459620
  H        0.6104120     1.3458830    -1.3672040
  H        2.2390370     0.0000010     0.8520310
  H        2.6220820     0.0000000    -0.8633810
  H       -1.1366960    -0.0000120    -1.5675160
  H       -2.4051950     0.8313860    -0.8944410
  H       -2.4052130    -0.8313750    -0.8944310
units angstrom
no_reorient  #important for SAPT in psi4, default
symmetry c1  #important for SAPT in psi4, default
}

set PROPERTIES_ORIGIN ["COM"]
properties('MP2/aug-cc-pvtz', properties = ['dipole'])
--------------------------------------------------------------------------

    Molecular point group: c1
  Charge       = 1
  Multiplicity = 1
  Basis Set: AUG-CC-PVTZ
    Blend: AUG-CC-PVTZ
  Basis Set: (AUG-CC-PVTZ AUX)
    Blend: AUG-CC-PVTZ-JKFIT

    Orbital Energies [Eh]
    ---------------------

    Doubly Occupied:

       1A    -15.875076     2A    -11.467355     3A    -11.401304
       4A    -11.390341     5A    -11.372449     6A    -11.371669
       7A    -11.357877     8A     -1.492963     9A     -1.276390
      10A     -1.171472    11A     -1.169386    12A     -1.009421
      13A     -1.004267    14A     -0.950253    15A     -0.933170
      16A     -0.915773    17A     -0.815727    18A     -0.814026
      19A     -0.764012    20A     -0.751100    21A     -0.698517
      22A     -0.696626    23A     -0.686680    24A     -0.680381
      25A     -0.639154    26A     -0.610124    27A     -0.595810
      28A     -0.595295

  @DF-RHF Final Energy:  -289.70307202729384

   => Energetics <=

    Nuclear Repulsion Energy =            346.2350512214796936
    One-Electron Energy =               -1066.8630147858564214
    Two-Electron Energy =                 430.9248915370828854
    Total Energy =                       -289.7030720272938424
  Basis Set: (AUG-CC-PVTZ AUX)
    Blend: AUG-CC-PVTZ-RI
    Molecular point group: c1

    Geometry (in Angstrom), charge = 1, multiplicity = 1:

       Center              X                  Y                   Z               Mass
    ------------   -----------------  -----------------  -----------------  -----------------
         N           -1.809939315925    -0.000049481895    -0.797969331891    14.003074004430
         C           -1.078927315925    -0.000049481895     0.545031668109    12.000000000000
         C           -0.242196315925    -1.271616481895     0.635244668109    12.000000000000
         C           -0.242196315925     1.271517518105     0.635245668109    12.000000000000
         C            0.946879684075    -1.263400481895    -0.330921331891    12.000000000000
         C            0.946878684075     1.263301518105    -0.330922331891    12.000000000000
         C            1.790687684075    -0.000049481895    -0.158326331891    12.000000000000
         H           -1.880355315925    -0.000049481895     1.290543668109     1.007825032230
         H           -0.873063315925    -2.159189481895     0.494633668109     1.007825032230
         H            0.128605684075    -1.325514481895     1.665282668109     1.007825032230
         H            0.162436784075     1.330331818105     1.759258868109     1.007825032230
         H           -0.873063315925     2.159090518105     0.494634668109     1.007825032230
         H            0.608929684075    -1.345933481895    -1.375482331891     1.007825032230
         H            1.551517684075    -2.158065481895    -0.154239331891     1.007825032230
         H            1.551516684075     2.157966518105    -0.154240331891     1.007825032230
         H            0.608927684075     1.345833518105    -1.375482331891     1.007825032230
         H            2.237552684075    -0.000048481895     0.843752668109     1.007825032230
         H            2.620597684075    -0.000049481895    -0.871659331891     1.007825032230
         H           -1.138180315925    -0.000061481895    -1.575794331891     1.007825032230
         H           -2.406679315925     0.831336518105    -0.902719331891     1.007825032230
         H           -2.406697315925    -0.831424481895    -0.902709331891     1.007825032230

  Basis Set: AUG-CC-PVTZ
    Blend: AUG-CC-PVTZ
  Basis Set: (AUG-CC-PVTZ AUX)
    Blend: AUG-CC-PVTZ-JKFIT
	 Reference Energy          =    -289.7030720272938424 [Eh]
	 Singles Energy            =      -0.0000000000000000 [Eh]
	 Same-Spin Energy          =      -0.3077625438607386 [Eh]
	 Opposite-Spin Energy      =      -1.0947455582031560 [Eh]
	 Correlation Energy        =      -1.4025081020638948 [Eh]
	 Total Energy              =    -291.1055801293577474 [Eh]

	 ================> DF-SCS-MP2 Energies <==================
	-----------------------------------------------------------
	 SCS Same-Spin Scale       =       0.3333333333333333 [-]
	 SCS Opposite-Spin Scale   =       1.2000000000000000 [-]
	 SCS Same-Spin Energy      =      -0.1025875146202462 [Eh]
	 SCS Opposite-Spin Energy  =      -1.3136946698437872 [Eh]
	 SCS Correlation Energy    =      -1.4162821844640334 [Eh]
	 SCS Total Energy          =    -291.1193542117578659 [Eh]
	-----------------------------------------------------------

  Dipole Moment: [D]
     X:    -5.5970      Y:     0.0038      Z:    -2.0746     Total:     5.9691

*** Psi4 exiting successfully. Buy a developer a beer!
