                               Psi4 1.4a3.dev225

  ==> Input File <==

--------------------------------------------------------------------------
#psi4
#
memory 32 gb

molecule  {
1 1
  N       -1.8084550     0.0000000    -0.7896910
  C       -1.0774430     0.0000000     0.5533100
  C       -0.2407120    -1.2715670     0.6435230
  C       -0.2407120     1.2715670     0.6435240
  C        0.9483640    -1.2633510    -0.3226430
  C        0.9483630     1.2633510    -0.3226440
  C        1.7921720     0.0000000    -0.1500480
  H       -1.8788710     0.0000000     1.2988220
  H       -0.8715790    -2.1591400     0.5029120
  H        0.1300900    -1.3254650     1.6735610
  H        0.1300910     1.3254640     1.6735620
  H       -0.8715790     2.1591400     0.5029130
  H        0.5736555    -1.2790628    -1.3577644
  H        1.5530020    -2.1580160    -0.1459610
  H        1.5530010     2.1580160    -0.1459620
  H        0.6104120     1.3458830    -1.3672040
  H        2.2390370     0.0000010     0.8520310
  H        2.6220820     0.0000000    -0.8633810
  H       -1.1366960    -0.0000120    -1.5675160
  H       -2.4051950     0.8313860    -0.8944410
  H       -2.4052130    -0.8313750    -0.8944310
units angstrom
no_reorient  #important for SAPT in psi4, default
symmetry c1  #important for SAPT in psi4, default
}

set PROPERTIES_ORIGIN ["COM"]
properties('MP2/aug-cc-pvtz', properties = ['dipole'])
--------------------------------------------------------------------------

    Molecular point group: c1
  Charge       = 1
  Multiplicity = 1
  Basis Set: AUG-CC-PVTZ
    Blend: AUG-CC-PVTZ
  Basis Set: (AUG-CC-PVTZ AUX)
    Blend: AUG-CC-PVTZ-JKFIT

    Orbital Energies [Eh]
    ---------------------

    Doubly Occupied:

       1A    -15.874722     2A    -11.466920     3A    -11.390605
       4A    -11.390082     5A    -11.372568     6A    -11.371863
       7A    -11.357614     8A     -1.492686     9A     -1.278067
      10A     -1.172949    11A     -1.170980    12A     -1.010271
      13A     -1.005920    14A     -0.951557    15A     -0.934444
      16A     -0.917872    17A     -0.816207    18A     -0.813306
      19A     -0.765849    20A     -0.757005    21A     -0.698633
      22A     -0.696419    23A     -0.687448    24A     -0.686380
      25A     -0.646231    26A     -0.611328    27A     -0.595537
      28A     -0.595054

  @DF-RHF Final Energy:  -289.70912910723996

   => Energetics <=

    Nuclear Repulsion Energy =            346.8489328886557246
    One-Electron Energy =               -1068.0590876784283410
    Two-Electron Energy =                 431.5010256825325996
    Total Energy =                       -289.7091291072399599
  Basis Set: (AUG-CC-PVTZ AUX)
    Blend: AUG-CC-PVTZ-RI
    Molecular point group: c1

    Geometry (in Angstrom), charge = 1, multiplicity = 1:

       Center              X                  Y                   Z               Mass
    ------------   -----------------  -----------------  -----------------  -----------------
         N           -1.809228706664    -0.000672663041    -0.797118319401    14.003074004430
         C           -1.078216706664    -0.000672663041     0.545882680599    12.000000000000
         C           -0.241485706664    -1.272239663041     0.636095680599    12.000000000000
         C           -0.241485706664     1.270894336959     0.636096680599    12.000000000000
         C            0.947590293336    -1.264023663041    -0.330070319401    12.000000000000
         C            0.947589293336     1.262678336959    -0.330071319401    12.000000000000
         C            1.791398293336    -0.000672663041    -0.157475319401    12.000000000000
         H           -1.879644706664    -0.000672663041     1.291394680599     1.007825032230
         H           -0.872352706664    -2.159812663041     0.495484680599     1.007825032230
         H            0.129316293336    -1.326137663041     1.666133680599     1.007825032230
         H            0.129317293336     1.324791336959     1.666134680599     1.007825032230
         H           -0.872352706664     2.158467336959     0.495485680599     1.007825032230
         H            0.572881793336    -1.279735463041    -1.365191719401     1.007825032230
         H            1.552228293336    -2.158688663041    -0.153388319401     1.007825032230
         H            1.552227293336     2.157343336959    -0.153389319401     1.007825032230
         H            0.609638293336     1.345210336959    -1.374631319401     1.007825032230
         H            2.238263293336    -0.000671663041     0.844603680599     1.007825032230
         H            2.621308293336    -0.000672663041    -0.870808319401     1.007825032230
         H           -1.137469706664    -0.000684663041    -1.574943319401     1.007825032230
         H           -2.405968706664     0.830713336959    -0.901868319401     1.007825032230
         H           -2.405986706664    -0.832047663041    -0.901858319401     1.007825032230

  Basis Set: AUG-CC-PVTZ
    Blend: AUG-CC-PVTZ
  Basis Set: (AUG-CC-PVTZ AUX)
    Blend: AUG-CC-PVTZ-JKFIT
	 Reference Energy          =    -289.7091291072399599 [Eh]
	 Singles Energy            =      -0.0000000000000000 [Eh]
	 Same-Spin Energy          =      -0.3077001647797535 [Eh]
	 Opposite-Spin Energy      =      -1.0940562086283050 [Eh]
	 Correlation Energy        =      -1.4017563734080585 [Eh]
	 Total Energy              =    -291.1108854806479940 [Eh]

	 ================> DF-SCS-MP2 Energies <==================
	-----------------------------------------------------------
	 SCS Same-Spin Scale       =       0.3333333333333333 [-]
	 SCS Opposite-Spin Scale   =       1.2000000000000000 [-]
	 SCS Same-Spin Energy      =      -0.1025667215932512 [Eh]
	 SCS Opposite-Spin Energy  =      -1.3128674503539659 [Eh]
	 SCS Correlation Energy    =      -1.4154341719472170 [Eh]
	 SCS Total Energy          =    -291.1245632791871571 [Eh]
	-----------------------------------------------------------

  Dipole Moment: [D]
     X:    -5.6008      Y:     0.0177      Z:    -2.0322     Total:     5.9581

*** Psi4 exiting successfully. Buy a developer a beer!
