                               Psi4 1.4a3.dev225

  ==> Input File <==

--------------------------------------------------------------------------
#psi4
#
memory 32 gb

molecule  {
1 1
  N       -1.8084550     0.0000000    -0.7896910
  C       -0.9818272     0.0000000     0.7289734
  C       -0.2407120    -1.2715670     0.6435230
  C       -0.2407120     1.2715670     0.6435240
  C        0.9483640    -1.2633510    -0.3226430
  C        0.9483630     1.2633510    -0.3226440
  C        1.7921720     0.0000000    -0.1500480
  H       -1.8788710     0.0000000     1.2988220
  H       -0.8715790    -2.1591400     0.5029120
  H        0.1300900    -1.3254650     1.6735610
  H        0.1300910     1.3254640     1.6735620
  H       -0.8715790     2.1591400     0.5029130
  H        0.6104140    -1.3458840    -1.3672040
  H        1.5530020    -2.1580160    -0.1459610
  H        1.5530010     2.1580160    -0.1459620
  H        0.6104120     1.3458830    -1.3672040
  H        2.2390370     0.0000010     0.8520310
  H        2.6220820     0.0000000    -0.8633810
  H       -1.1366960    -0.0000120    -1.5675160
  H       -2.4051950     0.8313860    -0.8944410
  H       -2.4052130    -0.8313750    -0.8944310
units angstrom
no_reorient  #important for SAPT in psi4, default
symmetry c1  #important for SAPT in psi4, default
}

set PROPERTIES_ORIGIN ["COM"]
properties('MP2/aug-cc-pvtz', properties = ['dipole'])
--------------------------------------------------------------------------

    Molecular point group: c1
  Charge       = 1
  Multiplicity = 1
  Basis Set: AUG-CC-PVTZ
    Blend: AUG-CC-PVTZ
  Basis Set: (AUG-CC-PVTZ AUX)
    Blend: AUG-CC-PVTZ-JKFIT

    Orbital Energies [Eh]
    ---------------------

    Doubly Occupied:

       1A    -15.834399     2A    -11.485371     3A    -11.395631
       4A    -11.395616     5A    -11.376381     6A    -11.376378
       7A    -11.362035     8A     -1.440330     9A     -1.293433
      10A     -1.183456    11A     -1.181740    12A     -1.016738
      13A     -1.004617    14A     -0.917103    15A     -0.910336
      16A     -0.901658    17A     -0.831640    18A     -0.798856
      19A     -0.762599    20A     -0.756843    21A     -0.727532
      22A     -0.717802    23A     -0.694006    24A     -0.664479
      25A     -0.647905    26A     -0.613304    27A     -0.607047
      28A     -0.602672

  @DF-RHF Final Energy:  -289.68668275887399

   => Energetics <=

    Nuclear Repulsion Energy =            345.9718654369414139
    One-Electron Energy =               -1066.3172817003130604
    Two-Electron Energy =                 430.6587335044976044
    Total Energy =                       -289.6866827588739852
  Basis Set: (AUG-CC-PVTZ AUX)
    Blend: AUG-CC-PVTZ-RI
    Molecular point group: c1

    Geometry (in Angstrom), charge = 1, multiplicity = 1:

       Center              X                  Y                   Z               Mass
    ------------   -----------------  -----------------  -----------------  -----------------
         N           -1.821059739392     0.000000020134    -0.818079185688    14.003074004430
         C           -0.994431939392     0.000000020134     0.700585214312    12.000000000000
         C           -0.253316739392    -1.271566979866     0.615134814312    12.000000000000
         C           -0.253316739392     1.271567020134     0.615135814312    12.000000000000
         C            0.935759260608    -1.263350979866    -0.351031185688    12.000000000000
         C            0.935758260608     1.263351020134    -0.351032185688    12.000000000000
         C            1.779567260608     0.000000020134    -0.178436185688    12.000000000000
         H           -1.891475739392     0.000000020134     1.270433814312     1.007825032230
         H           -0.884183739392    -2.159139979866     0.474523814312     1.007825032230
         H            0.117485260608    -1.325464979866     1.645172814312     1.007825032230
         H            0.117486260608     1.325464020134     1.645173814312     1.007825032230
         H           -0.884183739392     2.159140020134     0.474524814312     1.007825032230
         H            0.597809260608    -1.345883979866    -1.395592185688     1.007825032230
         H            1.540397260608    -2.158015979866    -0.174349185688     1.007825032230
         H            1.540396260608     2.158016020134    -0.174350185688     1.007825032230
         H            0.597807260608     1.345883020134    -1.395592185688     1.007825032230
         H            2.226432260608     0.000001020134     0.823642814312     1.007825032230
         H            2.609477260608     0.000000020134    -0.891769185688     1.007825032230
         H           -1.149300739392    -0.000011979866    -1.595904185688     1.007825032230
         H           -2.417799739392     0.831386020134    -0.922829185688     1.007825032230
         H           -2.417817739392    -0.831374979866    -0.922819185688     1.007825032230

  Basis Set: AUG-CC-PVTZ
    Blend: AUG-CC-PVTZ
  Basis Set: (AUG-CC-PVTZ AUX)
    Blend: AUG-CC-PVTZ-JKFIT
	 Reference Energy          =    -289.6866827588739852 [Eh]
	 Singles Energy            =      -0.0000000000000000 [Eh]
	 Same-Spin Energy          =      -0.3079131307826782 [Eh]
	 Opposite-Spin Energy      =      -1.0948083656876590 [Eh]
	 Correlation Energy        =      -1.4027214964703374 [Eh]
	 Total Energy              =    -291.0894042553443342 [Eh]

	 ================> DF-SCS-MP2 Energies <==================
	-----------------------------------------------------------
	 SCS Same-Spin Scale       =       0.3333333333333333 [-]
	 SCS Opposite-Spin Scale   =       1.2000000000000000 [-]
	 SCS Same-Spin Energy      =      -0.1026377102608927 [Eh]
	 SCS Opposite-Spin Energy  =      -1.3137700388251907 [Eh]
	 SCS Correlation Energy    =      -1.4164077490860834 [Eh]
	 SCS Total Energy          =    -291.1030905079600757 [Eh]
	-----------------------------------------------------------

  Dipole Moment: [D]
     X:    -5.0799      Y:    -0.0000      Z:    -1.4933     Total:     5.2949

*** Psi4 exiting successfully. Buy a developer a beer!
