                               Psi4 1.4a3.dev225

  ==> Input File <==

--------------------------------------------------------------------------
#psi4
#
memory 32 gb

molecule  {
1 1
  N       -1.8084550     0.0000000    -0.7896910
  C       -1.0774430     0.0000000     0.5533100
  C       -0.2407120    -1.2715670     0.6435230
  C       -0.2407120     1.2715670     0.6435240
  C        0.9483640    -1.2633510    -0.3226430
  C        0.9483630     1.2633510    -0.3226440
  C        1.7369852     0.0826257    -0.1613361
  H       -1.8788710     0.0000000     1.2988220
  H       -0.8715790    -2.1591400     0.5029120
  H        0.1300900    -1.3254650     1.6735610
  H        0.1300910     1.3254640     1.6735620
  H       -0.8715790     2.1591400     0.5029130
  H        0.6104140    -1.3458840    -1.3672040
  H        1.5530020    -2.1580160    -0.1459610
  H        1.5530010     2.1580160    -0.1459620
  H        0.6104120     1.3458830    -1.3672040
  H        2.2390370     0.0000010     0.8520310
  H        2.6220820     0.0000000    -0.8633810
  H       -1.1366960    -0.0000120    -1.5675160
  H       -2.4051950     0.8313860    -0.8944410
  H       -2.4052130    -0.8313750    -0.8944310
units angstrom
no_reorient  #important for SAPT in psi4, default
symmetry c1  #important for SAPT in psi4, default
}

set PROPERTIES_ORIGIN ["COM"]
properties('MP2/aug-cc-pvtz', properties = ['dipole'])
--------------------------------------------------------------------------

    Molecular point group: c1
  Charge       = 1
  Multiplicity = 1
  Basis Set: AUG-CC-PVTZ
    Blend: AUG-CC-PVTZ
  Basis Set: (AUG-CC-PVTZ AUX)
    Blend: AUG-CC-PVTZ-JKFIT

    Orbital Energies [Eh]
    ---------------------

    Doubly Occupied:

       1A    -15.874786     2A    -11.467209     3A    -11.391210
       4A    -11.389510     5A    -11.373601     6A    -11.368689
       7A    -11.361147     8A     -1.492737     9A     -1.283011
      10A     -1.183090    11A     -1.167696    12A     -1.014570
      13A     -1.003363    14A     -0.951379    15A     -0.934767
      16A     -0.915197    17A     -0.816392    18A     -0.814886
      19A     -0.765834    20A     -0.756464    21A     -0.708785
      22A     -0.695975    23A     -0.688202    24A     -0.683775
      25A     -0.648011    26A     -0.617714    27A     -0.592260
      28A     -0.579178

  @DF-RHF Final Energy:  -289.69810704111683

   => Energetics <=

    Nuclear Repulsion Energy =            347.6608109546166361
    One-Electron Energy =               -1069.6389616732212744
    Two-Electron Energy =                 432.2800436774878108
    Total Energy =                       -289.6981070411168275
  Basis Set: (AUG-CC-PVTZ AUX)
    Blend: AUG-CC-PVTZ-RI
    Molecular point group: c1

    Geometry (in Angstrom), charge = 1, multiplicity = 1:

       Center              X                  Y                   Z               Mass
    ------------   -----------------  -----------------  -----------------  -----------------
         N           -1.802983785337    -0.009903909619    -0.795670243637    14.003074004430
         C           -1.071971785337    -0.009903909619     0.547330756363    12.000000000000
         C           -0.235240785337    -1.281470909619     0.637543756363    12.000000000000
         C           -0.235240785337     1.261663090381     0.637544756363    12.000000000000
         C            0.953835214663    -1.273254909619    -0.328622243637    12.000000000000
         C            0.953834214663     1.253447090381    -0.328623243637    12.000000000000
         C            1.742456414663     0.072721790381    -0.167315343637    12.000000000000
         H           -1.873399785337    -0.009903909619     1.292842756363     1.007825032230
         H           -0.866107785337    -2.169043909619     0.496932756363     1.007825032230
         H            0.135561214663    -1.335368909619     1.667581756363     1.007825032230
         H            0.135562214663     1.315560090381     1.667582756363     1.007825032230
         H           -0.866107785337     2.149236090381     0.496933756363     1.007825032230
         H            0.615885214663    -1.355787909619    -1.373183243637     1.007825032230
         H            1.558473214663    -2.167919909619    -0.151940243637     1.007825032230
         H            1.558472214663     2.148112090381    -0.151941243637     1.007825032230
         H            0.615883214663     1.335979090381    -1.373183243637     1.007825032230
         H            2.244508214663    -0.009902909619     0.846051756363     1.007825032230
         H            2.627553214663    -0.009903909619    -0.869360243637     1.007825032230
         H           -1.131224785337    -0.009915909619    -1.573495243637     1.007825032230
         H           -2.399723785337     0.821482090381    -0.900420243637     1.007825032230
         H           -2.399741785337    -0.841278909619    -0.900410243637     1.007825032230

  Basis Set: AUG-CC-PVTZ
    Blend: AUG-CC-PVTZ
  Basis Set: (AUG-CC-PVTZ AUX)
    Blend: AUG-CC-PVTZ-JKFIT
	 Reference Energy          =    -289.6981070411168275 [Eh]
	 Singles Energy            =      -0.0000000000000000 [Eh]
	 Same-Spin Energy          =      -0.3085435663920330 [Eh]
	 Opposite-Spin Energy      =      -1.0951151664466754 [Eh]
	 Correlation Energy        =      -1.4036587328387085 [Eh]
	 Total Energy              =    -291.1017657739555489 [Eh]

	 ================> DF-SCS-MP2 Energies <==================
	-----------------------------------------------------------
	 SCS Same-Spin Scale       =       0.3333333333333333 [-]
	 SCS Opposite-Spin Scale   =       1.2000000000000000 [-]
	 SCS Same-Spin Energy      =      -0.1028478554640110 [Eh]
	 SCS Opposite-Spin Energy  =      -1.3141381997360104 [Eh]
	 SCS Correlation Energy    =      -1.4169860552000213 [Eh]
	 SCS Total Energy          =    -291.1150930963168548 [Eh]
	-----------------------------------------------------------

  Dipole Moment: [D]
     X:    -5.5836      Y:    -0.0145      Z:    -2.0532     Total:     5.9492

*** Psi4 exiting successfully. Buy a developer a beer!
