                               Psi4 1.4a3.dev225

  ==> Input File <==

--------------------------------------------------------------------------
#psi4
#
memory 32 gb

molecule  {
1 1
  N       -1.8084550     0.0000000    -0.7896910
  C       -1.0936100    -0.0095799     0.5721544
  C       -0.2407120    -1.2715670     0.6435230
  C       -0.2407120     1.2715670     0.6435240
  C        0.9483640    -1.2633510    -0.3226430
  C        0.9483630     1.2633510    -0.3226440
  C        1.7921720     0.0000000    -0.1500480
  H       -1.8788710     0.0000000     1.2988220
  H       -0.8715790    -2.1591400     0.5029120
  H        0.1300900    -1.3254650     1.6735610
  H        0.1300910     1.3254640     1.6735620
  H       -0.8715790     2.1591400     0.5029130
  H        0.6104140    -1.3458840    -1.3672040
  H        1.5530020    -2.1580160    -0.1459610
  H        1.5530010     2.1580160    -0.1459620
  H        0.6104120     1.3458830    -1.3672040
  H        2.2390370     0.0000010     0.8520310
  H        2.6220820     0.0000000    -0.8633810
  H       -1.1366960    -0.0000120    -1.5675160
  H       -2.4051950     0.8313860    -0.8944410
  H       -2.4052130    -0.8313750    -0.8944310
units angstrom
no_reorient  #important for SAPT in psi4, default
symmetry c1  #important for SAPT in psi4, default
}

set PROPERTIES_ORIGIN ["COM"]
properties('MP2/aug-cc-pvtz', properties = ['dipole'])
--------------------------------------------------------------------------

    Molecular point group: c1
  Charge       = 1
  Multiplicity = 1
  Basis Set: AUG-CC-PVTZ
    Blend: AUG-CC-PVTZ
  Basis Set: (AUG-CC-PVTZ AUX)
    Blend: AUG-CC-PVTZ-JKFIT

    Orbital Energies [Eh]
    ---------------------

    Doubly Occupied:

       1A    -15.873179     2A    -11.466504     3A    -11.391186
       4A    -11.390658     5A    -11.372204     6A    -11.371947
       7A    -11.357903     8A     -1.489713     9A     -1.276246
      10A     -1.172464    11A     -1.170529    12A     -1.011888
      13A     -1.005642    14A     -0.948222    15A     -0.932986
      16A     -0.917976    17A     -0.819410    18A     -0.812533
      19A     -0.764544    20A     -0.755518    21A     -0.702298
      22A     -0.693847    23A     -0.686886    24A     -0.684967
      25A     -0.645938    26A     -0.611075    27A     -0.597283
      28A     -0.594523

  @DF-RHF Final Energy:  -289.70926544540367

   => Energetics <=

    Nuclear Repulsion Energy =            346.3409029258673968
    One-Electron Energy =               -1067.0642054977461157
    Two-Electron Energy =                 431.0140371264751025
    Total Energy =                       -289.7092654454036733
  Basis Set: (AUG-CC-PVTZ AUX)
    Blend: AUG-CC-PVTZ-RI
    Molecular point group: c1

    Geometry (in Angstrom), charge = 1, multiplicity = 1:

       Center              X                  Y                   Z               Mass
    ------------   -----------------  -----------------  -----------------  -----------------
         N           -1.807660893769     0.001148314873    -0.799282075831    14.003074004430
         C           -1.092815893769    -0.008431585127     0.562563324169    12.000000000000
         C           -0.239917893769    -1.270418685127     0.633931924169    12.000000000000
         C           -0.239917893769     1.272715314873     0.633932924169    12.000000000000
         C            0.949158106231    -1.262202685127    -0.332234075831    12.000000000000
         C            0.949157106231     1.264499314873    -0.332235075831    12.000000000000
         C            1.792966106231     0.001148314873    -0.159639075831    12.000000000000
         H           -1.878076893769     0.001148314873     1.289230924169     1.007825032230
         H           -0.870784893769    -2.157991685127     0.493320924169     1.007825032230
         H            0.130884106231    -1.324316685127     1.663969924169     1.007825032230
         H            0.130885106231     1.326612314873     1.663970924169     1.007825032230
         H           -0.870784893769     2.160288314873     0.493321924169     1.007825032230
         H            0.611208106231    -1.344735685127    -1.376795075831     1.007825032230
         H            1.553796106231    -2.156867685127    -0.155552075831     1.007825032230
         H            1.553795106231     2.159164314873    -0.155553075831     1.007825032230
         H            0.611206106231     1.347031314873    -1.376795075831     1.007825032230
         H            2.239831106231     0.001149314873     0.842439924169     1.007825032230
         H            2.622876106231     0.001148314873    -0.872972075831     1.007825032230
         H           -1.135901893769     0.001136314873    -1.577107075831     1.007825032230
         H           -2.404400893769     0.832534314873    -0.904032075831     1.007825032230
         H           -2.404418893769    -0.830226685127    -0.904022075831     1.007825032230

  Basis Set: AUG-CC-PVTZ
    Blend: AUG-CC-PVTZ
  Basis Set: (AUG-CC-PVTZ AUX)
    Blend: AUG-CC-PVTZ-JKFIT
	 Reference Energy          =    -289.7092654454036733 [Eh]
	 Singles Energy            =      -0.0000000000000000 [Eh]
	 Same-Spin Energy          =      -0.3074368150642880 [Eh]
	 Opposite-Spin Energy      =      -1.0937507502136725 [Eh]
	 Correlation Energy        =      -1.4011875652779606 [Eh]
	 Total Energy              =    -291.1104530106816242 [Eh]

	 ================> DF-SCS-MP2 Energies <==================
	-----------------------------------------------------------
	 SCS Same-Spin Scale       =       0.3333333333333333 [-]
	 SCS Opposite-Spin Scale   =       1.2000000000000000 [-]
	 SCS Same-Spin Energy      =      -0.1024789383547627 [Eh]
	 SCS Opposite-Spin Energy  =      -1.3125009002564070 [Eh]
	 SCS Correlation Energy    =      -1.4149798386111696 [Eh]
	 SCS Total Energy          =    -291.1242452840148189 [Eh]
	-----------------------------------------------------------

  Dipole Moment: [D]
     X:    -5.5870      Y:    -0.0031      Z:    -2.0371     Total:     5.9468

*** Psi4 exiting successfully. Buy a developer a beer!
