                               Psi4 1.4a3.dev225

  ==> Input File <==

--------------------------------------------------------------------------
#psi4
#
memory 32 gb

molecule  {
1 1
  N       -1.8084550     0.0000000    -0.7896910
  C       -1.0774430     0.0000000     0.5533100
  C       -0.2407120    -1.2715670     0.6435230
  C       -0.2407120     1.2715670     0.6435240
  C        0.9483640    -1.2633510    -0.3226430
  C        0.9483630     1.2633510    -0.3226440
  C        1.8752607     0.0630800    -0.1275315
  H       -1.8788710     0.0000000     1.2988220
  H       -0.8715790    -2.1591400     0.5029120
  H        0.1300900    -1.3254650     1.6735610
  H        0.1300910     1.3254640     1.6735620
  H       -0.8715790     2.1591400     0.5029130
  H        0.6104140    -1.3458840    -1.3672040
  H        1.5530020    -2.1580160    -0.1459610
  H        1.5530010     2.1580160    -0.1459620
  H        0.6104120     1.3458830    -1.3672040
  H        2.2390370     0.0000010     0.8520310
  H        2.6220820     0.0000000    -0.8633810
  H       -1.1366960    -0.0000120    -1.5675160
  H       -2.4051950     0.8313860    -0.8944410
  H       -2.4052130    -0.8313750    -0.8944310
units angstrom
no_reorient  #important for SAPT in psi4, default
symmetry c1  #important for SAPT in psi4, default
}

set PROPERTIES_ORIGIN ["COM"]
properties('MP2/aug-cc-pvtz', properties = ['dipole'])
--------------------------------------------------------------------------

    Molecular point group: c1
  Charge       = 1
  Multiplicity = 1
  Basis Set: AUG-CC-PVTZ
    Blend: AUG-CC-PVTZ
  Basis Set: (AUG-CC-PVTZ AUX)
    Blend: AUG-CC-PVTZ-JKFIT

    Orbital Energies [Eh]
    ---------------------

    Doubly Occupied:

       1A    -15.874255     2A    -11.466216     3A    -11.391510
       4A    -11.390120     5A    -11.373025     6A    -11.371688
       7A    -11.356348     8A     -1.492062     9A     -1.272570
      10A     -1.172880    11A     -1.162793    12A     -1.014656
      13A     -1.000562    14A     -0.950496    15A     -0.933637
      16A     -0.922978    17A     -0.816207    18A     -0.811493
      19A     -0.767489    20A     -0.754500    21A     -0.703226
      22A     -0.692876    23A     -0.685977    24A     -0.681895
      25A     -0.645534    26A     -0.625616    27A     -0.604737
      28A     -0.570218

  @DF-RHF Final Energy:  -289.70060503643856

   => Energetics <=

    Nuclear Repulsion Energy =            345.3150793636999083
    One-Electron Energy =               -1065.0202398550286489
    Two-Electron Energy =                 430.0045554548902373
    Total Energy =                       -289.7006050364385601
  Basis Set: (AUG-CC-PVTZ AUX)
    Blend: AUG-CC-PVTZ-RI
    Molecular point group: c1

    Geometry (in Angstrom), charge = 1, multiplicity = 1:

       Center              X                  Y                   Z               Mass
    ------------   -----------------  -----------------  -----------------  -----------------
         N           -1.819558178517    -0.007561064236    -0.799722232107    14.003074004430
         C           -1.088546178517    -0.007561064236     0.543278767893    12.000000000000
         C           -0.251815178517    -1.279128064236     0.633491767893    12.000000000000
         C           -0.251815178517     1.264005935764     0.633492767893    12.000000000000
         C            0.937260821483    -1.270912064236    -0.332674232107    12.000000000000
         C            0.937259821483     1.255789935764    -0.332675232107    12.000000000000
         C            1.864157521483     0.055518935764    -0.137562732107    12.000000000000
         H           -1.889974178517    -0.007561064236     1.288790767893     1.007825032230
         H           -0.882682178517    -2.166701064236     0.492880767893     1.007825032230
         H            0.118986821483    -1.333026064236     1.663529767893     1.007825032230
         H            0.118987821483     1.317902935764     1.663530767893     1.007825032230
         H           -0.882682178517     2.151578935764     0.492881767893     1.007825032230
         H            0.599310821483    -1.353445064236    -1.377235232107     1.007825032230
         H            1.541898821483    -2.165577064236    -0.155992232107     1.007825032230
         H            1.541897821483     2.150454935764    -0.155993232107     1.007825032230
         H            0.599308821483     1.338321935764    -1.377235232107     1.007825032230
         H            2.227933821483    -0.007560064236     0.841999767893     1.007825032230
         H            2.610978821483    -0.007561064236    -0.873412232107     1.007825032230
         H           -1.147799178517    -0.007573064236    -1.577547232107     1.007825032230
         H           -2.416298178517     0.823824935764    -0.904472232107     1.007825032230
         H           -2.416316178517    -0.838936064236    -0.904462232107     1.007825032230

  Basis Set: AUG-CC-PVTZ
    Blend: AUG-CC-PVTZ
  Basis Set: (AUG-CC-PVTZ AUX)
    Blend: AUG-CC-PVTZ-JKFIT
	 Reference Energy          =    -289.7006050364385601 [Eh]
	 Singles Energy            =      -0.0000000000000000 [Eh]
	 Same-Spin Energy          =      -0.3072672097149109 [Eh]
	 Opposite-Spin Energy      =      -1.0939723044865839 [Eh]
	 Correlation Energy        =      -1.4012395142014948 [Eh]
	 Total Energy              =    -291.1018445506400667 [Eh]

	 ================> DF-SCS-MP2 Energies <==================
	-----------------------------------------------------------
	 SCS Same-Spin Scale       =       0.3333333333333333 [-]
	 SCS Opposite-Spin Scale   =       1.2000000000000000 [-]
	 SCS Same-Spin Energy      =      -0.1024224032383036 [Eh]
	 SCS Opposite-Spin Energy  =      -1.3127667653839006 [Eh]
	 SCS Correlation Energy    =      -1.4151891686222042 [Eh]
	 SCS Total Energy          =    -291.1157942050607517 [Eh]
	-----------------------------------------------------------

  Dipole Moment: [D]
     X:    -5.6305      Y:    -0.0050      Z:    -2.0497     Total:     5.9920

*** Psi4 exiting successfully. Buy a developer a beer!
