                               Psi4 1.4a3.dev225

  ==> Input File <==

--------------------------------------------------------------------------
#psi4
#
memory 32 gb

molecule  {
1 1
  N       -1.8084550     0.0000000    -0.7896910
  C       -1.0296351     0.0000000     0.6411417
  C       -0.2407120    -1.2715670     0.6435230
  C       -0.2407120     1.2715670     0.6435240
  C        0.9483640    -1.2633510    -0.3226430
  C        0.9483630     1.2633510    -0.3226440
  C        1.7921720     0.0000000    -0.1500480
  H       -1.8788710     0.0000000     1.2988220
  H       -0.8715790    -2.1591400     0.5029120
  H        0.1300900    -1.3254650     1.6735610
  H        0.1300910     1.3254640     1.6735620
  H       -0.8715790     2.1591400     0.5029130
  H        0.6104140    -1.3458840    -1.3672040
  H        1.5530020    -2.1580160    -0.1459610
  H        1.5530010     2.1580160    -0.1459620
  H        0.6104120     1.3458830    -1.3672040
  H        2.2390370     0.0000010     0.8520310
  H        2.6220820     0.0000000    -0.8633810
  H       -1.1366960    -0.0000120    -1.5675160
  H       -2.4051950     0.8313860    -0.8944410
  H       -2.4052130    -0.8313750    -0.8944310
units angstrom
no_reorient  #important for SAPT in psi4, default
symmetry c1  #important for SAPT in psi4, default
}

set PROPERTIES_ORIGIN ["COM"]
properties('MP2/aug-cc-pvtz', properties = ['dipole'])
--------------------------------------------------------------------------

    Molecular point group: c1
  Charge       = 1
  Multiplicity = 1
  Basis Set: AUG-CC-PVTZ
    Blend: AUG-CC-PVTZ
  Basis Set: (AUG-CC-PVTZ AUX)
    Blend: AUG-CC-PVTZ-JKFIT

    Orbital Energies [Eh]
    ---------------------

    Doubly Occupied:

       1A    -15.856660     2A    -11.475093     3A    -11.392188
       4A    -11.392175     5A    -11.373826     6A    -11.373823
       7A    -11.359746     8A     -1.465557     9A     -1.285475
      10A     -1.177655    11A     -1.176167    12A     -1.010608
      13A     -1.005755    14A     -0.932996    15A     -0.919186
      16A     -0.914123    17A     -0.823777    18A     -0.805507
      19A     -0.764257    20A     -0.756663    21A     -0.711608
      22A     -0.709335    23A     -0.690244    24A     -0.677085
      25A     -0.647180    26A     -0.612047    27A     -0.601844
      28A     -0.599061

  @DF-RHF Final Energy:  -289.70313927121663

   => Energetics <=

    Nuclear Repulsion Energy =            346.3525079277150667
    One-Electron Energy =               -1067.0920191602265277
    Two-Electron Energy =                 431.0363719612947762
    Total Energy =                       -289.7031392712166280
  Basis Set: (AUG-CC-PVTZ AUX)
    Blend: AUG-CC-PVTZ-RI
    Molecular point group: c1

    Geometry (in Angstrom), charge = 1, multiplicity = 1:

       Center              X                  Y                   Z               Mass
    ------------   -----------------  -----------------  -----------------  -----------------
         N           -1.815329245330     0.000000020134    -0.807551238731    14.003074004430
         C           -1.036509345330     0.000000020134     0.623281461269    12.000000000000
         C           -0.247586245330    -1.271566979866     0.625662761269    12.000000000000
         C           -0.247586245330     1.271567020134     0.625663761269    12.000000000000
         C            0.941489754670    -1.263350979866    -0.340503238731    12.000000000000
         C            0.941488754670     1.263351020134    -0.340504238731    12.000000000000
         C            1.785297754670     0.000000020134    -0.167908238731    12.000000000000
         H           -1.885745245330     0.000000020134     1.280961761269     1.007825032230
         H           -0.878453245330    -2.159139979866     0.485051761269     1.007825032230
         H            0.123215754670    -1.325464979866     1.655700761269     1.007825032230
         H            0.123216754670     1.325464020134     1.655701761269     1.007825032230
         H           -0.878453245330     2.159140020134     0.485052761269     1.007825032230
         H            0.603539754670    -1.345883979866    -1.385064238731     1.007825032230
         H            1.546127754670    -2.158015979866    -0.163821238731     1.007825032230
         H            1.546126754670     2.158016020134    -0.163822238731     1.007825032230
         H            0.603537754670     1.345883020134    -1.385064238731     1.007825032230
         H            2.232162754670     0.000001020134     0.834170761269     1.007825032230
         H            2.615207754670     0.000000020134    -0.881241238731     1.007825032230
         H           -1.143570245330    -0.000011979866    -1.585376238731     1.007825032230
         H           -2.412069245330     0.831386020134    -0.912301238731     1.007825032230
         H           -2.412087245330    -0.831374979866    -0.912291238731     1.007825032230

  Basis Set: AUG-CC-PVTZ
    Blend: AUG-CC-PVTZ
  Basis Set: (AUG-CC-PVTZ AUX)
    Blend: AUG-CC-PVTZ-JKFIT
	 Reference Energy          =    -289.7031392712166280 [Eh]
	 Singles Energy            =      -0.0000000000000000 [Eh]
	 Same-Spin Energy          =      -0.3076347569997890 [Eh]
	 Opposite-Spin Energy      =      -1.0942401520138989 [Eh]
	 Correlation Energy        =      -1.4018749090136879 [Eh]
	 Total Energy              =    -291.1050141802303415 [Eh]

	 ================> DF-SCS-MP2 Energies <==================
	-----------------------------------------------------------
	 SCS Same-Spin Scale       =       0.3333333333333333 [-]
	 SCS Opposite-Spin Scale   =       1.2000000000000000 [-]
	 SCS Same-Spin Energy      =      -0.1025449189999297 [Eh]
	 SCS Opposite-Spin Energy  =      -1.3130881824166787 [Eh]
	 SCS Correlation Energy    =      -1.4156331014166084 [Eh]
	 SCS Total Energy          =    -291.1187723726332592 [Eh]
	-----------------------------------------------------------

  Dipole Moment: [D]
     X:    -5.3770      Y:    -0.0000      Z:    -1.8093     Total:     5.6732

*** Psi4 exiting successfully. Buy a developer a beer!
