                               Psi4 1.4a3.dev225

  ==> Input File <==

--------------------------------------------------------------------------
#psi4
#
memory 32 gb

molecule  {
1 1
  N       -1.7856107    -0.0468754    -0.8010649
  C       -1.0774430     0.0000000     0.5533100
  C       -0.2407120    -1.2715670     0.6435230
  C       -0.2407120     1.2715670     0.6435240
  C        0.9483640    -1.2633510    -0.3226430
  C        0.9483630     1.2633510    -0.3226440
  C        1.7921720     0.0000000    -0.1500480
  H       -1.8788710     0.0000000     1.2988220
  H       -0.8715790    -2.1591400     0.5029120
  H        0.1300900    -1.3254650     1.6735610
  H        0.1300910     1.3254640     1.6735620
  H       -0.8715790     2.1591400     0.5029130
  H        0.6104140    -1.3458840    -1.3672040
  H        1.5530020    -2.1580160    -0.1459610
  H        1.5530010     2.1580160    -0.1459620
  H        0.6104120     1.3458830    -1.3672040
  H        2.2390370     0.0000010     0.8520310
  H        2.6220820     0.0000000    -0.8633810
  H       -1.1366960    -0.0000120    -1.5675160
  H       -2.4051950     0.8313860    -0.8944410
  H       -2.4052130    -0.8313750    -0.8944310
units angstrom
no_reorient  #important for SAPT in psi4, default
symmetry c1  #important for SAPT in psi4, default
}

set PROPERTIES_ORIGIN ["COM"]
properties('MP2/aug-cc-pvtz', properties = ['dipole'])
--------------------------------------------------------------------------

    Molecular point group: c1
  Charge       = 1
  Multiplicity = 1
  Basis Set: AUG-CC-PVTZ
    Blend: AUG-CC-PVTZ
  Basis Set: (AUG-CC-PVTZ AUX)
    Blend: AUG-CC-PVTZ-JKFIT

    Orbital Energies [Eh]
    ---------------------

    Doubly Occupied:

       1A    -15.874657     2A    -11.467032     3A    -11.391409
       4A    -11.389033     5A    -11.371983     6A    -11.371132
       7A    -11.357789     8A     -1.492994     9A     -1.277522
      10A     -1.172586    11A     -1.170911    12A     -1.011479
      13A     -1.005792    14A     -0.961414    15A     -0.920417
      16A     -0.919329    17A     -0.817818    18A     -0.814098
      19A     -0.764108    20A     -0.755062    21A     -0.699287
      22A     -0.696111    23A     -0.686946    24A     -0.684950
      25A     -0.646330    26A     -0.610997    27A     -0.595406
      28A     -0.594880

  @DF-RHF Final Energy:  -289.70596565779880

   => Energetics <=

    Nuclear Repulsion Energy =            346.9079964177298052
    One-Electron Energy =               -1068.1849860439642725
    Two-Electron Energy =                 431.5710239684356679
    Total Energy =                       -289.7059656577987994
  Basis Set: (AUG-CC-PVTZ AUX)
    Blend: AUG-CC-PVTZ-RI
    Molecular point group: c1

    Geometry (in Angstrom), charge = 1, multiplicity = 1:

       Center              X                  Y                   Z               Mass
    ------------   -----------------  -----------------  -----------------  -----------------
         N           -1.789949756807    -0.040318767264    -0.806806287887    14.003074004430
         C           -1.081782056807     0.006556632736     0.547568612113    12.000000000000
         C           -0.245051056807    -1.265010367264     0.637781612113    12.000000000000
         C           -0.245051056807     1.278123632736     0.637782612113    12.000000000000
         C            0.944024943193    -1.256794367264    -0.328384387887    12.000000000000
         C            0.944023943193     1.269907632736    -0.328385387887    12.000000000000
         C            1.787832943193     0.006556632736    -0.155789387887    12.000000000000
         H           -1.883210056807     0.006556632736     1.293080612113     1.007825032230
         H           -0.875918056807    -2.152583367264     0.497170612113     1.007825032230
         H            0.125750943193    -1.318908367264     1.667819612113     1.007825032230
         H            0.125751943193     1.332020632736     1.667820612113     1.007825032230
         H           -0.875918056807     2.165696632736     0.497171612113     1.007825032230
         H            0.606074943193    -1.339327367264    -1.372945387887     1.007825032230
         H            1.548662943193    -2.151459367264    -0.151702387887     1.007825032230
         H            1.548661943193     2.164572632736    -0.151703387887     1.007825032230
         H            0.606072943193     1.352439632736    -1.372945387887     1.007825032230
         H            2.234697943193     0.006557632736     0.846289612113     1.007825032230
         H            2.617742943193     0.006556632736    -0.869122387887     1.007825032230
         H           -1.141035056807     0.006544632736    -1.573257387887     1.007825032230
         H           -2.409534056807     0.837942632736    -0.900182387887     1.007825032230
         H           -2.409552056807    -0.824818367264    -0.900172387887     1.007825032230

  Basis Set: AUG-CC-PVTZ
    Blend: AUG-CC-PVTZ
  Basis Set: (AUG-CC-PVTZ AUX)
    Blend: AUG-CC-PVTZ-JKFIT
	 Reference Energy          =    -289.7059656577987994 [Eh]
	 Singles Energy            =      -0.0000000000000000 [Eh]
	 Same-Spin Energy          =      -0.3077293895426926 [Eh]
	 Opposite-Spin Energy      =      -1.0941629982532559 [Eh]
	 Correlation Energy        =      -1.4018923877959486 [Eh]
	 Total Energy              =    -291.1078580455947531 [Eh]

	 ================> DF-SCS-MP2 Energies <==================
	-----------------------------------------------------------
	 SCS Same-Spin Scale       =       0.3333333333333333 [-]
	 SCS Opposite-Spin Scale   =       1.2000000000000000 [-]
	 SCS Same-Spin Energy      =      -0.1025764631808975 [Eh]
	 SCS Opposite-Spin Energy  =      -1.3129955979039070 [Eh]
	 SCS Correlation Energy    =      -1.4155720610848046 [Eh]
	 SCS Total Energy          =    -291.1215377188835873 [Eh]
	-----------------------------------------------------------

  Dipole Moment: [D]
     X:    -5.6334      Y:     0.0735      Z:    -2.0380     Total:     5.9912

*** Psi4 exiting successfully. Buy a developer a beer!
