                               Psi4 1.4a3.dev225

  ==> Input File <==

--------------------------------------------------------------------------
#psi4
#
memory 32 gb

molecule  {
1 1
  N       -1.8084550     0.0000000    -0.7896910
  C       -1.0774430     0.0000000     0.5533100
  C       -0.2407120    -1.2715670     0.6435230
  C       -0.2407120     1.2715670     0.6435240
  C        0.9483640    -1.2633510    -0.3226430
  C        0.9483630     1.2633510    -0.3226440
  C        1.7921720     0.0000000    -0.1500480
  H       -1.8788710     0.0000000     1.2988220
  H       -0.8715790    -2.1591400     0.5029120
  H        0.1300900    -1.3254650     1.6735610
  H        0.1300910     1.3254640     1.6735620
  H       -0.8715790     2.1591400     0.5029130
  H        0.6104140    -1.3458840    -1.3672040
  H        1.5530020    -2.1580160    -0.1459610
  H        1.5530010     2.1580160    -0.1459620
  H        0.6104120     1.3458830    -1.3672040
  H        2.2390370     0.0000010     0.8520310
  H        2.6220820     0.0000000    -0.8633810
  H       -1.1366960    -0.0000120    -1.5675160
  H       -2.4051950     0.8313860    -0.8944410
  H       -2.4168149    -0.8475382    -0.8964673
units angstrom
no_reorient  #important for SAPT in psi4, default
symmetry c1  #important for SAPT in psi4, default
}

set PROPERTIES_ORIGIN ["COM"]
properties('MP2/aug-cc-pvtz', properties = ['dipole'])
--------------------------------------------------------------------------

    Molecular point group: c1
  Charge       = 1
  Multiplicity = 1
  Basis Set: AUG-CC-PVTZ
    Blend: AUG-CC-PVTZ
  Basis Set: (AUG-CC-PVTZ AUX)
    Blend: AUG-CC-PVTZ-JKFIT

    Orbital Energies [Eh]
    ---------------------

    Doubly Occupied:

       1A    -15.875775     2A    -11.466554     3A    -11.390382
       4A    -11.390357     5A    -11.371553     6A    -11.371548
       7A    -11.357783     8A     -1.489407     9A     -1.277075
      10A     -1.172514    11A     -1.170261    12A     -1.009860
      13A     -1.005795    14A     -0.949143    15A     -0.929880
      16A     -0.918154    17A     -0.815104    18A     -0.813639
      19A     -0.763892    20A     -0.755980    21A     -0.698545
      22A     -0.695978    23A     -0.686892    24A     -0.685990
      25A     -0.646409    26A     -0.610893    27A     -0.595418
      28A     -0.594813

  @DF-RHF Final Energy:  -289.70873238959251

   => Energetics <=

    Nuclear Repulsion Energy =            346.5909895594729733
    One-Electron Energy =               -1067.5802555228970050
    Two-Electron Energy =                 431.2805335738315193
    Total Energy =                       -289.7087323895925124
  Basis Set: (AUG-CC-PVTZ AUX)
    Blend: AUG-CC-PVTZ-RI
    Molecular point group: c1

    Geometry (in Angstrom), charge = 1, multiplicity = 1:

       Center              X                  Y                   Z               Mass
    ------------   -----------------  -----------------  -----------------  -----------------
         N           -1.809481955955     0.000162733654    -0.797002792520    14.003074004430
         C           -1.078469955955     0.000162733654     0.545998207480    12.000000000000
         C           -0.241738955955    -1.271404266346     0.636211207480    12.000000000000
         C           -0.241738955955     1.271729733654     0.636212207480    12.000000000000
         C            0.947337044045    -1.263188266346    -0.329954792520    12.000000000000
         C            0.947336044045     1.263513733654    -0.329955792520    12.000000000000
         C            1.791145044045     0.000162733654    -0.157359792520    12.000000000000
         H           -1.879897955955     0.000162733654     1.291510207480     1.007825032230
         H           -0.872605955955    -2.158977266346     0.495600207480     1.007825032230
         H            0.129063044045    -1.325302266346     1.666249207480     1.007825032230
         H            0.129064044045     1.325626733654     1.666250207480     1.007825032230
         H           -0.872605955955     2.159302733654     0.495601207480     1.007825032230
         H            0.609387044045    -1.345721266346    -1.374515792520     1.007825032230
         H            1.551975044045    -2.157853266346    -0.153272792520     1.007825032230
         H            1.551974044045     2.158178733654    -0.153273792520     1.007825032230
         H            0.609385044045     1.346045733654    -1.374515792520     1.007825032230
         H            2.238010044045     0.000163733654     0.844719207480     1.007825032230
         H            2.621055044045     0.000162733654    -0.870692792520     1.007825032230
         H           -1.137722955955     0.000150733654    -1.574827792520     1.007825032230
         H           -2.406221955955     0.831548733654    -0.901752792520     1.007825032230
         H           -2.417841855955    -0.847375466346    -0.903779092520     1.007825032230

  Basis Set: AUG-CC-PVTZ
    Blend: AUG-CC-PVTZ
  Basis Set: (AUG-CC-PVTZ AUX)
    Blend: AUG-CC-PVTZ-JKFIT
	 Reference Energy          =    -289.7087323895925124 [Eh]
	 Singles Energy            =      -0.0000000000000000 [Eh]
	 Same-Spin Energy          =      -0.3077543189781871 [Eh]
	 Opposite-Spin Energy      =      -1.0942600065625785 [Eh]
	 Correlation Energy        =      -1.4020143255407655 [Eh]
	 Total Energy              =    -291.1107467151333026 [Eh]

	 ================> DF-SCS-MP2 Energies <==================
	-----------------------------------------------------------
	 SCS Same-Spin Scale       =       0.3333333333333333 [-]
	 SCS Opposite-Spin Scale   =       1.2000000000000000 [-]
	 SCS Same-Spin Energy      =      -0.1025847729927290 [Eh]
	 SCS Opposite-Spin Energy  =      -1.3131120078750942 [Eh]
	 SCS Correlation Energy    =      -1.4156967808678231 [Eh]
	 SCS Total Energy          =    -291.1244291704603597 [Eh]
	-----------------------------------------------------------

  Dipole Moment: [D]
     X:    -5.6170      Y:    -0.0197      Z:    -2.0546     Total:     5.9810

*** Psi4 exiting successfully. Buy a developer a beer!
