                               Psi4 1.4a3.dev225

  ==> Input File <==

--------------------------------------------------------------------------
#psi4
#
memory 32 gb

molecule  {
1 1
  N       -1.8084550     0.0000000    -0.7896910
  C       -1.0774430     0.0000000     0.5533100
  C       -0.2407120    -1.2715670     0.6435230
  C       -0.2407120     1.2715670     0.6435240
  C        0.9483640    -1.2633510    -0.3226430
  C        0.9483630     1.2633510    -0.3226440
  C        1.7921720     0.0000000    -0.1500480
  H       -1.8788710     0.0000000     1.2988220
  H       -0.8715790    -2.1591400     0.5029120
  H        0.1300900    -1.3254650     1.6735610
  H        0.1300910     1.3254640     1.6735620
  H       -0.8715790     2.1591400     0.5029130
  H        0.6104140    -1.3458840    -1.3672040
  H        1.5530020    -2.1580160    -0.1459610
  H        1.5530010     2.1580160    -0.1459620
  H        0.6104120     1.3458830    -1.3672040
  H        2.2390370     0.0000010     0.8520310
  H        2.6220820     0.0000000    -0.8633810
  H       -1.1366960    -0.0000120    -1.5675160
  H       -2.4051950     0.8313860    -0.8944410
  H       -2.4342177    -0.8717830    -0.8995218
units angstrom
no_reorient  #important for SAPT in psi4, default
symmetry c1  #important for SAPT in psi4, default
}

set PROPERTIES_ORIGIN ["COM"]
properties('MP2/aug-cc-pvtz', properties = ['dipole'])
--------------------------------------------------------------------------

    Molecular point group: c1
  Charge       = 1
  Multiplicity = 1
  Basis Set: AUG-CC-PVTZ
    Blend: AUG-CC-PVTZ
  Basis Set: (AUG-CC-PVTZ AUX)
    Blend: AUG-CC-PVTZ-JKFIT

    Orbital Energies [Eh]
    ---------------------

    Doubly Occupied:

       1A    -15.877497     2A    -11.466218     3A    -11.390217
       4A    -11.390154     5A    -11.371382     6A    -11.371375
       7A    -11.357638     8A     -1.485192     9A     -1.276283
      10A     -1.172283    11A     -1.169661    12A     -1.009456
      13A     -1.005107    14A     -0.947198    15A     -0.922543
      16A     -0.917805    17A     -0.814474    18A     -0.813203
      19A     -0.763643    20A     -0.755387    21A     -0.698282
      22A     -0.695707    23A     -0.686582    24A     -0.685735
      25A     -0.646181    26A     -0.610713    27A     -0.595236
      28A     -0.594627

  @DF-RHF Final Energy:  -289.70621977303631

   => Energetics <=

    Nuclear Repulsion Energy =            346.4353991496992649
    One-Electron Energy =               -1067.3036799597409754
    Two-Electron Energy =                 431.1620610370054010
    Total Energy =                       -289.7062197730363096
  Basis Set: (AUG-CC-PVTZ AUX)
    Blend: AUG-CC-PVTZ-RI
    Molecular point group: c1

    Geometry (in Angstrom), charge = 1, multiplicity = 1:

       Center              X                  Y                   Z               Mass
    ------------   -----------------  -----------------  -----------------  -----------------
         N           -1.809306763490     0.000406803935    -0.796972043136    14.003074004430
         C           -1.078294763490     0.000406803935     0.546028956864    12.000000000000
         C           -0.241563763490    -1.271160196065     0.636241956864    12.000000000000
         C           -0.241563763490     1.271973803935     0.636242956864    12.000000000000
         C            0.947512236510    -1.262944196065    -0.329924043136    12.000000000000
         C            0.947511236510     1.263757803935    -0.329925043136    12.000000000000
         C            1.791320236510     0.000406803935    -0.157329043136    12.000000000000
         H           -1.879722763490     0.000406803935     1.291540956864     1.007825032230
         H           -0.872430763490    -2.158733196065     0.495630956864     1.007825032230
         H            0.129238236510    -1.325058196065     1.666279956864     1.007825032230
         H            0.129239236510     1.325870803935     1.666280956864     1.007825032230
         H           -0.872430763490     2.159546803935     0.495631956864     1.007825032230
         H            0.609562236510    -1.345477196065    -1.374485043136     1.007825032230
         H            1.552150236510    -2.157609196065    -0.153242043136     1.007825032230
         H            1.552149236510     2.158422803935    -0.153243043136     1.007825032230
         H            0.609560236510     1.346289803935    -1.374485043136     1.007825032230
         H            2.238185236510     0.000407803935     0.844749956864     1.007825032230
         H            2.621230236510     0.000406803935    -0.870662043136     1.007825032230
         H           -1.137547763490     0.000394803935    -1.574797043136     1.007825032230
         H           -2.406046763490     0.831792803935    -0.901722043136     1.007825032230
         H           -2.435069463490    -0.871376196065    -0.906802843136     1.007825032230

  Basis Set: AUG-CC-PVTZ
    Blend: AUG-CC-PVTZ
  Basis Set: (AUG-CC-PVTZ AUX)
    Blend: AUG-CC-PVTZ-JKFIT
	 Reference Energy          =    -289.7062197730363096 [Eh]
	 Singles Energy            =      -0.0000000000000000 [Eh]
	 Same-Spin Energy          =      -0.3079357346319283 [Eh]
	 Opposite-Spin Energy      =      -1.0948214996399224 [Eh]
	 Correlation Energy        =      -1.4027572342718506 [Eh]
	 Total Energy              =    -291.1089770073081695 [Eh]

	 ================> DF-SCS-MP2 Energies <==================
	-----------------------------------------------------------
	 SCS Same-Spin Scale       =       0.3333333333333333 [-]
	 SCS Opposite-Spin Scale   =       1.2000000000000000 [-]
	 SCS Same-Spin Energy      =      -0.1026452448773094 [Eh]
	 SCS Opposite-Spin Energy  =      -1.3137857995679068 [Eh]
	 SCS Correlation Energy    =      -1.4164310444452162 [Eh]
	 SCS Total Energy          =    -291.1226508174815422 [Eh]
	-----------------------------------------------------------

  Dipole Moment: [D]
     X:    -5.6437      Y:    -0.0497      Z:    -2.0598     Total:     6.0080

*** Psi4 exiting successfully. Buy a developer a beer!
