                               Psi4 1.4a3.dev225

  ==> Input File <==

--------------------------------------------------------------------------
#psi4
#
memory 32 gb

molecule  {
1 1
  N       -1.8084550     0.0000000    -0.7896910
  C       -1.0774430     0.0000000     0.5533100
  C       -0.2407120    -1.2715670     0.6435230
  C       -0.2407120     1.2715670     0.6435240
  C        0.9268912    -1.2481272    -0.3270351
  C        0.9483630     1.2633510    -0.3226440
  C        1.7921720     0.0000000    -0.1500480
  H       -1.8788710     0.0000000     1.2988220
  H       -0.8715790    -2.1591400     0.5029120
  H        0.1300900    -1.3254650     1.6735610
  H        0.1300910     1.3254640     1.6735620
  H       -0.8715790     2.1591400     0.5029130
  H        0.6104140    -1.3458840    -1.3672040
  H        1.5530020    -2.1580160    -0.1459610
  H        1.5530010     2.1580160    -0.1459620
  H        0.6104120     1.3458830    -1.3672040
  H        2.2390370     0.0000010     0.8520310
  H        2.6220820     0.0000000    -0.8633810
  H       -1.1366960    -0.0000120    -1.5675160
  H       -2.4051950     0.8313860    -0.8944410
  H       -2.4052130    -0.8313750    -0.8944310
units angstrom
no_reorient  #important for SAPT in psi4, default
symmetry c1  #important for SAPT in psi4, default
}

set PROPERTIES_ORIGIN ["COM"]
properties('MP2/aug-cc-pvtz', properties = ['dipole'])
--------------------------------------------------------------------------

    Molecular point group: c1
  Charge       = 1
  Multiplicity = 1
  Basis Set: AUG-CC-PVTZ
    Blend: AUG-CC-PVTZ
  Basis Set: (AUG-CC-PVTZ AUX)
    Blend: AUG-CC-PVTZ-JKFIT

    Orbital Energies [Eh]
    ---------------------

    Doubly Occupied:

       1A    -15.874568     2A    -11.466384     3A    -11.390462
       4A    -11.390436     5A    -11.371948     6A    -11.371126
       7A    -11.358027     8A     -1.492519     9A     -1.278919
      10A     -1.173743    11A     -1.170510    12A     -1.010659
      13A     -1.005166    14A     -0.951205    15A     -0.934360
      16A     -0.918491    17A     -0.816111    18A     -0.814447
      19A     -0.762501    20A     -0.757141    21A     -0.698030
      22A     -0.695404    23A     -0.689218    24A     -0.685282
      25A     -0.647667    26A     -0.612477    27A     -0.596782
      28A     -0.590531

  @DF-RHF Final Energy:  -289.70865438952507

   => Energetics <=

    Nuclear Repulsion Energy =            347.0367849113683292
    One-Electron Energy =               -1068.4426510205062186
    Two-Electron Energy =                 431.6972117196127670
    Total Energy =                       -289.7086543895250657
  Basis Set: (AUG-CC-PVTZ AUX)
    Blend: AUG-CC-PVTZ-RI
    Molecular point group: c1

    Geometry (in Angstrom), charge = 1, multiplicity = 1:

       Center              X                  Y                   Z               Mass
    ------------   -----------------  -----------------  -----------------  -----------------
         N           -1.807024914038    -0.001824780694    -0.796496832696    14.003074004430
         C           -1.076012914038    -0.001824780694     0.546504167304    12.000000000000
         C           -0.239281914038    -1.273391780694     0.636717167304    12.000000000000
         C           -0.239281914038     1.269742219306     0.636718167304    12.000000000000
         C            0.928321285962    -1.249951980694    -0.333840932696    12.000000000000
         C            0.949793085962     1.261526219306    -0.329449832696    12.000000000000
         C            1.793602085962    -0.001824780694    -0.156853832696    12.000000000000
         H           -1.877440914038    -0.001824780694     1.292016167304     1.007825032230
         H           -0.870148914038    -2.160964780694     0.496106167304     1.007825032230
         H            0.131520085962    -1.327289780694     1.666755167304     1.007825032230
         H            0.131521085962     1.323639219306     1.666756167304     1.007825032230
         H           -0.870148914038     2.157315219306     0.496107167304     1.007825032230
         H            0.611844085962    -1.347708780694    -1.374009832696     1.007825032230
         H            1.554432085962    -2.159840780694    -0.152766832696     1.007825032230
         H            1.554431085962     2.156191219306    -0.152767832696     1.007825032230
         H            0.611842085962     1.344058219306    -1.374009832696     1.007825032230
         H            2.240467085962    -0.001823780694     0.845225167304     1.007825032230
         H            2.623512085962    -0.001824780694    -0.870186832696     1.007825032230
         H           -1.135265914038    -0.001836780694    -1.574321832696     1.007825032230
         H           -2.403764914038     0.829561219306    -0.901246832696     1.007825032230
         H           -2.403782914038    -0.833199780694    -0.901236832696     1.007825032230

  Basis Set: AUG-CC-PVTZ
    Blend: AUG-CC-PVTZ
  Basis Set: (AUG-CC-PVTZ AUX)
    Blend: AUG-CC-PVTZ-JKFIT
	 Reference Energy          =    -289.7086543895250657 [Eh]
	 Singles Energy            =      -0.0000000000000000 [Eh]
	 Same-Spin Energy          =      -0.3078284794652070 [Eh]
	 Opposite-Spin Energy      =      -1.0941155594880954 [Eh]
	 Correlation Energy        =      -1.4019440389533024 [Eh]
	 Total Energy              =    -291.1105984284783403 [Eh]

	 ================> DF-SCS-MP2 Energies <==================
	-----------------------------------------------------------
	 SCS Same-Spin Scale       =       0.3333333333333333 [-]
	 SCS Opposite-Spin Scale   =       1.2000000000000000 [-]
	 SCS Same-Spin Energy      =      -0.1026094931550690 [Eh]
	 SCS Opposite-Spin Energy  =      -1.3129386713857143 [Eh]
	 SCS Correlation Energy    =      -1.4155481645407832 [Eh]
	 SCS Total Energy          =    -291.1242025540658460 [Eh]
	-----------------------------------------------------------

  Dipole Moment: [D]
     X:    -5.5901      Y:    -0.0137      Z:    -2.0513     Total:     5.9546

*** Psi4 exiting successfully. Buy a developer a beer!
