                               Psi4 1.4a3.dev225

  ==> Input File <==

--------------------------------------------------------------------------
#psi4
#
memory 32 gb

molecule  {
1 1
  N       -1.8084550     0.0000000    -0.7896910
  C       -1.0774430     0.0000000     0.5533100
  C       -0.2407120    -1.2715670     0.6435230
  C       -0.2407120     1.2715670     0.6435240
  C        0.9483640    -1.2633510    -0.3226430
  C        0.9483630     1.2633510    -0.3226440
  C        1.7921720     0.0000000    -0.1500480
  H       -1.8642272     0.0000000     1.2851999
  H       -0.8715790    -2.1591400     0.5029120
  H        0.1300900    -1.3254650     1.6735610
  H        0.1300910     1.3254640     1.6735620
  H       -0.8715790     2.1591400     0.5029130
  H        0.6104140    -1.3458840    -1.3672040
  H        1.5530020    -2.1580160    -0.1459610
  H        1.5530010     2.1580160    -0.1459620
  H        0.6104120     1.3458830    -1.3672040
  H        2.2390370     0.0000010     0.8520310
  H        2.6220820     0.0000000    -0.8633810
  H       -1.1366960    -0.0000120    -1.5675160
  H       -2.4051950     0.8313860    -0.8944410
  H       -2.4052130    -0.8313750    -0.8944310
units angstrom
no_reorient  #important for SAPT in psi4, default
symmetry c1  #important for SAPT in psi4, default
}

set PROPERTIES_ORIGIN ["COM"]
properties('MP2/aug-cc-pvtz', properties = ['dipole'])
--------------------------------------------------------------------------

    Molecular point group: c1
  Charge       = 1
  Multiplicity = 1
  Basis Set: AUG-CC-PVTZ
    Blend: AUG-CC-PVTZ
  Basis Set: (AUG-CC-PVTZ AUX)
    Blend: AUG-CC-PVTZ-JKFIT

    Orbital Energies [Eh]
    ---------------------

    Doubly Occupied:

       1A    -15.874449     2A    -11.464579     3A    -11.390407
       4A    -11.390395     5A    -11.371580     6A    -11.371576
       7A    -11.357820     8A     -1.492519     9A     -1.277834
      10A     -1.172598    11A     -1.171570    12A     -1.011570
      13A     -1.006278    14A     -0.950994    15A     -0.934269
      16A     -0.918427    17A     -0.817411    18A     -0.814863
      19A     -0.764343    20A     -0.756293    21A     -0.699783
      22A     -0.696057    23A     -0.687040    24A     -0.686129
      25A     -0.646506    26A     -0.611002    27A     -0.595459
      28A     -0.595301

  @DF-RHF Final Energy:  -289.70988303394421

   => Energetics <=

    Nuclear Repulsion Energy =            346.8072106824396315
    One-Electron Energy =               -1067.9800845113802552
    Two-Electron Energy =                 431.4629907949964149
    Total Energy =                       -289.7098830339442088
  Basis Set: (AUG-CC-PVTZ AUX)
    Blend: AUG-CC-PVTZ-RI
    Molecular point group: c1

    Geometry (in Angstrom), charge = 1, multiplicity = 1:

       Center              X                  Y                   Z               Mass
    ------------   -----------------  -----------------  -----------------  -----------------
         N           -1.809746169121     0.000000020134    -0.796886159285    14.003074004430
         C           -1.078734169121     0.000000020134     0.546114840715    12.000000000000
         C           -0.242003169121    -1.271566979866     0.636327840715    12.000000000000
         C           -0.242003169121     1.271567020134     0.636328840715    12.000000000000
         C            0.947072830879    -1.263350979866    -0.329838159285    12.000000000000
         C            0.947071830879     1.263351020134    -0.329839159285    12.000000000000
         C            1.790880830879     0.000000020134    -0.157243159285    12.000000000000
         H           -1.865518369121     0.000000020134     1.278004740715     1.007825032230
         H           -0.872870169121    -2.159139979866     0.495716840715     1.007825032230
         H            0.128798830879    -1.325464979866     1.666365840715     1.007825032230
         H            0.128799830879     1.325464020134     1.666366840715     1.007825032230
         H           -0.872870169121     2.159140020134     0.495717840715     1.007825032230
         H            0.609122830879    -1.345883979866    -1.374399159285     1.007825032230
         H            1.551710830879    -2.158015979866    -0.153156159285     1.007825032230
         H            1.551709830879     2.158016020134    -0.153157159285     1.007825032230
         H            0.609120830879     1.345883020134    -1.374399159285     1.007825032230
         H            2.237745830879     0.000001020134     0.844835840715     1.007825032230
         H            2.620790830879     0.000000020134    -0.870576159285     1.007825032230
         H           -1.137987169121    -0.000011979866    -1.574711159285     1.007825032230
         H           -2.406486169121     0.831386020134    -0.901636159285     1.007825032230
         H           -2.406504169121    -0.831374979866    -0.901626159285     1.007825032230

  Basis Set: AUG-CC-PVTZ
    Blend: AUG-CC-PVTZ
  Basis Set: (AUG-CC-PVTZ AUX)
    Blend: AUG-CC-PVTZ-JKFIT
	 Reference Energy          =    -289.7098830339442088 [Eh]
	 Singles Energy            =      -0.0000000000000000 [Eh]
	 Same-Spin Energy          =      -0.3075991291681887 [Eh]
	 Opposite-Spin Energy      =      -1.0937312695714243 [Eh]
	 Correlation Energy        =      -1.4013303987396131 [Eh]
	 Total Energy              =    -291.1112134326838259 [Eh]

	 ================> DF-SCS-MP2 Energies <==================
	-----------------------------------------------------------
	 SCS Same-Spin Scale       =       0.3333333333333333 [-]
	 SCS Opposite-Spin Scale   =       1.2000000000000000 [-]
	 SCS Same-Spin Energy      =      -0.1025330430560629 [Eh]
	 SCS Opposite-Spin Energy  =      -1.3124775234857091 [Eh]
	 SCS Correlation Energy    =      -1.4150105665417720 [Eh]
	 SCS Total Energy          =    -291.1248936004859615 [Eh]
	-----------------------------------------------------------

  Dipole Moment: [D]
     X:    -5.6048      Y:    -0.0000      Z:    -2.0499     Total:     5.9679

*** Psi4 exiting successfully. Buy a developer a beer!
