                               Psi4 1.4a3.dev225

  ==> Input File <==

--------------------------------------------------------------------------
#psi4
#
memory 32 gb

molecule  {
1 1
  N       -1.8084550     0.0000000    -0.7896910
  C       -1.0774430     0.0000000     0.5533100
  C       -0.2407120    -1.2715670     0.6435230
  C       -0.2407120     1.2715670     0.6435240
  C        0.9920740    -1.2926396    -0.3137024
  C        0.9483630     1.2633510    -0.3226440
  C        1.7921720     0.0000000    -0.1500480
  H       -1.8788710     0.0000000     1.2988220
  H       -0.8715790    -2.1591400     0.5029120
  H        0.1300900    -1.3254650     1.6735610
  H        0.1300910     1.3254640     1.6735620
  H       -0.8715790     2.1591400     0.5029130
  H        0.6104140    -1.3458840    -1.3672040
  H        1.5530020    -2.1580160    -0.1459610
  H        1.5530010     2.1580160    -0.1459620
  H        0.6104120     1.3458830    -1.3672040
  H        2.2390370     0.0000010     0.8520310
  H        2.6220820     0.0000000    -0.8633810
  H       -1.1366960    -0.0000120    -1.5675160
  H       -2.4051950     0.8313860    -0.8944410
  H       -2.4052130    -0.8313750    -0.8944310
units angstrom
no_reorient  #important for SAPT in psi4, default
symmetry c1  #important for SAPT in psi4, default
}

set PROPERTIES_ORIGIN ["COM"]
properties('MP2/aug-cc-pvtz', properties = ['dipole'])
--------------------------------------------------------------------------

    Molecular point group: c1
  Charge       = 1
  Multiplicity = 1
  Basis Set: AUG-CC-PVTZ
    Blend: AUG-CC-PVTZ
  Basis Set: (AUG-CC-PVTZ AUX)
    Blend: AUG-CC-PVTZ-JKFIT

    Orbital Energies [Eh]
    ---------------------

    Doubly Occupied:

       1A    -15.874489     2A    -11.467583     3A    -11.390698
       4A    -11.390659     5A    -11.372868     6A    -11.371699
       7A    -11.357898     8A     -1.492273     9A     -1.275324
      10A     -1.171492    11A     -1.170333    12A     -1.009250
      13A     -1.008895    14A     -0.950579    15A     -0.934168
      16A     -0.918668    17A     -0.814453    18A     -0.813475
      19A     -0.767649    20A     -0.754608    21A     -0.702180
      22A     -0.696985    23A     -0.688668    24A     -0.682134
      25A     -0.643884    26A     -0.608585    27A     -0.603114
      28A     -0.590621

  @DF-RHF Final Energy:  -289.70709692535189

   => Energetics <=

    Nuclear Repulsion Energy =            346.0305269190476452
    One-Electron Energy =               -1066.4287852969864616
    Two-Electron Energy =                 430.6911614525869823
    Total Energy =                       -289.7070969253518911
  Basis Set: (AUG-CC-PVTZ AUX)
    Blend: AUG-CC-PVTZ-RI
    Molecular point group: c1

    Geometry (in Angstrom), charge = 1, multiplicity = 1:

       Center              X                  Y                   Z               Mass
    ------------   -----------------  -----------------  -----------------  -----------------
         N           -1.814838050535     0.003510698252    -0.798094956817    14.003074004430
         C           -1.083826050535     0.003510698252     0.544906043183    12.000000000000
         C           -0.247095050535    -1.268056301748     0.635119043183    12.000000000000
         C           -0.247095050535     1.275077698252     0.635120043183    12.000000000000
         C            0.985690949465    -1.289128901748    -0.322106356817    12.000000000000
         C            0.941979949465     1.266861698252    -0.331047956817    12.000000000000
         C            1.785788949465     0.003510698252    -0.158451956817    12.000000000000
         H           -1.885254050535     0.003510698252     1.290418043183     1.007825032230
         H           -0.877962050535    -2.155629301748     0.494508043183     1.007825032230
         H            0.123706949465    -1.321954301748     1.665157043183     1.007825032230
         H            0.123707949465     1.328974698252     1.665158043183     1.007825032230
         H           -0.877962050535     2.162650698252     0.494509043183     1.007825032230
         H            0.604030949465    -1.342373301748    -1.375607956817     1.007825032230
         H            1.546618949465    -2.154505301748    -0.154364956817     1.007825032230
         H            1.546617949465     2.161526698252    -0.154365956817     1.007825032230
         H            0.604028949465     1.349393698252    -1.375607956817     1.007825032230
         H            2.232653949465     0.003511698252     0.843627043183     1.007825032230
         H            2.615698949465     0.003510698252    -0.871784956817     1.007825032230
         H           -1.143079050535     0.003498698252    -1.575919956817     1.007825032230
         H           -2.411578050535     0.834896698252    -0.902844956817     1.007825032230
         H           -2.411596050535    -0.827864301748    -0.902834956817     1.007825032230

  Basis Set: AUG-CC-PVTZ
    Blend: AUG-CC-PVTZ
  Basis Set: (AUG-CC-PVTZ AUX)
    Blend: AUG-CC-PVTZ-JKFIT
	 Reference Energy          =    -289.7070969253518911 [Eh]
	 Singles Energy            =      -0.0000000000000000 [Eh]
	 Same-Spin Energy          =      -0.3073662622211040 [Eh]
	 Opposite-Spin Energy      =      -1.0937543772027056 [Eh]
	 Correlation Energy        =      -1.4011206394238096 [Eh]
	 Total Energy              =    -291.1082175647757140 [Eh]

	 ================> DF-SCS-MP2 Energies <==================
	-----------------------------------------------------------
	 SCS Same-Spin Scale       =       0.3333333333333333 [-]
	 SCS Opposite-Spin Scale   =       1.2000000000000000 [-]
	 SCS Same-Spin Energy      =      -0.1024554207403680 [Eh]
	 SCS Opposite-Spin Energy  =      -1.3125052526432468 [Eh]
	 SCS Correlation Energy    =      -1.4149606733836149 [Eh]
	 SCS Total Energy          =    -291.1220575987355232 [Eh]
	-----------------------------------------------------------

  Dipole Moment: [D]
     X:    -5.6165      Y:     0.0317      Z:    -2.0480     Total:     5.9783

*** Psi4 exiting successfully. Buy a developer a beer!
