                               Psi4 1.4a3.dev225

  ==> Input File <==

--------------------------------------------------------------------------
#psi4
#
memory 32 gb

molecule  {
1 1
  N       -1.8084550     0.0000000    -0.7896910
  C       -1.0774430     0.0000000     0.5533100
  C       -0.2407120    -1.2715670     0.6435230
  C       -0.2407120     1.2715670     0.6435240
  C        0.9056821    -1.2325232    -0.3313733
  C        0.9483630     1.2633510    -0.3226440
  C        1.7921720     0.0000000    -0.1500480
  H       -1.8788710     0.0000000     1.2988220
  H       -0.8715790    -2.1591400     0.5029120
  H        0.1300900    -1.3254650     1.6735610
  H        0.1300910     1.3254640     1.6735620
  H       -0.8715790     2.1591400     0.5029130
  H        0.6104140    -1.3458840    -1.3672040
  H        1.5530020    -2.1580160    -0.1459610
  H        1.5530010     2.1580160    -0.1459620
  H        0.6104120     1.3458830    -1.3672040
  H        2.2390370     0.0000010     0.8520310
  H        2.6220820     0.0000000    -0.8633810
  H       -1.1366960    -0.0000120    -1.5675160
  H       -2.4051950     0.8313860    -0.8944410
  H       -2.4052130    -0.8313750    -0.8944310
units angstrom
no_reorient  #important for SAPT in psi4, default
symmetry c1  #important for SAPT in psi4, default
}

set PROPERTIES_ORIGIN ["COM"]
properties('MP2/aug-cc-pvtz', properties = ['dipole'])
--------------------------------------------------------------------------

    Molecular point group: c1
  Charge       = 1
  Multiplicity = 1
  Basis Set: AUG-CC-PVTZ
    Blend: AUG-CC-PVTZ
  Basis Set: (AUG-CC-PVTZ AUX)
    Blend: AUG-CC-PVTZ-JKFIT

    Orbital Energies [Eh]
    ---------------------

    Doubly Occupied:

       1A    -15.874599     2A    -11.465999     3A    -11.390482
       4A    -11.390405     5A    -11.372434     6A    -11.370634
       7A    -11.358276     8A     -1.492628     9A     -1.280305
      10A     -1.174868    11A     -1.170381    12A     -1.011194
      13A     -1.004128    14A     -0.951470    15A     -0.934452
      16A     -0.918713    17A     -0.816750    18A     -0.815171
      19A     -0.761148    20A     -0.757839    21A     -0.697852
      22A     -0.694631    23A     -0.691933    24A     -0.683962
      25A     -0.648487    26A     -0.613802    27A     -0.598351
      28A     -0.585144

  @DF-RHF Final Energy:  -289.70607298645723

   => Energetics <=

    Nuclear Repulsion Energy =            347.3779127667688158
    One-Electron Energy =               -1069.1158912626976871
    Two-Electron Energy =                 432.0319055094716987
    Total Energy =                       -289.7060729864572295
  Basis Set: (AUG-CC-PVTZ AUX)
    Blend: AUG-CC-PVTZ-RI
    Molecular point group: c1

    Geometry (in Angstrom), charge = 1, multiplicity = 1:

       Center              X                  Y                   Z               Mass
    ------------   -----------------  -----------------  -----------------  -----------------
         N           -1.804482685209    -0.003695154196    -0.795976834341    14.003074004430
         C           -1.073470685209    -0.003695154196     0.547024165659    12.000000000000
         C           -0.236739685209    -1.275262154196     0.637237165659    12.000000000000
         C           -0.236739685209     1.267871845804     0.637238165659    12.000000000000
         C            0.909654414791    -1.236218354196    -0.337659134341    12.000000000000
         C            0.952335314791     1.259655845804    -0.328929834341    12.000000000000
         C            1.796144314791    -0.003695154196    -0.156333834341    12.000000000000
         H           -1.874898685209    -0.003695154196     1.292536165659     1.007825032230
         H           -0.867606685209    -2.162835154196     0.496626165659     1.007825032230
         H            0.134062314791    -1.329160154196     1.667275165659     1.007825032230
         H            0.134063314791     1.321768845804     1.667276165659     1.007825032230
         H           -0.867606685209     2.155444845804     0.496627165659     1.007825032230
         H            0.614386314791    -1.349579154196    -1.373489834341     1.007825032230
         H            1.556974314791    -2.161711154196    -0.152246834341     1.007825032230
         H            1.556973314791     2.154320845804    -0.152247834341     1.007825032230
         H            0.614384314791     1.342187845804    -1.373489834341     1.007825032230
         H            2.243009314791    -0.003694154196     0.845745165659     1.007825032230
         H            2.626054314791    -0.003695154196    -0.869666834341     1.007825032230
         H           -1.132723685209    -0.003707154196    -1.573801834341     1.007825032230
         H           -2.401222685209     0.827690845804    -0.900726834341     1.007825032230
         H           -2.401240685209    -0.835070154196    -0.900716834341     1.007825032230

  Basis Set: AUG-CC-PVTZ
    Blend: AUG-CC-PVTZ
  Basis Set: (AUG-CC-PVTZ AUX)
    Blend: AUG-CC-PVTZ-JKFIT
	 Reference Energy          =    -289.7060729864572295 [Eh]
	 Singles Energy            =      -0.0000000000000000 [Eh]
	 Same-Spin Energy          =      -0.3080595259976830 [Eh]
	 Opposite-Spin Energy      =      -1.0944277824454149 [Eh]
	 Correlation Energy        =      -1.4024873084430980 [Eh]
	 Total Energy              =    -291.1085602949003146 [Eh]

	 ================> DF-SCS-MP2 Energies <==================
	-----------------------------------------------------------
	 SCS Same-Spin Scale       =       0.3333333333333333 [-]
	 SCS Opposite-Spin Scale   =       1.2000000000000000 [-]
	 SCS Same-Spin Energy      =      -0.1026865086658943 [Eh]
	 SCS Opposite-Spin Energy  =      -1.3133133389344980 [Eh]
	 SCS Correlation Energy    =      -1.4159998476003923 [Eh]
	 SCS Total Energy          =    -291.1220728340576329 [Eh]
	-----------------------------------------------------------

  Dipole Moment: [D]
     X:    -5.5804      Y:    -0.0261      Z:    -2.0508     Total:     5.9454

*** Psi4 exiting successfully. Buy a developer a beer!
