                               Psi4 1.4a3.dev225

  ==> Input File <==

--------------------------------------------------------------------------
#psi4
#
memory 32 gb

molecule  {
1 1
  N       -1.7619036    -0.0936936    -0.8107888
  C       -1.0774430     0.0000000     0.5533100
  C       -0.2407120    -1.2715670     0.6435230
  C       -0.2407120     1.2715670     0.6435240
  C        0.9483640    -1.2633510    -0.3226430
  C        0.9483630     1.2633510    -0.3226440
  C        1.7921720     0.0000000    -0.1500480
  H       -1.8788710     0.0000000     1.2988220
  H       -0.8715790    -2.1591400     0.5029120
  H        0.1300900    -1.3254650     1.6735610
  H        0.1300910     1.3254640     1.6735620
  H       -0.8715790     2.1591400     0.5029130
  H        0.6104140    -1.3458840    -1.3672040
  H        1.5530020    -2.1580160    -0.1459610
  H        1.5530010     2.1580160    -0.1459620
  H        0.6104120     1.3458830    -1.3672040
  H        2.2390370     0.0000010     0.8520310
  H        2.6220820     0.0000000    -0.8633810
  H       -1.1366960    -0.0000120    -1.5675160
  H       -2.4051950     0.8313860    -0.8944410
  H       -2.4052130    -0.8313750    -0.8944310
units angstrom
no_reorient  #important for SAPT in psi4, default
symmetry c1  #important for SAPT in psi4, default
}

set PROPERTIES_ORIGIN ["COM"]
properties('MP2/aug-cc-pvtz', properties = ['dipole'])
--------------------------------------------------------------------------

    Molecular point group: c1
  Charge       = 1
  Multiplicity = 1
  Basis Set: AUG-CC-PVTZ
    Blend: AUG-CC-PVTZ
  Basis Set: (AUG-CC-PVTZ AUX)
    Blend: AUG-CC-PVTZ-JKFIT

    Orbital Energies [Eh]
    ---------------------

    Doubly Occupied:

       1A    -15.874808     2A    -11.467509     3A    -11.392344
       4A    -11.387707     5A    -11.372323     6A    -11.370666
       7A    -11.357740     8A     -1.493931     9A     -1.277651
      10A     -1.172573    11A     -1.171357    12A     -1.013476
      13A     -1.005646    14A     -0.973865    15A     -0.920705
      16A     -0.902280    17A     -0.821003    18A     -0.813277
      19A     -0.764553    20A     -0.752797    21A     -0.699847
      22A     -0.696393    23A     -0.687158    24A     -0.682827
      25A     -0.645992    26A     -0.610989    27A     -0.595300
      28A     -0.594828

  @DF-RHF Final Energy:  -289.69558852877583

   => Energetics <=

    Nuclear Repulsion Energy =            347.1323738942653563
    One-Electron Energy =               -1068.6168355174775115
    Two-Electron Energy =                 431.7888730944363260
    Total Energy =                       -289.6955885287758292
  Basis Set: (AUG-CC-PVTZ AUX)
    Blend: AUG-CC-PVTZ-RI
    Molecular point group: c1

    Geometry (in Angstrom), charge = 1, multiplicity = 1:

       Center              X                  Y                   Z               Mass
    ------------   -----------------  -----------------  -----------------  -----------------
         N           -1.769558644951    -0.080588355408    -0.815170074793    14.003074004430
         C           -1.085098044951     0.013105244592     0.548928725207    12.000000000000
         C           -0.248367044951    -1.258461755408     0.639141725207    12.000000000000
         C           -0.248367044951     1.284672244592     0.639142725207    12.000000000000
         C            0.940708955049    -1.250245755408    -0.327024274793    12.000000000000
         C            0.940707955049     1.276456244592    -0.327025274793    12.000000000000
         C            1.784516955049     0.013105244592    -0.154429274793    12.000000000000
         H           -1.886526044951     0.013105244592     1.294440725207     1.007825032230
         H           -0.879234044951    -2.146034755408     0.498530725207     1.007825032230
         H            0.122434955049    -1.312359755408     1.669179725207     1.007825032230
         H            0.122435955049     1.338569244592     1.669180725207     1.007825032230
         H           -0.879234044951     2.172245244592     0.498531725207     1.007825032230
         H            0.602758955049    -1.332778755408    -1.371585274793     1.007825032230
         H            1.545346955049    -2.144910755408    -0.150342274793     1.007825032230
         H            1.545345955049     2.171121244592    -0.150343274793     1.007825032230
         H            0.602756955049     1.358988244592    -1.371585274793     1.007825032230
         H            2.231381955049     0.013106244592     0.847649725207     1.007825032230
         H            2.614426955049     0.013105244592    -0.867762274793     1.007825032230
         H           -1.144351044951     0.013093244592    -1.571897274793     1.007825032230
         H           -2.412850044951     0.844491244592    -0.898822274793     1.007825032230
         H           -2.412868044951    -0.818269755408    -0.898812274793     1.007825032230

  Basis Set: AUG-CC-PVTZ
    Blend: AUG-CC-PVTZ
  Basis Set: (AUG-CC-PVTZ AUX)
    Blend: AUG-CC-PVTZ-JKFIT
	 Reference Energy          =    -289.6955885287758292 [Eh]
	 Singles Energy            =      -0.0000000000000000 [Eh]
	 Same-Spin Energy          =      -0.3079958125136935 [Eh]
	 Opposite-Spin Energy      =      -1.0948817589966175 [Eh]
	 Correlation Energy        =      -1.4028775715103110 [Eh]
	 Total Energy              =    -291.0984661002861458 [Eh]

	 ================> DF-SCS-MP2 Energies <==================
	-----------------------------------------------------------
	 SCS Same-Spin Scale       =       0.3333333333333333 [-]
	 SCS Opposite-Spin Scale   =       1.2000000000000000 [-]
	 SCS Same-Spin Energy      =      -0.1026652708378978 [Eh]
	 SCS Opposite-Spin Energy  =      -1.3138581107959411 [Eh]
	 SCS Correlation Energy    =      -1.4165233816338390 [Eh]
	 SCS Total Energy          =    -291.1121119104096806 [Eh]
	-----------------------------------------------------------

  Dipole Moment: [D]
     X:    -5.6616      Y:     0.1429      Z:    -2.0235     Total:     6.0140

*** Psi4 exiting successfully. Buy a developer a beer!
