                               Psi4 1.4a3.dev225

  ==> Input File <==

--------------------------------------------------------------------------
#psi4
#
memory 32 gb

molecule  {
1 1
  N       -1.8084550     0.0000000    -0.7896910
  C       -1.0774430     0.0000000     0.5533100
  C       -0.2407120    -1.2715670     0.6435230
  C       -0.2407120     1.2715670     0.6435240
  C        0.9483640    -1.2633510    -0.3226430
  C        0.9483630     1.2633510    -0.3226440
  C        1.9151361     0.0968332    -0.1166230
  H       -1.8788710     0.0000000     1.2988220
  H       -0.8715790    -2.1591400     0.5029120
  H        0.1300900    -1.3254650     1.6735610
  H        0.1300910     1.3254640     1.6735620
  H       -0.8715790     2.1591400     0.5029130
  H        0.6104140    -1.3458840    -1.3672040
  H        1.5530020    -2.1580160    -0.1459610
  H        1.5530010     2.1580160    -0.1459620
  H        0.6104120     1.3458830    -1.3672040
  H        2.2390370     0.0000010     0.8520310
  H        2.6220820     0.0000000    -0.8633810
  H       -1.1366960    -0.0000120    -1.5675160
  H       -2.4051950     0.8313860    -0.8944410
  H       -2.4052130    -0.8313750    -0.8944310
units angstrom
no_reorient  #important for SAPT in psi4, default
symmetry c1  #important for SAPT in psi4, default
}

set PROPERTIES_ORIGIN ["COM"]
properties('MP2/aug-cc-pvtz', properties = ['dipole'])
--------------------------------------------------------------------------

    Molecular point group: c1
  Charge       = 1
  Multiplicity = 1
  Basis Set: AUG-CC-PVTZ
    Blend: AUG-CC-PVTZ
  Basis Set: (AUG-CC-PVTZ AUX)
    Blend: AUG-CC-PVTZ-JKFIT

    Orbital Energies [Eh]
    ---------------------

    Doubly Occupied:

       1A    -15.874141     2A    -11.465978     3A    -11.392098
       4A    -11.389909     5A    -11.373251     6A    -11.372245
       7A    -11.356937     8A     -1.491918     9A     -1.270744
      10A     -1.173484    11A     -1.159388    12A     -1.017017
      13A     -0.998143    14A     -0.950309    15A     -0.933386
      16A     -0.924941    17A     -0.816572    18A     -0.810663
      19A     -0.770662    20A     -0.753643    21A     -0.707669
      22A     -0.692322    23A     -0.685403    24A     -0.678406
      25A     -0.645523    26A     -0.630510    27A     -0.608219
      28A     -0.555897

  @DF-RHF Final Energy:  -289.68933554783058

   => Energetics <=

    Nuclear Repulsion Energy =            344.6574493616651012
    One-Electron Energy =               -1063.6948151623075773
    Two-Electron Energy =                 429.3480302528118386
    Total Energy =                       -289.6893355478305807
  Basis Set: (AUG-CC-PVTZ AUX)
    Blend: AUG-CC-PVTZ-RI
    Molecular point group: c1

    Geometry (in Angstrom), charge = 1, multiplicity = 1:

       Center              X                  Y                   Z               Mass
    ------------   -----------------  -----------------  -----------------  -----------------
         N           -1.824337843445    -0.011606891645    -0.801029779489    14.003074004430
         C           -1.093325843445    -0.011606891645     0.541971220511    12.000000000000
         C           -0.256594843445    -1.283173891645     0.632184220511    12.000000000000
         C           -0.256594843445     1.259960108355     0.632185220511    12.000000000000
         C            0.932481156555    -1.274957891645    -0.333981779489    12.000000000000
         C            0.932480156555     1.251744108355    -0.333982779489    12.000000000000
         C            1.899253256555     0.085226308355    -0.127961779489    12.000000000000
         H           -1.894753843445    -0.011606891645     1.287483220511     1.007825032230
         H           -0.887461843445    -2.170746891645     0.491573220511     1.007825032230
         H            0.114207156555    -1.337071891645     1.662222220511     1.007825032230
         H            0.114208156555     1.313857108355     1.662223220511     1.007825032230
         H           -0.887461843445     2.147533108355     0.491574220511     1.007825032230
         H            0.594531156555    -1.357490891645    -1.378542779489     1.007825032230
         H            1.537119156555    -2.169622891645    -0.157299779489     1.007825032230
         H            1.537118156555     2.146409108355    -0.157300779489     1.007825032230
         H            0.594529156555     1.334276108355    -1.378542779489     1.007825032230
         H            2.223154156555    -0.011605891645     0.840692220511     1.007825032230
         H            2.606199156555    -0.011606891645    -0.874719779489     1.007825032230
         H           -1.152578843445    -0.011618891645    -1.578854779489     1.007825032230
         H           -2.421077843445     0.819779108355    -0.905779779489     1.007825032230
         H           -2.421095843445    -0.842981891645    -0.905769779489     1.007825032230

  Basis Set: AUG-CC-PVTZ
    Blend: AUG-CC-PVTZ
  Basis Set: (AUG-CC-PVTZ AUX)
    Blend: AUG-CC-PVTZ-JKFIT
	 Reference Energy          =    -289.6893355478305807 [Eh]
	 Singles Energy            =      -0.0000000000000000 [Eh]
	 Same-Spin Energy          =      -0.3073676813437210 [Eh]
	 Opposite-Spin Energy      =      -1.0945864102614040 [Eh]
	 Correlation Energy        =      -1.4019540916051250 [Eh]
	 Total Energy              =    -291.0912896394357290 [Eh]

	 ================> DF-SCS-MP2 Energies <==================
	-----------------------------------------------------------
	 SCS Same-Spin Scale       =       0.3333333333333333 [-]
	 SCS Opposite-Spin Scale   =       1.2000000000000000 [-]
	 SCS Same-Spin Energy      =      -0.1024558937812403 [Eh]
	 SCS Opposite-Spin Energy  =      -1.3135036923136847 [Eh]
	 SCS Correlation Energy    =      -1.4159595860949250 [Eh]
	 SCS Total Energy          =    -291.1052951339254946 [Eh]
	-----------------------------------------------------------

  Dipole Moment: [D]
     X:    -5.6483      Y:    -0.0058      Z:    -2.0494     Total:     6.0086

*** Psi4 exiting successfully. Buy a developer a beer!
