                               Psi4 1.4a3.dev225

  ==> Input File <==

--------------------------------------------------------------------------
#psi4
#
memory 32 gb

molecule  {
1 1
  N       -1.8084550     0.0000000    -0.7896910
  C       -1.1095172    -0.0195443     0.5910206
  C       -0.2407120    -1.2715670     0.6435230
  C       -0.2407120     1.2715670     0.6435240
  C        0.9483640    -1.2633510    -0.3226430
  C        0.9483630     1.2633510    -0.3226440
  C        1.7921720     0.0000000    -0.1500480
  H       -1.8788710     0.0000000     1.2988220
  H       -0.8715790    -2.1591400     0.5029120
  H        0.1300900    -1.3254650     1.6735610
  H        0.1300910     1.3254640     1.6735620
  H       -0.8715790     2.1591400     0.5029130
  H        0.6104140    -1.3458840    -1.3672040
  H        1.5530020    -2.1580160    -0.1459610
  H        1.5530010     2.1580160    -0.1459620
  H        0.6104120     1.3458830    -1.3672040
  H        2.2390370     0.0000010     0.8520310
  H        2.6220820     0.0000000    -0.8633810
  H       -1.1366960    -0.0000120    -1.5675160
  H       -2.4051950     0.8313860    -0.8944410
  H       -2.4052130    -0.8313750    -0.8944310
units angstrom
no_reorient  #important for SAPT in psi4, default
symmetry c1  #important for SAPT in psi4, default
}

set PROPERTIES_ORIGIN ["COM"]
properties('MP2/aug-cc-pvtz', properties = ['dipole'])
--------------------------------------------------------------------------

    Molecular point group: c1
  Charge       = 1
  Multiplicity = 1
  Basis Set: AUG-CC-PVTZ
    Blend: AUG-CC-PVTZ
  Basis Set: (AUG-CC-PVTZ AUX)
    Blend: AUG-CC-PVTZ-JKFIT

    Orbital Energies [Eh]
    ---------------------

    Doubly Occupied:

       1A    -15.871773     2A    -11.466391     3A    -11.391944
       4A    -11.390931     5A    -11.372788     6A    -11.372260
       7A    -11.357960     8A     -1.486927     9A     -1.274996
      10A     -1.173362    11A     -1.169460    12A     -1.013868
      13A     -1.004969    14A     -0.945473    15A     -0.931660
      16A     -0.917552    17A     -0.824670    18A     -0.810083
      19A     -0.765023    20A     -0.754769    21A     -0.705734
      22A     -0.692076    23A     -0.687443    24A     -0.682438
      25A     -0.645311    26A     -0.611187    27A     -0.599327
      28A     -0.593406

  @DF-RHF Final Energy:  -289.70701614195764

   => Energetics <=

    Nuclear Repulsion Energy =            345.9836350837753116
    One-Electron Energy =               -1066.3537358142129960
    Two-Electron Energy =                 430.6630845884800465
    Total Energy =                       -289.7070161419576380
  Basis Set: (AUG-CC-PVTZ AUX)
    Blend: AUG-CC-PVTZ-RI
    Molecular point group: c1

    Geometry (in Angstrom), charge = 1, multiplicity = 1:

       Center              X                  Y                   Z               Mass
    ------------   -----------------  -----------------  -----------------  -----------------
         N           -1.805754177198     0.002342697706    -0.801543472945    14.003074004430
         C           -1.106816377198    -0.017201602294     0.579168127055    12.000000000000
         C           -0.238011177198    -1.269224302294     0.631670527055    12.000000000000
         C           -0.238011177198     1.273909697706     0.631671527055    12.000000000000
         C            0.951064822802    -1.261008302294    -0.334495472945    12.000000000000
         C            0.951063822802     1.265693697706    -0.334496472945    12.000000000000
         C            1.794872822802     0.002342697706    -0.161900472945    12.000000000000
         H           -1.876170177198     0.002342697706     1.286969527055     1.007825032230
         H           -0.868878177198    -2.156797302294     0.491059527055     1.007825032230
         H            0.132790822802    -1.323122302294     1.661708527055     1.007825032230
         H            0.132791822802     1.327806697706     1.661709527055     1.007825032230
         H           -0.868878177198     2.161482697706     0.491060527055     1.007825032230
         H            0.613114822802    -1.343541302294    -1.379056472945     1.007825032230
         H            1.555702822802    -2.155673302294    -0.157813472945     1.007825032230
         H            1.555701822802     2.160358697706    -0.157814472945     1.007825032230
         H            0.613112822802     1.348225697706    -1.379056472945     1.007825032230
         H            2.241737822802     0.002343697706     0.840178527055     1.007825032230
         H            2.624782822802     0.002342697706    -0.875233472945     1.007825032230
         H           -1.133995177198     0.002330697706    -1.579368472945     1.007825032230
         H           -2.402494177198     0.833728697706    -0.906293472945     1.007825032230
         H           -2.402512177198    -0.829032302294    -0.906283472945     1.007825032230

  Basis Set: AUG-CC-PVTZ
    Blend: AUG-CC-PVTZ
  Basis Set: (AUG-CC-PVTZ AUX)
    Blend: AUG-CC-PVTZ-JKFIT
	 Reference Energy          =    -289.7070161419576380 [Eh]
	 Singles Energy            =      -0.0000000000000000 [Eh]
	 Same-Spin Energy          =      -0.3072754306534683 [Eh]
	 Opposite-Spin Energy      =      -1.0937032459608864 [Eh]
	 Correlation Energy        =      -1.4009786766143546 [Eh]
	 Total Energy              =    -291.1079948185719672 [Eh]

	 ================> DF-SCS-MP2 Energies <==================
	-----------------------------------------------------------
	 SCS Same-Spin Scale       =       0.3333333333333333 [-]
	 SCS Opposite-Spin Scale   =       1.2000000000000000 [-]
	 SCS Same-Spin Energy      =      -0.1024251435511561 [Eh]
	 SCS Opposite-Spin Energy  =      -1.3124438951530637 [Eh]
	 SCS Correlation Energy    =      -1.4148690387042198 [Eh]
	 SCS Total Energy          =    -291.1218851806618773 [Eh]
	-----------------------------------------------------------

  Dipole Moment: [D]
     X:    -5.5715      Y:    -0.0063      Z:    -2.0235     Total:     5.9275

*** Psi4 exiting successfully. Buy a developer a beer!
