                               Psi4 1.4a3.dev225

  ==> Input File <==

--------------------------------------------------------------------------
#psi4
#
memory 32 gb

molecule  {
1 1
  N       -1.8084550     0.0000000    -0.7896910
  C       -1.0774430     0.0000000     0.5533100
  C       -0.2407120    -1.2715670     0.6435230
  C       -0.2407120     1.2715670     0.6435240
  C        0.9483640    -1.2633510    -0.3226430
  C        0.9483630     1.2633510    -0.3226440
  C        1.7921720     0.0000000    -0.1500480
  H       -1.8788710     0.0000000     1.2988220
  H       -0.8715790    -2.1591400     0.5029120
  H        0.1131750    -1.3230063     1.6265734
  H        0.1300910     1.3254640     1.6735620
  H       -0.8715790     2.1591400     0.5029130
  H        0.6104140    -1.3458840    -1.3672040
  H        1.5530020    -2.1580160    -0.1459610
  H        1.5530010     2.1580160    -0.1459620
  H        0.6104120     1.3458830    -1.3672040
  H        2.2390370     0.0000010     0.8520310
  H        2.6220820     0.0000000    -0.8633810
  H       -1.1366960    -0.0000120    -1.5675160
  H       -2.4051950     0.8313860    -0.8944410
  H       -2.4052130    -0.8313750    -0.8944310
units angstrom
no_reorient  #important for SAPT in psi4, default
symmetry c1  #important for SAPT in psi4, default
}

set PROPERTIES_ORIGIN ["COM"]
properties('MP2/aug-cc-pvtz', properties = ['dipole'])
--------------------------------------------------------------------------

    Molecular point group: c1
  Charge       = 1
  Multiplicity = 1
  Basis Set: AUG-CC-PVTZ
    Blend: AUG-CC-PVTZ
  Basis Set: (AUG-CC-PVTZ AUX)
    Blend: AUG-CC-PVTZ-JKFIT

    Orbital Energies [Eh]
    ---------------------

    Doubly Occupied:

       1A    -15.874335     2A    -11.466553     3A    -11.390580
       4A    -11.384783     5A    -11.371676     6A    -11.371341
       7A    -11.357895     8A     -1.492215     9A     -1.278521
      10A     -1.174349    11A     -1.170762    12A     -1.011461
      13A     -1.007066    14A     -0.951637    15A     -0.935112
      16A     -0.919604    17A     -0.815470    18A     -0.813928
      19A     -0.764284    20A     -0.759470    21A     -0.699157
      22A     -0.695998    23A     -0.690504    24A     -0.685949
      25A     -0.649212    26A     -0.611264    27A     -0.595443
      28A     -0.594800

  @DF-RHF Final Energy:  -289.70890246528808

   => Energetics <=

    Nuclear Repulsion Energy =            346.9487925530615371
    One-Electron Energy =               -1068.2486495598539022
    Two-Electron Energy =                 431.5909545415042317
    Total Energy =                       -289.7089024652880767
  Basis Set: (AUG-CC-PVTZ AUX)
    Blend: AUG-CC-PVTZ-RI
    Molecular point group: c1

    Geometry (in Angstrom), charge = 1, multiplicity = 1:

       Center              X                  Y                   Z               Mass
    ------------   -----------------  -----------------  -----------------  -----------------
         N           -1.809428469442    -0.000024731384    -0.796550271715    14.003074004430
         C           -1.078416469442    -0.000024731384     0.546450728285    12.000000000000
         C           -0.241685469442    -1.271591731384     0.636663728285    12.000000000000
         C           -0.241685469442     1.271542268616     0.636664728285    12.000000000000
         C            0.947390530558    -1.263375731384    -0.329502271715    12.000000000000
         C            0.947389530558     1.263326268616    -0.329503271715    12.000000000000
         C            1.791198530558    -0.000024731384    -0.156907271715    12.000000000000
         H           -1.879844469442    -0.000024731384     1.291962728285     1.007825032230
         H           -0.872552469442    -2.159164731384     0.496052728285     1.007825032230
         H            0.112201530558    -1.323031031384     1.619714128285     1.007825032230
         H            0.129117530558     1.325439268616     1.666702728285     1.007825032230
         H           -0.872552469442     2.159115268616     0.496053728285     1.007825032230
         H            0.609440530558    -1.345908731384    -1.374063271715     1.007825032230
         H            1.552028530558    -2.158040731384    -0.152820271715     1.007825032230
         H            1.552027530558     2.157991268616    -0.152821271715     1.007825032230
         H            0.609438530558     1.345858268616    -1.374063271715     1.007825032230
         H            2.238063530558    -0.000023731384     0.845171728285     1.007825032230
         H            2.621108530558    -0.000024731384    -0.870240271715     1.007825032230
         H           -1.137669469442    -0.000036731384    -1.574375271715     1.007825032230
         H           -2.406168469442     0.831361268616    -0.901300271715     1.007825032230
         H           -2.406186469442    -0.831399731384    -0.901290271715     1.007825032230

  Basis Set: AUG-CC-PVTZ
    Blend: AUG-CC-PVTZ
  Basis Set: (AUG-CC-PVTZ AUX)
    Blend: AUG-CC-PVTZ-JKFIT
	 Reference Energy          =    -289.7089024652880767 [Eh]
	 Singles Energy            =      -0.0000000000000000 [Eh]
	 Same-Spin Energy          =      -0.3075839408229186 [Eh]
	 Opposite-Spin Energy      =      -1.0935623933887522 [Eh]
	 Correlation Energy        =      -1.4011463342116708 [Eh]
	 Total Energy              =    -291.1100487994997366 [Eh]

	 ================> DF-SCS-MP2 Energies <==================
	-----------------------------------------------------------
	 SCS Same-Spin Scale       =       0.3333333333333333 [-]
	 SCS Opposite-Spin Scale   =       1.2000000000000000 [-]
	 SCS Same-Spin Energy      =      -0.1025279802743062 [Eh]
	 SCS Opposite-Spin Energy  =      -1.3122748720665025 [Eh]
	 SCS Correlation Energy    =      -1.4148028523408087 [Eh]
	 SCS Total Energy          =    -291.1237053176288896 [Eh]
	-----------------------------------------------------------

  Dipole Moment: [D]
     X:    -5.6011      Y:     0.0027      Z:    -2.0425     Total:     5.9619

*** Psi4 exiting successfully. Buy a developer a beer!
