                               Psi4 1.4a3.dev225

  ==> Input File <==

--------------------------------------------------------------------------
#psi4
#
memory 32 gb

molecule  {
1 1
  N       -1.8304087     0.0468754    -0.7766808
  C       -1.0774430     0.0000000     0.5533100
  C       -0.2407120    -1.2715670     0.6435230
  C       -0.2407120     1.2715670     0.6435240
  C        0.9483640    -1.2633510    -0.3226430
  C        0.9483630     1.2633510    -0.3226440
  C        1.7921720     0.0000000    -0.1500480
  H       -1.8788710     0.0000000     1.2988220
  H       -0.8715790    -2.1591400     0.5029120
  H        0.1300900    -1.3254650     1.6735610
  H        0.1300910     1.3254640     1.6735620
  H       -0.8715790     2.1591400     0.5029130
  H        0.6104140    -1.3458840    -1.3672040
  H        1.5530020    -2.1580160    -0.1459610
  H        1.5530010     2.1580160    -0.1459620
  H        0.6104120     1.3458830    -1.3672040
  H        2.2390370     0.0000010     0.8520310
  H        2.6220820     0.0000000    -0.8633810
  H       -1.1366960    -0.0000120    -1.5675160
  H       -2.4051950     0.8313860    -0.8944410
  H       -2.4052130    -0.8313750    -0.8944310
units angstrom
no_reorient  #important for SAPT in psi4, default
symmetry c1  #important for SAPT in psi4, default
}

set PROPERTIES_ORIGIN ["COM"]
properties('MP2/aug-cc-pvtz', properties = ['dipole'])
--------------------------------------------------------------------------

    Molecular point group: c1
  Charge       = 1
  Multiplicity = 1
  Basis Set: AUG-CC-PVTZ
    Blend: AUG-CC-PVTZ
  Basis Set: (AUG-CC-PVTZ AUX)
    Blend: AUG-CC-PVTZ-JKFIT

    Orbital Energies [Eh]
    ---------------------

    Doubly Occupied:

       1A    -15.874352     2A    -11.466787     3A    -11.392084
       4A    -11.389603     5A    -11.372268     6A    -11.371370
       7A    -11.358011     8A     -1.492478     9A     -1.278066
      10A     -1.172858    11A     -1.170758    12A     -1.009510
      13A     -1.007433    14A     -0.958687    15A     -0.928896
      16A     -0.916234    17A     -0.816370    18A     -0.810476
      19A     -0.764575    20A     -0.756540    21A     -0.698180
      22A     -0.696622    23A     -0.688151    24A     -0.685785
      25A     -0.646702    26A     -0.611037    27A     -0.595687
      28A     -0.595018

  @DF-RHF Final Energy:  -289.70568355087664

   => Energetics <=

    Nuclear Repulsion Energy =            346.5072218704596594
    One-Electron Energy =               -1067.3767354281719690
    Two-Electron Energy =                 431.1638300068356102
    Total Energy =                       -289.7056835508766426
  Basis Set: (AUG-CC-PVTZ AUX)
    Blend: AUG-CC-PVTZ-RI
    Molecular point group: c1

    Geometry (in Angstrom), charge = 1, multiplicity = 1:

       Center              X                  Y                   Z               Mass
    ------------   -----------------  -----------------  -----------------  -----------------
         N           -1.828481716808     0.040318807531    -0.785832870193    14.003074004430
         C           -1.075516016808    -0.006556592469     0.544157929807    12.000000000000
         C           -0.238785016808    -1.278123592469     0.634370929807    12.000000000000
         C           -0.238785016808     1.265010407531     0.634371929807    12.000000000000
         C            0.950290983192    -1.269907592469    -0.331795070193    12.000000000000
         C            0.950289983192     1.256794407531    -0.331796070193    12.000000000000
         C            1.794098983192    -0.006556592469    -0.159200070193    12.000000000000
         H           -1.876944016808    -0.006556592469     1.289669929807     1.007825032230
         H           -0.869652016808    -2.165696592469     0.493759929807     1.007825032230
         H            0.132016983192    -1.332021592469     1.664408929807     1.007825032230
         H            0.132017983192     1.318907407531     1.664409929807     1.007825032230
         H           -0.869652016808     2.152583407531     0.493760929807     1.007825032230
         H            0.612340983192    -1.352440592469    -1.376356070193     1.007825032230
         H            1.554928983192    -2.164572592469    -0.155113070193     1.007825032230
         H            1.554927983192     2.151459407531    -0.155114070193     1.007825032230
         H            0.612338983192     1.339326407531    -1.376356070193     1.007825032230
         H            2.240963983192    -0.006555592469     0.842878929807     1.007825032230
         H            2.624008983192    -0.006556592469    -0.872533070193     1.007825032230
         H           -1.134769016808    -0.006568592469    -1.576668070193     1.007825032230
         H           -2.403268016808     0.824829407531    -0.903593070193     1.007825032230
         H           -2.403286016808    -0.837931592469    -0.903583070193     1.007825032230

  Basis Set: AUG-CC-PVTZ
    Blend: AUG-CC-PVTZ
  Basis Set: (AUG-CC-PVTZ AUX)
    Blend: AUG-CC-PVTZ-JKFIT
	 Reference Energy          =    -289.7056835508766426 [Eh]
	 Singles Energy            =      -0.0000000000000000 [Eh]
	 Same-Spin Energy          =      -0.3077138910509809 [Eh]
	 Opposite-Spin Energy      =      -1.0941007789302255 [Eh]
	 Correlation Energy        =      -1.4018146699812064 [Eh]
	 Total Energy              =    -291.1074982208578490 [Eh]

	 ================> DF-SCS-MP2 Energies <==================
	-----------------------------------------------------------
	 SCS Same-Spin Scale       =       0.3333333333333333 [-]
	 SCS Opposite-Spin Scale   =       1.2000000000000000 [-]
	 SCS Same-Spin Energy      =      -0.1025712970169936 [Eh]
	 SCS Opposite-Spin Energy  =      -1.3129209347162705 [Eh]
	 SCS Correlation Energy    =      -1.4154922317332641 [Eh]
	 SCS Total Energy          =    -291.1211757826098960 [Eh]
	-----------------------------------------------------------

  Dipole Moment: [D]
     X:    -5.5584      Y:    -0.0776      Z:    -2.0620     Total:     5.9291

*** Psi4 exiting successfully. Buy a developer a beer!
