                               Psi4 1.4a3.dev225

  ==> Input File <==

--------------------------------------------------------------------------
#psi4
#
memory 32 gb

molecule  {
1 1
  N       -1.8084550     0.0000000    -0.7896910
  C       -1.0774430     0.0000000     0.5533100
  C       -0.2407120    -1.2715670     0.6435230
  C       -0.2407120     1.2715670     0.6435240
  C        0.9483640    -1.2633510    -0.3226430
  C        0.9483630     1.2633510    -0.3226440
  C        1.7921720     0.0000000    -0.1500480
  H       -1.8788710     0.0000000     1.2988220
  H       -0.8715790    -2.1591400     0.5029120
  H        0.1300900    -1.3254650     1.6735610
  H        0.1300910     1.3254640     1.6735620
  H       -0.8715790     2.1591400     0.5029130
  H        0.6294222    -1.3791641    -1.3700173
  H        1.5530020    -2.1580160    -0.1459610
  H        1.5530010     2.1580160    -0.1459620
  H        0.6104120     1.3458830    -1.3672040
  H        2.2390370     0.0000010     0.8520310
  H        2.6220820     0.0000000    -0.8633810
  H       -1.1366960    -0.0000120    -1.5675160
  H       -2.4051950     0.8313860    -0.8944410
  H       -2.4052130    -0.8313750    -0.8944310
units angstrom
no_reorient  #important for SAPT in psi4, default
symmetry c1  #important for SAPT in psi4, default
}

set PROPERTIES_ORIGIN ["COM"]
properties('MP2/aug-cc-pvtz', properties = ['dipole'])
--------------------------------------------------------------------------

    Molecular point group: c1
  Charge       = 1
  Multiplicity = 1
  Basis Set: AUG-CC-PVTZ
    Blend: AUG-CC-PVTZ
  Basis Set: (AUG-CC-PVTZ AUX)
    Blend: AUG-CC-PVTZ-JKFIT

    Orbital Energies [Eh]
    ---------------------

    Doubly Occupied:

       1A    -15.874445     2A    -11.466708     3A    -11.390706
       4A    -11.390438     5A    -11.371567     6A    -11.371221
       7A    -11.358023     8A     -1.492297     9A     -1.277430
      10A     -1.172565    11A     -1.170525    12A     -1.010075
      13A     -1.006546    14A     -0.950701    15A     -0.934202
      16A     -0.918662    17A     -0.815220    18A     -0.814242
      19A     -0.763371    20A     -0.755845    21A     -0.698845
      22A     -0.696070    23A     -0.686948    24A     -0.686102
      25A     -0.646474    26A     -0.610863    27A     -0.595328
      28A     -0.594812

  @DF-RHF Final Energy:  -289.70960489272790

   => Energetics <=

    Nuclear Repulsion Energy =            346.6267601127664761
    One-Electron Energy =               -1067.6322704291585524
    Two-Electron Energy =                 431.2959054236641236
    Total Energy =                       -289.7096048927278957
  Basis Set: (AUG-CC-PVTZ AUX)
    Blend: AUG-CC-PVTZ-RI
    Molecular point group: c1

    Geometry (in Angstrom), charge = 1, multiplicity = 1:

       Center              X                  Y                   Z               Mass
    ------------   -----------------  -----------------  -----------------  -----------------
         N           -1.809790105154     0.000335047989    -0.796994970529    14.003074004430
         C           -1.078778105154     0.000335047989     0.546006029471    12.000000000000
         C           -0.242047105154    -1.271231952011     0.636219029471    12.000000000000
         C           -0.242047105154     1.271902047989     0.636220029471    12.000000000000
         C            0.947028894846    -1.263015952011    -0.329946970529    12.000000000000
         C            0.947027894846     1.263686047989    -0.329947970529    12.000000000000
         C            1.790836894846     0.000335047989    -0.157351970529    12.000000000000
         H           -1.880206105154     0.000335047989     1.291518029471     1.007825032230
         H           -0.872914105154    -2.158804952011     0.495608029471     1.007825032230
         H            0.128754894846    -1.325129952011     1.666257029471     1.007825032230
         H            0.128755894846     1.325799047989     1.666258029471     1.007825032230
         H           -0.872914105154     2.159475047989     0.495609029471     1.007825032230
         H            0.628087094846    -1.378829052011    -1.377321270529     1.007825032230
         H            1.551666894846    -2.157680952011    -0.153264970529     1.007825032230
         H            1.551665894846     2.158351047989    -0.153265970529     1.007825032230
         H            0.609076894846     1.346218047989    -1.374507970529     1.007825032230
         H            2.237701894846     0.000336047989     0.844727029471     1.007825032230
         H            2.620746894846     0.000335047989    -0.870684970529     1.007825032230
         H           -1.138031105154     0.000323047989    -1.574819970529     1.007825032230
         H           -2.406530105154     0.831721047989    -0.901744970529     1.007825032230
         H           -2.406548105154    -0.831039952011    -0.901734970529     1.007825032230

  Basis Set: AUG-CC-PVTZ
    Blend: AUG-CC-PVTZ
  Basis Set: (AUG-CC-PVTZ AUX)
    Blend: AUG-CC-PVTZ-JKFIT
	 Reference Energy          =    -289.7096048927278957 [Eh]
	 Singles Energy            =      -0.0000000000000000 [Eh]
	 Same-Spin Energy          =      -0.3076288272454308 [Eh]
	 Opposite-Spin Energy      =      -1.0938586545874269 [Eh]
	 Correlation Energy        =      -1.4014874818328578 [Eh]
	 Total Energy              =    -291.1110923745607693 [Eh]

	 ================> DF-SCS-MP2 Energies <==================
	-----------------------------------------------------------
	 SCS Same-Spin Scale       =       0.3333333333333333 [-]
	 SCS Opposite-Spin Scale   =       1.2000000000000000 [-]
	 SCS Same-Spin Energy      =      -0.1025429424151436 [Eh]
	 SCS Opposite-Spin Energy  =      -1.3126303855049122 [Eh]
	 SCS Correlation Energy    =      -1.4151733279200558 [Eh]
	 SCS Total Energy          =    -291.1247782206479542 [Eh]
	-----------------------------------------------------------

  Dipole Moment: [D]
     X:    -5.5975      Y:    -0.0100      Z:    -2.0598     Total:     5.9644

*** Psi4 exiting successfully. Buy a developer a beer!
