                               Psi4 1.4a3.dev225

  ==> Input File <==

--------------------------------------------------------------------------
#psi4
#
memory 32 gb

molecule  {
1 1
  N       -1.8084550     0.0000000    -0.7896910
  C       -1.0774430     0.0000000     0.5533100
  C       -0.2407120    -1.2715670     0.6435230
  C       -0.2407120     1.2715670     0.6435240
  C        0.9483640    -1.2633510    -0.3226430
  C        0.9483630     1.2633510    -0.3226440
  C        1.7921720     0.0000000    -0.1500480
  H       -1.8788710     0.0000000     1.2988220
  H       -0.8715790    -2.1591400     0.5029120
  H        0.0962600    -1.3205476     1.5795857
  H        0.1300910     1.3254640     1.6735620
  H       -0.8715790     2.1591400     0.5029130
  H        0.6104140    -1.3458840    -1.3672040
  H        1.5530020    -2.1580160    -0.1459610
  H        1.5530010     2.1580160    -0.1459620
  H        0.6104120     1.3458830    -1.3672040
  H        2.2390370     0.0000010     0.8520310
  H        2.6220820     0.0000000    -0.8633810
  H       -1.1366960    -0.0000120    -1.5675160
  H       -2.4051950     0.8313860    -0.8944410
  H       -2.4052130    -0.8313750    -0.8944310
units angstrom
no_reorient  #important for SAPT in psi4, default
symmetry c1  #important for SAPT in psi4, default
}

set PROPERTIES_ORIGIN ["COM"]
properties('MP2/aug-cc-pvtz', properties = ['dipole'])
--------------------------------------------------------------------------

    Molecular point group: c1
  Charge       = 1
  Multiplicity = 1
  Basis Set: AUG-CC-PVTZ
    Blend: AUG-CC-PVTZ
  Basis Set: (AUG-CC-PVTZ AUX)
    Blend: AUG-CC-PVTZ-JKFIT

    Orbital Energies [Eh]
    ---------------------

    Doubly Occupied:

       1A    -15.874174     2A    -11.466372     3A    -11.390674
       4A    -11.378941     5A    -11.371698     6A    -11.371063
       7A    -11.357921     8A     -1.492045     9A     -1.279648
      10A     -1.176505    11A     -1.170776    12A     -1.013720
      13A     -1.007444    14A     -0.952563    15A     -0.936081
      16A     -0.920681    17A     -0.815474    18A     -0.813975
      19A     -0.765370    20A     -0.762164    21A     -0.700148
      22A     -0.695934    23A     -0.693278    24A     -0.685791
      25A     -0.651287    26A     -0.611452    27A     -0.595375
      28A     -0.594699

  @DF-RHF Final Energy:  -289.70401804612925

   => Energetics <=

    Nuclear Repulsion Energy =            347.2143527985741684
    One-Electron Energy =               -1068.7462355152413238
    Two-Electron Energy =                 431.8278646705379060
    Total Energy =                       -289.7040180461292493
  Basis Set: (AUG-CC-PVTZ AUX)
    Blend: AUG-CC-PVTZ-RI
    Molecular point group: c1

    Geometry (in Angstrom), charge = 1, multiplicity = 1:

       Center              X                  Y                   Z               Mass
    ------------   -----------------  -----------------  -----------------  -----------------
         N           -1.809258187617    -0.000049482902    -0.796077250650    14.003074004430
         C           -1.078246187617    -0.000049482902     0.546923749350    12.000000000000
         C           -0.241515187617    -1.271616482902     0.637136749350    12.000000000000
         C           -0.241515187617     1.271517517098     0.637137749350    12.000000000000
         C            0.947560812383    -1.263400482902    -0.329029250650    12.000000000000
         C            0.947559812383     1.263301517098    -0.329030250650    12.000000000000
         C            1.791368812383    -0.000049482902    -0.156434250650    12.000000000000
         H           -1.879674187617    -0.000049482902     1.292435749350     1.007825032230
         H           -0.872382187617    -2.159189482902     0.496525749350     1.007825032230
         H            0.095456812383    -1.320597082902     1.573199449350     1.007825032230
         H            0.129287812383     1.325414517098     1.667175749350     1.007825032230
         H           -0.872382187617     2.159090517098     0.496526749350     1.007825032230
         H            0.609610812383    -1.345933482902    -1.373590250650     1.007825032230
         H            1.552198812383    -2.158065482902    -0.152347250650     1.007825032230
         H            1.552197812383     2.157966517098    -0.152348250650     1.007825032230
         H            0.609608812383     1.345833517098    -1.373590250650     1.007825032230
         H            2.238233812383    -0.000048482902     0.845644749350     1.007825032230
         H            2.621278812383    -0.000049482902    -0.869767250650     1.007825032230
         H           -1.137499187617    -0.000061482902    -1.573902250650     1.007825032230
         H           -2.405998187617     0.831336517098    -0.900827250650     1.007825032230
         H           -2.406016187617    -0.831424482902    -0.900817250650     1.007825032230

  Basis Set: AUG-CC-PVTZ
    Blend: AUG-CC-PVTZ
  Basis Set: (AUG-CC-PVTZ AUX)
    Blend: AUG-CC-PVTZ-JKFIT
	 Reference Energy          =    -289.7040180461292493 [Eh]
	 Singles Energy            =      -0.0000000000000000 [Eh]
	 Same-Spin Energy          =      -0.3075453886053178 [Eh]
	 Opposite-Spin Energy      =      -1.0933060961220447 [Eh]
	 Correlation Energy        =      -1.4008514847273625 [Eh]
	 Total Energy              =    -291.1048695308566039 [Eh]

	 ================> DF-SCS-MP2 Energies <==================
	-----------------------------------------------------------
	 SCS Same-Spin Scale       =       0.3333333333333333 [-]
	 SCS Opposite-Spin Scale   =       1.2000000000000000 [-]
	 SCS Same-Spin Energy      =      -0.1025151295351059 [Eh]
	 SCS Opposite-Spin Energy  =      -1.3119673153464535 [Eh]
	 SCS Correlation Energy    =      -1.4144824448815594 [Eh]
	 SCS Total Energy          =    -291.1185004910108205 [Eh]
	-----------------------------------------------------------

  Dipole Moment: [D]
     X:    -5.6033      Y:     0.0059      Z:    -2.0363     Total:     5.9618

*** Psi4 exiting successfully. Buy a developer a beer!
