                               Psi4 1.4a3.dev225

  ==> Input File <==

--------------------------------------------------------------------------
#psi4
#
memory 32 gb

molecule  {
1 1
  N       -1.8084550     0.0000000    -0.7896910
  C       -1.0774430     0.0000000     0.5533100
  C       -0.2407120    -1.2715670     0.6435230
  C       -0.2407120     1.2715670     0.6435240
  C        0.9483640    -1.2633510    -0.3226430
  C        0.9483630     1.2633510    -0.3226440
  C        1.7921720     0.0000000    -0.1500480
  H       -1.8788710     0.0000000     1.2988220
  H       -0.8715790    -2.1591400     0.5029120
  H        0.1300900    -1.3254650     1.6735610
  H        0.1300910     1.3254640     1.6735620
  H       -0.8715790     2.1591400     0.5029130
  H        0.6488190    -1.4123032    -1.3715546
  H        1.5530020    -2.1580160    -0.1459610
  H        1.5530010     2.1580160    -0.1459620
  H        0.6104120     1.3458830    -1.3672040
  H        2.2390370     0.0000010     0.8520310
  H        2.6220820     0.0000000    -0.8633810
  H       -1.1366960    -0.0000120    -1.5675160
  H       -2.4051950     0.8313860    -0.8944410
  H       -2.4052130    -0.8313750    -0.8944310
units angstrom
no_reorient  #important for SAPT in psi4, default
symmetry c1  #important for SAPT in psi4, default
}

set PROPERTIES_ORIGIN ["COM"]
properties('MP2/aug-cc-pvtz', properties = ['dipole'])
--------------------------------------------------------------------------

    Molecular point group: c1
  Charge       = 1
  Multiplicity = 1
  Basis Set: AUG-CC-PVTZ
    Blend: AUG-CC-PVTZ
  Basis Set: (AUG-CC-PVTZ AUX)
    Blend: AUG-CC-PVTZ-JKFIT

    Orbital Energies [Eh]
    ---------------------

    Doubly Occupied:

       1A    -15.874348     2A    -11.466639     3A    -11.390924
       4A    -11.390385     5A    -11.371471     6A    -11.370787
       7A    -11.358176     8A     -1.492171     9A     -1.277248
      10A     -1.172474    11A     -1.170385    12A     -1.010022
      13A     -1.006792    14A     -0.950450    15A     -0.934122
      16A     -0.918949    17A     -0.815003    18A     -0.814527
      19A     -0.762845    20A     -0.755206    21A     -0.699027
      22A     -0.696018    23A     -0.686810    24A     -0.686108
      25A     -0.646224    26A     -0.610735    27A     -0.595077
      28A     -0.594523

  @DF-RHF Final Energy:  -289.70914734286191

   => Energetics <=

    Nuclear Repulsion Energy =            346.5579965247794121
    One-Electron Energy =               -1067.4993944517457294
    Two-Electron Energy =                 431.2322505841044631
    Total Energy =                       -289.7091473428619111
  Basis Set: (AUG-CC-PVTZ AUX)
    Blend: AUG-CC-PVTZ-RI
    Molecular point group: c1

    Geometry (in Angstrom), charge = 1, multiplicity = 1:

       Center              X                  Y                   Z               Mass
    ------------   -----------------  -----------------  -----------------  -----------------
         N           -1.809985371043     0.000668656410    -0.796979494664    14.003074004430
         C           -1.078973371043     0.000668656410     0.546021505336    12.000000000000
         C           -0.242242371043    -1.270898343590     0.636234505336    12.000000000000
         C           -0.242242371043     1.272235656410     0.636235505336    12.000000000000
         C            0.946833628957    -1.262682343590    -0.329931494664    12.000000000000
         C            0.946832628957     1.264019656410    -0.329932494664    12.000000000000
         C            1.790641628957     0.000668656410    -0.157336494664    12.000000000000
         H           -1.880401371043     0.000668656410     1.291533505336     1.007825032230
         H           -0.873109371043    -2.158471343590     0.495623505336     1.007825032230
         H            0.128559628957    -1.324796343590     1.666272505336     1.007825032230
         H            0.128560628957     1.326132656410     1.666273505336     1.007825032230
         H           -0.873109371043     2.159808656410     0.495624505336     1.007825032230
         H            0.647288628957    -1.411634543590    -1.378843094664     1.007825032230
         H            1.551471628957    -2.157347343590    -0.153249494664     1.007825032230
         H            1.551470628957     2.158684656410    -0.153250494664     1.007825032230
         H            0.608881628957     1.346551656410    -1.374492494664     1.007825032230
         H            2.237506628957     0.000669656410     0.844742505336     1.007825032230
         H            2.620551628957     0.000668656410    -0.870669494664     1.007825032230
         H           -1.138226371043     0.000656656410    -1.574804494664     1.007825032230
         H           -2.406725371043     0.832054656410    -0.901729494664     1.007825032230
         H           -2.406743371043    -0.830706343590    -0.901719494664     1.007825032230

  Basis Set: AUG-CC-PVTZ
    Blend: AUG-CC-PVTZ
  Basis Set: (AUG-CC-PVTZ AUX)
    Blend: AUG-CC-PVTZ-JKFIT
	 Reference Energy          =    -289.7091473428619111 [Eh]
	 Singles Energy            =      -0.0000000000000000 [Eh]
	 Same-Spin Energy          =      -0.3076385487894651 [Eh]
	 Opposite-Spin Energy      =      -1.0938451211873621 [Eh]
	 Correlation Energy        =      -1.4014836699768272 [Eh]
	 Total Energy              =    -291.1106310128387236 [Eh]

	 ================> DF-SCS-MP2 Energies <==================
	-----------------------------------------------------------
	 SCS Same-Spin Scale       =       0.3333333333333333 [-]
	 SCS Opposite-Spin Scale   =       1.2000000000000000 [-]
	 SCS Same-Spin Energy      =      -0.1025461829298217 [Eh]
	 SCS Opposite-Spin Energy  =      -1.3126141454248346 [Eh]
	 SCS Correlation Energy    =      -1.4151603283546563 [Eh]
	 SCS Total Energy          =    -291.1243076712165703 [Eh]
	-----------------------------------------------------------

  Dipole Moment: [D]
     X:    -5.5948      Y:    -0.0208      Z:    -2.0679     Total:     5.9648

*** Psi4 exiting successfully. Buy a developer a beer!
