                               Psi4 1.4a3.dev225

  ==> Input File <==

--------------------------------------------------------------------------
#psi4
#
memory 32 gb

molecule  {
1 1
  N       -1.8084550     0.0000000    -0.7896910
  C       -1.0774430     0.0000000     0.5533100
  C       -0.2407120    -1.2715670     0.6435230
  C       -0.2407120     1.2715670     0.6435240
  C        0.9483640    -1.2633510    -0.3226430
  C        0.9483630     1.2633510    -0.3226440
  C        1.7921720     0.0000000    -0.1500480
  H       -1.8788710     0.0000000     1.2988220
  H       -0.8715790    -2.1591400     0.5029120
  H        0.1300900    -1.3254650     1.6735610
  H        0.1300910     1.3254640     1.6735620
  H       -0.8715790     2.1591400     0.5029130
  H        0.6104140    -1.3458840    -1.3672040
  H        1.5530020    -2.1580160    -0.1459610
  H        1.5530010     2.1580160    -0.1459620
  H        0.6104120     1.3458830    -1.3672040
  H        2.2390370     0.0000010     0.8520310
  H        2.6220820     0.0000000    -0.8633810
  H       -1.1366960    -0.0000120    -1.5675160
  H       -2.4051950     0.8313860    -0.8944410
  H       -2.2891940    -0.6697429    -0.8740679
units angstrom
no_reorient  #important for SAPT in psi4, default
symmetry c1  #important for SAPT in psi4, default
}

set PROPERTIES_ORIGIN ["COM"]
properties('MP2/aug-cc-pvtz', properties = ['dipole'])
--------------------------------------------------------------------------

    Molecular point group: c1
  Charge       = 1
  Multiplicity = 1
  Basis Set: AUG-CC-PVTZ
    Blend: AUG-CC-PVTZ
  Basis Set: (AUG-CC-PVTZ AUX)
    Blend: AUG-CC-PVTZ-JKFIT

    Orbital Energies [Eh]
    ---------------------

    Doubly Occupied:

       1A    -15.858782     2A    -11.469029     3A    -11.391708
       4A    -11.391696     5A    -11.372792     6A    -11.372673
       7A    -11.358779     8A     -1.534471     9A     -1.284305
      10A     -1.176201    11A     -1.173730    12A     -1.022421
      13A     -1.012462    14A     -0.989066    15A     -0.950102
      16A     -0.920745    17A     -0.819168    18A     -0.816540
      19A     -0.765568    20A     -0.759377    21A     -0.700377
      22A     -0.697749    23A     -0.689091    24A     -0.687537
      25A     -0.647937    26A     -0.612149    27A     -0.596670
      28A     -0.596082

  @DF-RHF Final Energy:  -289.66964530754979

   => Energetics <=

    Nuclear Repulsion Energy =            347.9639694857427230
    One-Electron Energy =               -1069.9328203869611116
    Two-Electron Energy =                 432.2992055936686029
    Total Energy =                       -289.6696453075497857
  Basis Set: (AUG-CC-PVTZ AUX)
    Blend: AUG-CC-PVTZ-RI
    Molecular point group: c1

    Geometry (in Angstrom), charge = 1, multiplicity = 1:

       Center              X                  Y                   Z               Mass
    ------------   -----------------  -----------------  -----------------  -----------------
         N           -1.810766704391    -0.001627116077    -0.797228285320    14.003074004430
         C           -1.079754704391    -0.001627116077     0.545772714680    12.000000000000
         C           -0.243023704391    -1.273194116077     0.635985714680    12.000000000000
         C           -0.243023704391     1.269939883923     0.635986714680    12.000000000000
         C            0.946052295609    -1.264978116077    -0.330180285320    12.000000000000
         C            0.946051295609     1.261723883923    -0.330181285320    12.000000000000
         C            1.789860295609    -0.001627116077    -0.157585285320    12.000000000000
         H           -1.881182704391    -0.001627116077     1.291284714680     1.007825032230
         H           -0.873890704391    -2.160767116077     0.495374714680     1.007825032230
         H            0.127778295609    -1.327092116077     1.666023714680     1.007825032230
         H            0.127779295609     1.323836883923     1.666024714680     1.007825032230
         H           -0.873890704391     2.157512883923     0.495375714680     1.007825032230
         H            0.608102295609    -1.347511116077    -1.374741285320     1.007825032230
         H            1.550690295609    -2.159643116077    -0.153498285320     1.007825032230
         H            1.550689295609     2.156388883923    -0.153499285320     1.007825032230
         H            0.608100295609     1.344255883923    -1.374741285320     1.007825032230
         H            2.236725295609    -0.001626116077     0.844493714680     1.007825032230
         H            2.619770295609    -0.001627116077    -0.870918285320     1.007825032230
         H           -1.139007704391    -0.001639116077    -1.575053285320     1.007825032230
         H           -2.407506704391     0.829758883923    -0.901978285320     1.007825032230
         H           -2.291505704391    -0.671370016077    -0.881605185320     1.007825032230

  Basis Set: AUG-CC-PVTZ
    Blend: AUG-CC-PVTZ
  Basis Set: (AUG-CC-PVTZ AUX)
    Blend: AUG-CC-PVTZ-JKFIT
	 Reference Energy          =    -289.6696453075497857 [Eh]
	 Singles Energy            =      -0.0000000000000000 [Eh]
	 Same-Spin Energy          =      -0.3066592297063197 [Eh]
	 Opposite-Spin Energy      =      -1.0910638190304287 [Eh]
	 Correlation Energy        =      -1.3977230487367485 [Eh]
	 Total Energy              =    -291.0673683562865222 [Eh]

	 ================> DF-SCS-MP2 Energies <==================
	-----------------------------------------------------------
	 SCS Same-Spin Scale       =       0.3333333333333333 [-]
	 SCS Opposite-Spin Scale   =       1.2000000000000000 [-]
	 SCS Same-Spin Energy      =      -0.1022197432354399 [Eh]
	 SCS Opposite-Spin Energy  =      -1.3092765828365145 [Eh]
	 SCS Correlation Energy    =      -1.4114963260719544 [Eh]
	 SCS Total Energy          =    -291.0811416336217121 [Eh]
	-----------------------------------------------------------

  Dipole Moment: [D]
     X:    -5.4310      Y:     0.1846      Z:    -2.0144     Total:     5.7955

*** Psi4 exiting successfully. Buy a developer a beer!
