                               Psi4 1.4a3.dev225

  ==> Input File <==

--------------------------------------------------------------------------
#psi4
#
memory 32 gb

molecule  {
1 1
  N       -1.8084550     0.0000000    -0.7896910
  C       -1.0774430     0.0000000     0.5533100
  C       -0.2407120    -1.2715670     0.6435230
  C       -0.2407120     1.2715670     0.6435240
  C        0.9483640    -1.2633510    -0.3226430
  C        0.9483630     1.2633510    -0.3226440
  C        1.7921720     0.0000000    -0.1500480
  H       -1.9520898     0.0000000     1.3669323
  H       -0.8715790    -2.1591400     0.5029120
  H        0.1300900    -1.3254650     1.6735610
  H        0.1300910     1.3254640     1.6735620
  H       -0.8715790     2.1591400     0.5029130
  H        0.6104140    -1.3458840    -1.3672040
  H        1.5530020    -2.1580160    -0.1459610
  H        1.5530010     2.1580160    -0.1459620
  H        0.6104120     1.3458830    -1.3672040
  H        2.2390370     0.0000010     0.8520310
  H        2.6220820     0.0000000    -0.8633810
  H       -1.1366960    -0.0000120    -1.5675160
  H       -2.4051950     0.8313860    -0.8944410
  H       -2.4052130    -0.8313750    -0.8944310
units angstrom
no_reorient  #important for SAPT in psi4, default
symmetry c1  #important for SAPT in psi4, default
}

set PROPERTIES_ORIGIN ["COM"]
properties('MP2/aug-cc-pvtz', properties = ['dipole'])
--------------------------------------------------------------------------

    Molecular point group: c1
  Charge       = 1
  Multiplicity = 1
  Basis Set: AUG-CC-PVTZ
    Blend: AUG-CC-PVTZ
  Basis Set: (AUG-CC-PVTZ AUX)
    Blend: AUG-CC-PVTZ-JKFIT

    Orbital Energies [Eh]
    ---------------------

    Doubly Occupied:

       1A    -15.875102     2A    -11.477238     3A    -11.391053
       4A    -11.391041     5A    -11.372197     6A    -11.372194
       7A    -11.358239     8A     -1.492164     9A     -1.276998
      10A     -1.173129    11A     -1.167159    12A     -1.006607
      13A     -1.004259    14A     -0.950886    15A     -0.934422
      16A     -0.918313    17A     -0.815689    18A     -0.801306
      19A     -0.762251    20A     -0.756743    21A     -0.696763
      22A     -0.692532    23A     -0.687328    24A     -0.686335
      25A     -0.646894    26A     -0.611133    27A     -0.596037
      28A     -0.592754

  @DF-RHF Final Energy:  -289.70277259529024

   => Energetics <=

    Nuclear Repulsion Energy =            346.1859230470386137
    One-Electron Energy =               -1066.7638546315040458
    Two-Electron Energy =                 430.8751589891751905
    Total Energy =                       -289.7027725952902415
  Basis Set: (AUG-CC-PVTZ AUX)
    Blend: AUG-CC-PVTZ-RI
    Molecular point group: c1

    Geometry (in Angstrom), charge = 1, multiplicity = 1:

       Center              X                  Y                   Z               Mass
    ------------   -----------------  -----------------  -----------------  -----------------
         N           -1.808861664013     0.000000020134    -0.797708952206    14.003074004430
         C           -1.077849664013     0.000000020134     0.545292047794    12.000000000000
         C           -0.241118664013    -1.271566979866     0.635505047794    12.000000000000
         C           -0.241118664013     1.271567020134     0.635506047794    12.000000000000
         C            0.947957335987    -1.263350979866    -0.330660952206    12.000000000000
         C            0.947956335987     1.263351020134    -0.330661952206    12.000000000000
         C            1.791765335987     0.000000020134    -0.158065952206    12.000000000000
         H           -1.952496464013     0.000000020134     1.358914347794     1.007825032230
         H           -0.871985664013    -2.159139979866     0.494894047794     1.007825032230
         H            0.129683335987    -1.325464979866     1.665543047794     1.007825032230
         H            0.129684335987     1.325464020134     1.665544047794     1.007825032230
         H           -0.871985664013     2.159140020134     0.494895047794     1.007825032230
         H            0.610007335987    -1.345883979866    -1.375221952206     1.007825032230
         H            1.552595335987    -2.158015979866    -0.153978952206     1.007825032230
         H            1.552594335987     2.158016020134    -0.153979952206     1.007825032230
         H            0.610005335987     1.345883020134    -1.375221952206     1.007825032230
         H            2.238630335987     0.000001020134     0.844013047794     1.007825032230
         H            2.621675335987     0.000000020134    -0.871398952206     1.007825032230
         H           -1.137102664013    -0.000011979866    -1.575533952206     1.007825032230
         H           -2.405601664013     0.831386020134    -0.902458952206     1.007825032230
         H           -2.405619664013    -0.831374979866    -0.902448952206     1.007825032230

  Basis Set: AUG-CC-PVTZ
    Blend: AUG-CC-PVTZ
  Basis Set: (AUG-CC-PVTZ AUX)
    Blend: AUG-CC-PVTZ-JKFIT
	 Reference Energy          =    -289.7027725952902415 [Eh]
	 Singles Energy            =      -0.0000000000000000 [Eh]
	 Same-Spin Energy          =      -0.3078457686104198 [Eh]
	 Opposite-Spin Energy      =      -1.0948812294351773 [Eh]
	 Correlation Energy        =      -1.4027269980455972 [Eh]
	 Total Energy              =    -291.1054995933358214 [Eh]

	 ================> DF-SCS-MP2 Energies <==================
	-----------------------------------------------------------
	 SCS Same-Spin Scale       =       0.3333333333333333 [-]
	 SCS Opposite-Spin Scale   =       1.2000000000000000 [-]
	 SCS Same-Spin Energy      =      -0.1026152562034733 [Eh]
	 SCS Opposite-Spin Energy  =      -1.3138574753222128 [Eh]
	 SCS Correlation Energy    =      -1.4164727315256860 [Eh]
	 SCS Total Energy          =    -291.1192453268159284 [Eh]
	-----------------------------------------------------------

  Dipole Moment: [D]
     X:    -5.5649      Y:    -0.0000      Z:    -2.0622     Total:     5.9347

*** Psi4 exiting successfully. Buy a developer a beer!
