                               Psi4 1.4a3.dev225

  ==> Input File <==

--------------------------------------------------------------------------
#psi4
#
memory 32 gb

molecule  {
1 1
  N       -1.8084550     0.0000000    -0.7896910
  C       -1.0774430     0.0000000     0.5533100
  C       -0.2407120    -1.2715670     0.6435230
  C       -0.1830675     1.4101636     0.6999794
  C        0.9483640    -1.2633510    -0.3226430
  C        0.9483630     1.2633510    -0.3226440
  C        1.7921720     0.0000000    -0.1500480
  H       -1.8788710     0.0000000     1.2988220
  H       -0.8715790    -2.1591400     0.5029120
  H        0.1300900    -1.3254650     1.6735610
  H        0.1300910     1.3254640     1.6735620
  H       -0.8715790     2.1591400     0.5029130
  H        0.6104140    -1.3458840    -1.3672040
  H        1.5530020    -2.1580160    -0.1459610
  H        1.5530010     2.1580160    -0.1459620
  H        0.6104120     1.3458830    -1.3672040
  H        2.2390370     0.0000010     0.8520310
  H        2.6220820     0.0000000    -0.8633810
  H       -1.1366960    -0.0000120    -1.5675160
  H       -2.4051950     0.8313860    -0.8944410
  H       -2.4052130    -0.8313750    -0.8944310
units angstrom
no_reorient  #important for SAPT in psi4, default
symmetry c1  #important for SAPT in psi4, default
}

set PROPERTIES_ORIGIN ["COM"]
properties('MP2/aug-cc-pvtz', properties = ['dipole'])
--------------------------------------------------------------------------

    Molecular point group: c1
  Charge       = 1
  Multiplicity = 1
  Basis Set: AUG-CC-PVTZ
    Blend: AUG-CC-PVTZ
  Basis Set: (AUG-CC-PVTZ AUX)
    Blend: AUG-CC-PVTZ-JKFIT

    Orbital Energies [Eh]
    ---------------------

    Doubly Occupied:

       1A    -15.873768     2A    -11.464922     3A    -11.392216
       4A    -11.389165     5A    -11.372422     6A    -11.370671
       7A    -11.359504     8A     -1.488165     9A     -1.267923
      10A     -1.175231    11A     -1.159936    12A     -1.016047
      13A     -1.001098    14A     -0.948831    15A     -0.934829
      16A     -0.918763    17A     -0.812605    18A     -0.806108
      19A     -0.775260    20A     -0.761884    21A     -0.707525
      22A     -0.695985    23A     -0.686551    24A     -0.665413
      25A     -0.652000    26A     -0.613304    27A     -0.604705
      28A     -0.574222

  @DF-RHF Final Energy:  -289.68976367926746

   => Energetics <=

    Nuclear Repulsion Energy =            344.3701271913540154
    One-Electron Energy =               -1063.1416763459703816
    Two-Electron Energy =                 429.0817854753489655
    Total Energy =                       -289.6897636792674575
  Basis Set: (AUG-CC-PVTZ AUX)
    Blend: AUG-CC-PVTZ-RI
    Molecular point group: c1

    Geometry (in Angstrom), charge = 1, multiplicity = 1:

       Center              X                  Y                   Z               Mass
    ------------   -----------------  -----------------  -----------------  -----------------
         N           -1.816508309415    -0.016612861698    -0.803790318447    14.003074004430
         C           -1.085496309415    -0.016612861698     0.539210681553    12.000000000000
         C           -0.248765309415    -1.288179861698     0.629423681553    12.000000000000
         C           -0.191120809415     1.393550738302     0.685880081553    12.000000000000
         C            0.940310690585    -1.279963861698    -0.336742318447    12.000000000000
         C            0.940309690585     1.246738138302    -0.336743318447    12.000000000000
         C            1.784118690585    -0.016612861698    -0.164147318447    12.000000000000
         H           -1.886924309415    -0.016612861698     1.284722681553     1.007825032230
         H           -0.879632309415    -2.175752861698     0.488812681553     1.007825032230
         H            0.122036690585    -1.342077861698     1.659461681553     1.007825032230
         H            0.122037690585     1.308851138302     1.659462681553     1.007825032230
         H           -0.879632309415     2.142527138302     0.488813681553     1.007825032230
         H            0.602360690585    -1.362496861698    -1.381303318447     1.007825032230
         H            1.544948690585    -2.174628861698    -0.160060318447     1.007825032230
         H            1.544947690585     2.141403138302    -0.160061318447     1.007825032230
         H            0.602358690585     1.329270138302    -1.381303318447     1.007825032230
         H            2.230983690585    -0.016611861698     0.837931681553     1.007825032230
         H            2.614028690585    -0.016612861698    -0.877480318447     1.007825032230
         H           -1.144749309415    -0.016624861698    -1.581615318447     1.007825032230
         H           -2.413248309415     0.814773138302    -0.908540318447     1.007825032230
         H           -2.413266309415    -0.847987861698    -0.908530318447     1.007825032230

  Basis Set: AUG-CC-PVTZ
    Blend: AUG-CC-PVTZ
  Basis Set: (AUG-CC-PVTZ AUX)
    Blend: AUG-CC-PVTZ-JKFIT
	 Reference Energy          =    -289.6897636792674575 [Eh]
	 Singles Energy            =      -0.0000000000000000 [Eh]
	 Same-Spin Energy          =      -0.3071910409386135 [Eh]
	 Opposite-Spin Energy      =      -1.0943157200337124 [Eh]
	 Correlation Energy        =      -1.4015067609723260 [Eh]
	 Total Energy              =    -291.0912704402397821 [Eh]

	 ================> DF-SCS-MP2 Energies <==================
	-----------------------------------------------------------
	 SCS Same-Spin Scale       =       0.3333333333333333 [-]
	 SCS Opposite-Spin Scale   =       1.2000000000000000 [-]
	 SCS Same-Spin Energy      =      -0.1023970136462045 [Eh]
	 SCS Opposite-Spin Energy  =      -1.3131788640404547 [Eh]
	 SCS Correlation Energy    =      -1.4155758776866592 [Eh]
	 SCS Total Energy          =    -291.1053395569541067 [Eh]
	-----------------------------------------------------------

  Dipole Moment: [D]
     X:    -5.6029      Y:    -0.0074      Z:    -2.0962     Total:     5.9822

*** Psi4 exiting successfully. Buy a developer a beer!
