                               Psi4 1.4a3.dev225

  ==> Input File <==

--------------------------------------------------------------------------
#psi4
#
memory 32 gb

molecule  {
1 1
  N       -1.8084550     0.0000000    -0.7896910
  C       -1.0774430     0.0000000     0.5533100
  C       -0.2407120    -1.2715670     0.6435230
  C       -0.2407120     1.2715670     0.6435240
  C        0.9483640    -1.2633510    -0.3226430
  C        0.9483630     1.2633510    -0.3226440
  C        1.7921720     0.0000000    -0.1500480
  H       -1.8788710     0.0000000     1.2988220
  H       -0.8715790    -2.1591400     0.5029120
  H        0.1300900    -1.3254650     1.6735610
  H        0.1300910     1.3254640     1.6735620
  H       -0.8715790     2.1591400     0.5029130
  H        0.6010629    -1.3292037    -1.3653198
  H        1.5530020    -2.1580160    -0.1459610
  H        1.5530010     2.1580160    -0.1459620
  H        0.6104120     1.3458830    -1.3672040
  H        2.2390370     0.0000010     0.8520310
  H        2.6220820     0.0000000    -0.8633810
  H       -1.1366960    -0.0000120    -1.5675160
  H       -2.4051950     0.8313860    -0.8944410
  H       -2.4052130    -0.8313750    -0.8944310
units angstrom
no_reorient  #important for SAPT in psi4, default
symmetry c1  #important for SAPT in psi4, default
}

set PROPERTIES_ORIGIN ["COM"]
properties('MP2/aug-cc-pvtz', properties = ['dipole'])
--------------------------------------------------------------------------

    Molecular point group: c1
  Charge       = 1
  Multiplicity = 1
  Basis Set: AUG-CC-PVTZ
    Blend: AUG-CC-PVTZ
  Basis Set: (AUG-CC-PVTZ AUX)
    Blend: AUG-CC-PVTZ-JKFIT

    Orbital Energies [Eh]
    ---------------------

    Doubly Occupied:

       1A    -15.874586     2A    -11.466813     3A    -11.390520
       4A    -11.390387     5A    -11.371887     6A    -11.371712
       7A    -11.357809     8A     -1.492489     9A     -1.277731
      10A     -1.172733    11A     -1.170748    12A     -1.010167
      13A     -1.006212    14A     -0.951109    15A     -0.934323
      16A     -0.918255    17A     -0.815674    18A     -0.813762
      19A     -0.764454    20A     -0.756559    21A     -0.698676
      22A     -0.696209    23A     -0.687179    24A     -0.686193
      25A     -0.646538    26A     -0.611090    27A     -0.595591
      28A     -0.594977

  @DF-RHF Final Energy:  -289.70971545118931

   => Energetics <=

    Nuclear Repulsion Energy =            346.7348709678391288
    One-Electron Energy =               -1067.8404061266396639
    Two-Electron Energy =                 431.3958197076112242
    Total Energy =                       -289.7097154511893109
  Basis Set: (AUG-CC-PVTZ AUX)
    Blend: AUG-CC-PVTZ-RI
    Molecular point group: c1

    Geometry (in Angstrom), charge = 1, multiplicity = 1:

       Center              X                  Y                   Z               Mass
    ------------   -----------------  -----------------  -----------------  -----------------
         N           -1.809504614562    -0.000167898987    -0.797042259851    14.003074004430
         C           -1.078492614562    -0.000167898987     0.545958740149    12.000000000000
         C           -0.241761614562    -1.271734898987     0.636171740149    12.000000000000
         C           -0.241761614562     1.271399101013     0.636172740149    12.000000000000
         C            0.947314385438    -1.263518898987    -0.329994259851    12.000000000000
         C            0.947313385438     1.263183101013    -0.329995259851    12.000000000000
         C            1.791122385438    -0.000167898987    -0.157399259851    12.000000000000
         H           -1.879920614562    -0.000167898987     1.291470740149     1.007825032230
         H           -0.872628614562    -2.159307898987     0.495560740149     1.007825032230
         H            0.129040385438    -1.325632898987     1.666209740149     1.007825032230
         H            0.129041385438     1.325296101013     1.666210740149     1.007825032230
         H           -0.872628614562     2.158972101013     0.495561740149     1.007825032230
         H            0.600013285438    -1.329371598987    -1.372671059851     1.007825032230
         H            1.551952385438    -2.158183898987    -0.153312259851     1.007825032230
         H            1.551951385438     2.157848101013    -0.153313259851     1.007825032230
         H            0.609362385438     1.345715101013    -1.374555259851     1.007825032230
         H            2.237987385438    -0.000166898987     0.844679740149     1.007825032230
         H            2.621032385438    -0.000167898987    -0.870732259851     1.007825032230
         H           -1.137745614562    -0.000179898987    -1.574867259851     1.007825032230
         H           -2.406244614562     0.831218101013    -0.901792259851     1.007825032230
         H           -2.406262614562    -0.831542898987    -0.901782259851     1.007825032230

  Basis Set: AUG-CC-PVTZ
    Blend: AUG-CC-PVTZ
  Basis Set: (AUG-CC-PVTZ AUX)
    Blend: AUG-CC-PVTZ-JKFIT
	 Reference Energy          =    -289.7097154511893109 [Eh]
	 Singles Energy            =      -0.0000000000000000 [Eh]
	 Same-Spin Energy          =      -0.3076455122314906 [Eh]
	 Opposite-Spin Energy      =      -1.0939279284520200 [Eh]
	 Correlation Energy        =      -1.4015734406835105 [Eh]
	 Total Energy              =    -291.1112888918728459 [Eh]

	 ================> DF-SCS-MP2 Energies <==================
	-----------------------------------------------------------
	 SCS Same-Spin Scale       =       0.3333333333333333 [-]
	 SCS Opposite-Spin Scale   =       1.2000000000000000 [-]
	 SCS Same-Spin Energy      =      -0.1025485040771635 [Eh]
	 SCS Opposite-Spin Energy  =      -1.3127135141424240 [Eh]
	 SCS Correlation Energy    =      -1.4152620182195874 [Eh]
	 SCS Total Energy          =    -291.1249774694089183 [Eh]
	-----------------------------------------------------------

  Dipole Moment: [D]
     X:    -5.5999      Y:     0.0047      Z:    -2.0465     Total:     5.9622

*** Psi4 exiting successfully. Buy a developer a beer!
