                               Psi4 1.4a3.dev225

  ==> Input File <==

--------------------------------------------------------------------------
#psi4
#
memory 32 gb

molecule  {
1 1
  N       -1.8084550     0.0000000    -0.7896910
  C       -1.0774430     0.0000000     0.5533100
  C       -0.2407120    -1.2715670     0.6435230
  C       -0.2490678     1.2484177     0.6330672
  C        0.9483640    -1.2633510    -0.3226430
  C        0.9483630     1.2633510    -0.3226440
  C        1.7921720     0.0000000    -0.1500480
  H       -1.8788710     0.0000000     1.2988220
  H       -0.8715790    -2.1591400     0.5029120
  H        0.1300900    -1.3254650     1.6735610
  H        0.1300910     1.3254640     1.6735620
  H       -0.8715790     2.1591400     0.5029130
  H        0.6104140    -1.3458840    -1.3672040
  H        1.5530020    -2.1580160    -0.1459610
  H        1.5530010     2.1580160    -0.1459620
  H        0.6104120     1.3458830    -1.3672040
  H        2.2390370     0.0000010     0.8520310
  H        2.6220820     0.0000000    -0.8633810
  H       -1.1366960    -0.0000120    -1.5675160
  H       -2.4051950     0.8313860    -0.8944410
  H       -2.4052130    -0.8313750    -0.8944310
units angstrom
no_reorient  #important for SAPT in psi4, default
symmetry c1  #important for SAPT in psi4, default
}

set PROPERTIES_ORIGIN ["COM"]
properties('MP2/aug-cc-pvtz', properties = ['dipole'])
--------------------------------------------------------------------------

    Molecular point group: c1
  Charge       = 1
  Multiplicity = 1
  Basis Set: AUG-CC-PVTZ
    Blend: AUG-CC-PVTZ
  Basis Set: (AUG-CC-PVTZ AUX)
    Blend: AUG-CC-PVTZ-JKFIT

    Orbital Energies [Eh]
    ---------------------

    Doubly Occupied:

       1A    -15.874477     2A    -11.466597     3A    -11.390989
       4A    -11.390643     5A    -11.371909     6A    -11.371836
       7A    -11.357687     8A     -1.493119     9A     -1.279793
      10A     -1.173372    11A     -1.171784    12A     -1.010077
      13A     -1.006549    14A     -0.951183    15A     -0.933989
      16A     -0.918435    17A     -0.816071    18A     -0.815567
      19A     -0.763309    20A     -0.755346    21A     -0.701305
      22A     -0.697136    23A     -0.686905    24A     -0.685167
      25A     -0.644616    26A     -0.610458    27A     -0.597688
      28A     -0.593114

  @DF-RHF Final Energy:  -289.70861869341405

   => Energetics <=

    Nuclear Repulsion Energy =            347.1082411249597044
    One-Electron Energy =               -1068.5754822837257052
    Two-Electron Energy =                 431.7586224653519480
    Total Energy =                       -289.7086186934140528
  Basis Set: (AUG-CC-PVTZ AUX)
    Blend: AUG-CC-PVTZ-RI
    Molecular point group: c1

    Geometry (in Angstrom), charge = 1, multiplicity = 1:

       Center              X                  Y                   Z               Mass
    ------------   -----------------  -----------------  -----------------  -----------------
         N           -1.808597183278     0.002774811041    -0.795769887414    14.003074004430
         C           -1.077585183278     0.002774811041     0.547231112586    12.000000000000
         C           -0.240854183278    -1.268792188959     0.637444112586    12.000000000000
         C           -0.249209983278     1.251192511041     0.626988312586    12.000000000000
         C            0.948221816722    -1.260576188959    -0.328721887414    12.000000000000
         C            0.948220816722     1.266125811041    -0.328722887414    12.000000000000
         C            1.792029816722     0.002774811041    -0.156126887414    12.000000000000
         H           -1.879013183278     0.002774811041     1.292743112586     1.007825032230
         H           -0.871721183278    -2.156365188959     0.496833112586     1.007825032230
         H            0.129947816722    -1.322690188959     1.667482112586     1.007825032230
         H            0.129948816722     1.328238811041     1.667483112586     1.007825032230
         H           -0.871721183278     2.161914811041     0.496834112586     1.007825032230
         H            0.610271816722    -1.343109188959    -1.373282887414     1.007825032230
         H            1.552859816722    -2.155241188959    -0.152039887414     1.007825032230
         H            1.552858816722     2.160790811041    -0.152040887414     1.007825032230
         H            0.610269816722     1.348657811041    -1.373282887414     1.007825032230
         H            2.238894816722     0.002775811041     0.845952112586     1.007825032230
         H            2.621939816722     0.002774811041    -0.869459887414     1.007825032230
         H           -1.136838183278     0.002762811041    -1.573594887414     1.007825032230
         H           -2.405337183278     0.834160811041    -0.900519887414     1.007825032230
         H           -2.405355183278    -0.828600188959    -0.900509887414     1.007825032230

  Basis Set: AUG-CC-PVTZ
    Blend: AUG-CC-PVTZ
  Basis Set: (AUG-CC-PVTZ AUX)
    Blend: AUG-CC-PVTZ-JKFIT
	 Reference Energy          =    -289.7086186934140528 [Eh]
	 Singles Energy            =      -0.0000000000000000 [Eh]
	 Same-Spin Energy          =      -0.3078875449522586 [Eh]
	 Opposite-Spin Energy      =      -1.0941789561894963 [Eh]
	 Correlation Energy        =      -1.4020665011417548 [Eh]
	 Total Energy              =    -291.1106851945557992 [Eh]

	 ================> DF-SCS-MP2 Energies <==================
	-----------------------------------------------------------
	 SCS Same-Spin Scale       =       0.3333333333333333 [-]
	 SCS Opposite-Spin Scale   =       1.2000000000000000 [-]
	 SCS Same-Spin Energy      =      -0.1026291816507529 [Eh]
	 SCS Opposite-Spin Energy  =      -1.3130147474273957 [Eh]
	 SCS Correlation Energy    =      -1.4156439290781484 [Eh]
	 SCS Total Energy          =    -291.1242626224922105 [Eh]
	-----------------------------------------------------------

  Dipole Moment: [D]
     X:    -5.5906      Y:     0.0063      Z:    -2.0413     Total:     5.9516

*** Psi4 exiting successfully. Buy a developer a beer!
