                               Psi4 1.4a3.dev225

  ==> Input File <==

--------------------------------------------------------------------------
#psi4
#
memory 32 gb

molecule  {
1 1
  N       -1.8084550     0.0000000    -0.7896910
  C       -1.0774430     0.0000000     0.5533100
  C       -0.2407120    -1.2715670     0.6435230
  C       -0.2407120     1.2715670     0.6435240
  C        0.9483640    -1.2633510    -0.3226430
  C        0.9483630     1.2633510    -0.3226440
  C        1.7811346     0.0165251    -0.1523056
  H       -1.8788710     0.0000000     1.2988220
  H       -0.8715790    -2.1591400     0.5029120
  H        0.1300900    -1.3254650     1.6735610
  H        0.1300910     1.3254640     1.6735620
  H       -0.8715790     2.1591400     0.5029130
  H        0.6104140    -1.3458840    -1.3672040
  H        1.5530020    -2.1580160    -0.1459610
  H        1.5530010     2.1580160    -0.1459620
  H        0.6104120     1.3458830    -1.3672040
  H        2.2390370     0.0000010     0.8520310
  H        2.6220820     0.0000000    -0.8633810
  H       -1.1366960    -0.0000120    -1.5675160
  H       -2.4051950     0.8313860    -0.8944410
  H       -2.4052130    -0.8313750    -0.8944310
units angstrom
no_reorient  #important for SAPT in psi4, default
symmetry c1  #important for SAPT in psi4, default
}

set PROPERTIES_ORIGIN ["COM"]
properties('MP2/aug-cc-pvtz', properties = ['dipole'])
--------------------------------------------------------------------------

    Molecular point group: c1
  Charge       = 1
  Multiplicity = 1
  Basis Set: AUG-CC-PVTZ
    Blend: AUG-CC-PVTZ
  Basis Set: (AUG-CC-PVTZ AUX)
    Blend: AUG-CC-PVTZ-JKFIT

    Orbital Energies [Eh]
    ---------------------

    Doubly Occupied:

       1A    -15.874584     2A    -11.466857     3A    -11.390621
       4A    -11.390277     5A    -11.371978     6A    -11.371184
       7A    -11.358338     8A     -1.492481     9A     -1.278475
      10A     -1.173954    11A     -1.170614    12A     -1.010033
      13A     -1.006676    14A     -0.951042    15A     -0.934374
      16A     -0.917783    17A     -0.815467    18A     -0.814263
      19A     -0.764005    20A     -0.756527    21A     -0.699299
      22A     -0.696763    23A     -0.687103    24A     -0.686046
      25A     -0.646784    26A     -0.609533    27A     -0.598535
      28A     -0.592213

  @DF-RHF Final Energy:  -289.70917940491296

   => Energetics <=

    Nuclear Repulsion Energy =            346.8854963852890023
    One-Electron Energy =               -1068.1377357211526942
    Two-Electron Energy =                 431.5430599309507329
    Total Energy =                       -289.7091794049129589
  Basis Set: (AUG-CC-PVTZ AUX)
    Blend: AUG-CC-PVTZ-RI
    Molecular point group: c1

    Geometry (in Angstrom), charge = 1, multiplicity = 1:

       Center              X                  Y                   Z               Mass
    ------------   -----------------  -----------------  -----------------  -----------------
         N           -1.808275753287    -0.001980761022    -0.796752684544    14.003074004430
         C           -1.077263753287    -0.001980761022     0.546248315456    12.000000000000
         C           -0.240532753287    -1.273547761022     0.636461315456    12.000000000000
         C           -0.240532753287     1.269586238978     0.636462315456    12.000000000000
         C            0.948543246713    -1.265331761022    -0.329704684544    12.000000000000
         C            0.948542246713     1.261370238978    -0.329705684544    12.000000000000
         C            1.781313846713     0.014544338978    -0.159367284544    12.000000000000
         H           -1.878691753287    -0.001980761022     1.291760315456     1.007825032230
         H           -0.871399753287    -2.161120761022     0.495850315456     1.007825032230
         H            0.130269246713    -1.327445761022     1.666499315456     1.007825032230
         H            0.130270246713     1.323483238978     1.666500315456     1.007825032230
         H           -0.871399753287     2.157159238978     0.495851315456     1.007825032230
         H            0.610593246713    -1.347864761022    -1.374265684544     1.007825032230
         H            1.553181246713    -2.159996761022    -0.153022684544     1.007825032230
         H            1.553180246713     2.156035238978    -0.153023684544     1.007825032230
         H            0.610591246713     1.343902238978    -1.374265684544     1.007825032230
         H            2.239216246713    -0.001979761022     0.844969315456     1.007825032230
         H            2.622261246713    -0.001980761022    -0.870442684544     1.007825032230
         H           -1.136516753287    -0.001992761022    -1.574577684544     1.007825032230
         H           -2.405015753287     0.829405238978    -0.901502684544     1.007825032230
         H           -2.405033753287    -0.833355761022    -0.901492684544     1.007825032230

  Basis Set: AUG-CC-PVTZ
    Blend: AUG-CC-PVTZ
  Basis Set: (AUG-CC-PVTZ AUX)
    Blend: AUG-CC-PVTZ-JKFIT
	 Reference Energy          =    -289.7091794049129589 [Eh]
	 Singles Energy            =      -0.0000000000000000 [Eh]
	 Same-Spin Energy          =      -0.3077503609841994 [Eh]
	 Opposite-Spin Energy      =      -1.0940202905749550 [Eh]
	 Correlation Energy        =      -1.4017706515591544 [Eh]
	 Total Energy              =    -291.1109500564721202 [Eh]

	 ================> DF-SCS-MP2 Energies <==================
	-----------------------------------------------------------
	 SCS Same-Spin Scale       =       0.3333333333333333 [-]
	 SCS Opposite-Spin Scale   =       1.2000000000000000 [-]
	 SCS Same-Spin Energy      =      -0.1025834536613998 [Eh]
	 SCS Opposite-Spin Energy  =      -1.3128243486899460 [Eh]
	 SCS Correlation Energy    =      -1.4154078023513459 [Eh]
	 SCS Total Energy          =    -291.1245872072643124 [Eh]
	-----------------------------------------------------------

  Dipole Moment: [D]
     X:    -5.5956      Y:    -0.0025      Z:    -2.0515     Total:     5.9598

*** Psi4 exiting successfully. Buy a developer a beer!
