                               Psi4 1.4a3.dev225

  ==> Input File <==

--------------------------------------------------------------------------
#psi4
#
memory 32 gb

molecule  {
1 1
  N       -1.8084550     0.0000000    -0.7896910
  C       -1.0774430     0.0000000     0.5533100
  C       -0.2407120    -1.2715670     0.6435230
  C       -0.2407120     1.2715670     0.6435240
  C        0.9483640    -1.2633510    -0.3226430
  C        0.9483630     1.2633510    -0.3226440
  C        1.7921720     0.0000000    -0.1500480
  H       -1.8788710     0.0000000     1.2988220
  H       -0.8715790    -2.1591400     0.5029120
  H        0.1300900    -1.3254650     1.6735610
  H        0.1300910     1.3254640     1.6735620
  H       -0.8715790     2.1591400     0.5029130
  H        0.6104140    -1.3458840    -1.3672040
  H        1.5530020    -2.1580160    -0.1459610
  H        1.6082605     2.2397818    -0.1298146
  H        0.6104120     1.3458830    -1.3672040
  H        2.2390370     0.0000010     0.8520310
  H        2.6220820     0.0000000    -0.8633810
  H       -1.1366960    -0.0000120    -1.5675160
  H       -2.4051950     0.8313860    -0.8944410
  H       -2.4052130    -0.8313750    -0.8944310
units angstrom
no_reorient  #important for SAPT in psi4, default
symmetry c1  #important for SAPT in psi4, default
}

set PROPERTIES_ORIGIN ["COM"]
properties('MP2/aug-cc-pvtz', properties = ['dipole'])
--------------------------------------------------------------------------

    Molecular point group: c1
  Charge       = 1
  Multiplicity = 1
  Basis Set: AUG-CC-PVTZ
    Blend: AUG-CC-PVTZ
  Basis Set: (AUG-CC-PVTZ AUX)
    Blend: AUG-CC-PVTZ-JKFIT

    Orbital Energies [Eh]
    ---------------------

    Doubly Occupied:

       1A    -15.874967     2A    -11.467331     3A    -11.391138
       4A    -11.390946     5A    -11.382563     6A    -11.372333
       7A    -11.358572     8A     -1.492886     9A     -1.277514
      10A     -1.172261    11A     -1.169026    12A     -1.010415
      13A     -1.002547    14A     -0.951332    15A     -0.934477
      16A     -0.916292    17A     -0.815926    18A     -0.812608
      19A     -0.760581    20A     -0.754918    21A     -0.697985
      22A     -0.694630    23A     -0.687548    24A     -0.682167
      25A     -0.646192    26A     -0.610839    27A     -0.595806
      28A     -0.588827

  @DF-RHF Final Energy:  -289.70300993472188

   => Energetics <=

    Nuclear Repulsion Energy =            346.2203677014243226
    One-Electron Energy =               -1066.8214991669569827
    Two-Electron Energy =                 430.8981215308108403
    Total Energy =                       -289.7030099347218766
  Basis Set: (AUG-CC-PVTZ AUX)
    Blend: AUG-CC-PVTZ-RI
    Molecular point group: c1

    Geometry (in Angstrom), charge = 1, multiplicity = 1:

       Center              X                  Y                   Z               Mass
    ------------   -----------------  -----------------  -----------------  -----------------
         N           -1.810155043820    -0.000823109022    -0.797185846237    14.003074004430
         C           -1.079143043820    -0.000823109022     0.545815153763    12.000000000000
         C           -0.242412043820    -1.272390109022     0.636028153763    12.000000000000
         C           -0.242412043820     1.270743890978     0.636029153763    12.000000000000
         C            0.946663956180    -1.264174109022    -0.330137846237    12.000000000000
         C            0.946662956180     1.262527890978    -0.330138846237    12.000000000000
         C            1.790471956180    -0.000823109022    -0.157542846237    12.000000000000
         H           -1.880571043820    -0.000823109022     1.291327153763     1.007825032230
         H           -0.873279043820    -2.159963109022     0.495417153763     1.007825032230
         H            0.128389956180    -1.326288109022     1.666066153763     1.007825032230
         H            0.128390956180     1.324640890978     1.666067153763     1.007825032230
         H           -0.873279043820     2.158316890978     0.495418153763     1.007825032230
         H            0.608713956180    -1.346707109022    -1.374698846237     1.007825032230
         H            1.551301956180    -2.158839109022    -0.153455846237     1.007825032230
         H            1.606560456180     2.238958690978    -0.137309446237     1.007825032230
         H            0.608711956180     1.345059890978    -1.374698846237     1.007825032230
         H            2.237336956180    -0.000822109022     0.844536153763     1.007825032230
         H            2.620381956180    -0.000823109022    -0.870875846237     1.007825032230
         H           -1.138396043820    -0.000835109022    -1.575010846237     1.007825032230
         H           -2.406895043820     0.830562890978    -0.901935846237     1.007825032230
         H           -2.406913043820    -0.832198109022    -0.901925846237     1.007825032230

  Basis Set: AUG-CC-PVTZ
    Blend: AUG-CC-PVTZ
  Basis Set: (AUG-CC-PVTZ AUX)
    Blend: AUG-CC-PVTZ-JKFIT
	 Reference Energy          =    -289.7030099347218766 [Eh]
	 Singles Energy            =      -0.0000000000000000 [Eh]
	 Same-Spin Energy          =      -0.3077296448263911 [Eh]
	 Opposite-Spin Energy      =      -1.0947363993294301 [Eh]
	 Correlation Energy        =      -1.4024660441558212 [Eh]
	 Total Energy              =    -291.1054759788776778 [Eh]

	 ================> DF-SCS-MP2 Energies <==================
	-----------------------------------------------------------
	 SCS Same-Spin Scale       =       0.3333333333333333 [-]
	 SCS Opposite-Spin Scale   =       1.2000000000000000 [-]
	 SCS Same-Spin Energy      =      -0.1025765482754637 [Eh]
	 SCS Opposite-Spin Energy  =      -1.3136836791953161 [Eh]
	 SCS Correlation Energy    =      -1.4162602274707798 [Eh]
	 SCS Total Energy          =    -291.1192701621926631 [Eh]
	-----------------------------------------------------------

  Dipole Moment: [D]
     X:    -5.6157      Y:    -0.0394      Z:    -2.0465     Total:     5.9771

*** Psi4 exiting successfully. Buy a developer a beer!
