                               Psi4 1.4a3.dev225

  ==> Input File <==

--------------------------------------------------------------------------
#psi4
#
memory 32 gb

molecule  {
1 1
  N       -1.8084550     0.0000000    -0.7896910
  C       -1.0678814     0.0000000     0.5708763
  C       -0.2407120    -1.2715670     0.6435230
  C       -0.2407120     1.2715670     0.6435240
  C        0.9483640    -1.2633510    -0.3226430
  C        0.9483630     1.2633510    -0.3226440
  C        1.7921720     0.0000000    -0.1500480
  H       -1.8788710     0.0000000     1.2988220
  H       -0.8715790    -2.1591400     0.5029120
  H        0.1300900    -1.3254650     1.6735610
  H        0.1300910     1.3254640     1.6735620
  H       -0.8715790     2.1591400     0.5029130
  H        0.6104140    -1.3458840    -1.3672040
  H        1.5530020    -2.1580160    -0.1459610
  H        1.5530010     2.1580160    -0.1459620
  H        0.6104120     1.3458830    -1.3672040
  H        2.2390370     0.0000010     0.8520310
  H        2.6220820     0.0000000    -0.8633810
  H       -1.1366960    -0.0000120    -1.5675160
  H       -2.4051950     0.8313860    -0.8944410
  H       -2.4052130    -0.8313750    -0.8944310
units angstrom
no_reorient  #important for SAPT in psi4, default
symmetry c1  #important for SAPT in psi4, default
}

set PROPERTIES_ORIGIN ["COM"]
properties('MP2/aug-cc-pvtz', properties = ['dipole'])
--------------------------------------------------------------------------

    Molecular point group: c1
  Charge       = 1
  Multiplicity = 1
  Basis Set: AUG-CC-PVTZ
    Blend: AUG-CC-PVTZ
  Basis Set: (AUG-CC-PVTZ AUX)
    Blend: AUG-CC-PVTZ-JKFIT

    Orbital Energies [Eh]
    ---------------------

    Doubly Occupied:

       1A    -15.871358     2A    -11.468264     3A    -11.390691
       4A    -11.390679     5A    -11.372060     6A    -11.372056
       7A    -11.358214     8A     -1.486881     9A     -1.279164
      10A     -1.173593    11A     -1.171749    12A     -1.008909
      13A     -1.006971    14A     -0.947336    15A     -0.931498
      16A     -0.917421    17A     -0.816175    18A     -0.813166
      19A     -0.764265    20A     -0.756440    21A     -0.700963
      22A     -0.699021    23A     -0.687110    24A     -0.685338
      25A     -0.646665    26A     -0.611193    27A     -0.596896
      28A     -0.595797

  @DF-RHF Final Energy:  -289.70944818672734

   => Energetics <=

    Nuclear Repulsion Energy =            346.6298467704817199
    One-Electron Energy =               -1067.6388512231571895
    Two-Electron Energy =                 431.2995562659481834
    Total Energy =                       -289.7094481867273430
  Basis Set: (AUG-CC-PVTZ AUX)
    Blend: AUG-CC-PVTZ-RI
    Molecular point group: c1

    Geometry (in Angstrom), charge = 1, multiplicity = 1:

       Center              X                  Y                   Z               Mass
    ------------   -----------------  -----------------  -----------------  -----------------
         N           -1.810744852477     0.000000020134    -0.799128876371    14.003074004430
         C           -1.070171252477     0.000000020134     0.561438423629    12.000000000000
         C           -0.243001852477    -1.271566979866     0.634085123629    12.000000000000
         C           -0.243001852477     1.271567020134     0.634086123629    12.000000000000
         C            0.946074147523    -1.263350979866    -0.332080876371    12.000000000000
         C            0.946073147523     1.263351020134    -0.332081876371    12.000000000000
         C            1.789882147523     0.000000020134    -0.159485876371    12.000000000000
         H           -1.881160852477     0.000000020134     1.289384123629     1.007825032230
         H           -0.873868852477    -2.159139979866     0.493474123629     1.007825032230
         H            0.127800147523    -1.325464979866     1.664123123629     1.007825032230
         H            0.127801147523     1.325464020134     1.664124123629     1.007825032230
         H           -0.873868852477     2.159140020134     0.493475123629     1.007825032230
         H            0.608124147523    -1.345883979866    -1.376641876371     1.007825032230
         H            1.550712147523    -2.158015979866    -0.155398876371     1.007825032230
         H            1.550711147523     2.158016020134    -0.155399876371     1.007825032230
         H            0.608122147523     1.345883020134    -1.376641876371     1.007825032230
         H            2.236747147523     0.000001020134     0.842593123629     1.007825032230
         H            2.619792147523     0.000000020134    -0.872818876371     1.007825032230
         H           -1.138985852477    -0.000011979866    -1.576953876371     1.007825032230
         H           -2.407484852477     0.831386020134    -0.903878876371     1.007825032230
         H           -2.407502852477    -0.831374979866    -0.903868876371     1.007825032230

  Basis Set: AUG-CC-PVTZ
    Blend: AUG-CC-PVTZ
  Basis Set: (AUG-CC-PVTZ AUX)
    Blend: AUG-CC-PVTZ-JKFIT
	 Reference Energy          =    -289.7094481867273430 [Eh]
	 Singles Energy            =      -0.0000000000000000 [Eh]
	 Same-Spin Energy          =      -0.3076040958862754 [Eh]
	 Opposite-Spin Energy      =      -1.0939269646689582 [Eh]
	 Correlation Energy        =      -1.4015310605552336 [Eh]
	 Total Energy              =    -291.1109792472825575 [Eh]

	 ================> DF-SCS-MP2 Energies <==================
	-----------------------------------------------------------
	 SCS Same-Spin Scale       =       0.3333333333333333 [-]
	 SCS Opposite-Spin Scale   =       1.2000000000000000 [-]
	 SCS Same-Spin Energy      =      -0.1025346986287585 [Eh]
	 SCS Opposite-Spin Energy  =      -1.3127123576027497 [Eh]
	 SCS Correlation Energy    =      -1.4152470562315083 [Eh]
	 SCS Total Energy          =    -291.1246952429588646 [Eh]
	-----------------------------------------------------------

  Dipole Moment: [D]
     X:    -5.5610      Y:    -0.0000      Z:    -2.0089     Total:     5.9127

*** Psi4 exiting successfully. Buy a developer a beer!
