                               Psi4 1.4a3.dev225

  ==> Input File <==

--------------------------------------------------------------------------
#psi4
#
memory 32 gb

molecule  {
1 1
  N       -1.8084550     0.0000000    -0.7896910
  C       -1.0774430     0.0000000     0.5533100
  C       -0.2407120    -1.2715670     0.6435230
  C       -0.2407120     1.2715670     0.6435240
  C        0.9483640    -1.2633510    -0.3226430
  C        0.9483630     1.2633510    -0.3226440
  C        1.7921720     0.0000000    -0.1500480
  H       -1.8788710     0.0000000     1.2988220
  H       -0.8715790    -2.1591400     0.5029120
  H        0.1300900    -1.3254650     1.6735610
  H        0.1300910     1.3254640     1.6735620
  H       -0.8715790     2.1591400     0.5029130
  H        0.6104140    -1.3458840    -1.3672040
  H        1.5530020    -2.1580160    -0.1459610
  H        1.5386828     2.1786750    -0.2180798
  H        0.6104120     1.3458830    -1.3672040
  H        2.2390370     0.0000010     0.8520310
  H        2.6220820     0.0000000    -0.8633810
  H       -1.1366960    -0.0000120    -1.5675160
  H       -2.4051950     0.8313860    -0.8944410
  H       -2.4052130    -0.8313750    -0.8944310
units angstrom
no_reorient  #important for SAPT in psi4, default
symmetry c1  #important for SAPT in psi4, default
}

set PROPERTIES_ORIGIN ["COM"]
properties('MP2/aug-cc-pvtz', properties = ['dipole'])
--------------------------------------------------------------------------

    Molecular point group: c1
  Charge       = 1
  Multiplicity = 1
  Basis Set: AUG-CC-PVTZ
    Blend: AUG-CC-PVTZ
  Basis Set: (AUG-CC-PVTZ AUX)
    Blend: AUG-CC-PVTZ-JKFIT

    Orbital Energies [Eh]
    ---------------------

    Doubly Occupied:

       1A    -15.874361     2A    -11.467089     3A    -11.390891
       4A    -11.390605     5A    -11.371922     6A    -11.371653
       7A    -11.358239     8A     -1.492292     9A     -1.277578
      10A     -1.172582    11A     -1.170674    12A     -1.010168
      13A     -1.006789    14A     -0.950742    15A     -0.934288
      16A     -0.919532    17A     -0.815463    18A     -0.814796
      19A     -0.762650    20A     -0.754483    21A     -0.699966
      22A     -0.696549    23A     -0.687146    24A     -0.686807
      25A     -0.645035    26A     -0.609751    27A     -0.596945
      28A     -0.595080

  @DF-RHF Final Energy:  -289.70916807171409

   => Energetics <=

    Nuclear Repulsion Energy =            346.6527611743386501
    One-Electron Energy =               -1067.6757042796932637
    Two-Electron Energy =                 431.3137750336405816
    Total Energy =                       -289.7091680717140889
  Basis Set: (AUG-CC-PVTZ AUX)
    Blend: AUG-CC-PVTZ-RI
    Molecular point group: c1

    Geometry (in Angstrom), charge = 1, multiplicity = 1:

       Center              X                  Y                   Z               Mass
    ------------   -----------------  -----------------  -----------------  -----------------
         N           -1.809454611201    -0.000207952212    -0.796297288190    14.003074004430
         C           -1.078442611201    -0.000207952212     0.546703711810    12.000000000000
         C           -0.241711611201    -1.271774952212     0.636916711810    12.000000000000
         C           -0.241711611201     1.271359047788     0.636917711810    12.000000000000
         C            0.947364388799    -1.263558952212    -0.329249288190    12.000000000000
         C            0.947363388799     1.263143047788    -0.329250288190    12.000000000000
         C            1.791172388799    -0.000207952212    -0.156654288190    12.000000000000
         H           -1.879870611201    -0.000207952212     1.292215711810     1.007825032230
         H           -0.872578611201    -2.159347952212     0.496305711810     1.007825032230
         H            0.129090388799    -1.325672952212     1.666954711810     1.007825032230
         H            0.129091388799     1.325256047788     1.666955711810     1.007825032230
         H           -0.872578611201     2.158932047788     0.496306711810     1.007825032230
         H            0.609414388799    -1.346091952212    -1.373810288190     1.007825032230
         H            1.552002388799    -2.158223952212    -0.152567288190     1.007825032230
         H            1.537683188799     2.178467047788    -0.224686088190     1.007825032230
         H            0.609412388799     1.345675047788    -1.373810288190     1.007825032230
         H            2.238037388799    -0.000206952212     0.845424711810     1.007825032230
         H            2.621082388799    -0.000207952212    -0.869987288190     1.007825032230
         H           -1.137695611201    -0.000219952212    -1.574122288190     1.007825032230
         H           -2.406194611201     0.831178047788    -0.901047288190     1.007825032230
         H           -2.406212611201    -0.831582952212    -0.901037288190     1.007825032230

  Basis Set: AUG-CC-PVTZ
    Blend: AUG-CC-PVTZ
  Basis Set: (AUG-CC-PVTZ AUX)
    Blend: AUG-CC-PVTZ-JKFIT
	 Reference Energy          =    -289.7091680717140889 [Eh]
	 Singles Energy            =      -0.0000000000000000 [Eh]
	 Same-Spin Energy          =      -0.3076749174315203 [Eh]
	 Opposite-Spin Energy      =      -1.0938996458484178 [Eh]
	 Correlation Energy        =      -1.4015745632799381 [Eh]
	 Total Energy              =    -291.1107426349940397 [Eh]

	 ================> DF-SCS-MP2 Energies <==================
	-----------------------------------------------------------
	 SCS Same-Spin Scale       =       0.3333333333333333 [-]
	 SCS Opposite-Spin Scale   =       1.2000000000000000 [-]
	 SCS Same-Spin Energy      =      -0.1025583058105068 [Eh]
	 SCS Opposite-Spin Energy  =      -1.3126795750181013 [Eh]
	 SCS Correlation Energy    =      -1.4152378808286081 [Eh]
	 SCS Total Energy          =    -291.1244059525427019 [Eh]
	-----------------------------------------------------------

  Dipole Moment: [D]
     X:    -5.6010      Y:     0.0071      Z:    -2.0716     Total:     5.9718

*** Psi4 exiting successfully. Buy a developer a beer!
