                               Psi4 1.4a3.dev225

  ==> Input File <==

--------------------------------------------------------------------------
#psi4
#
memory 32 gb

molecule  {
1 1
  N       -1.7129913     0.0000000    -0.8374123
  C       -1.0774430     0.0000000     0.5533100
  C       -0.2407120    -1.2715670     0.6435230
  C       -0.2407120     1.2715670     0.6435240
  C        0.9483640    -1.2633510    -0.3226430
  C        0.9483630     1.2633510    -0.3226440
  C        1.7921720     0.0000000    -0.1500480
  H       -1.8788710     0.0000000     1.2988220
  H       -0.8715790    -2.1591400     0.5029120
  H        0.1300900    -1.3254650     1.6735610
  H        0.1300910     1.3254640     1.6735620
  H       -0.8715790     2.1591400     0.5029130
  H        0.6104140    -1.3458840    -1.3672040
  H        1.5530020    -2.1580160    -0.1459610
  H        1.5530010     2.1580160    -0.1459620
  H        0.6104120     1.3458830    -1.3672040
  H        2.2390370     0.0000010     0.8520310
  H        2.6220820     0.0000000    -0.8633810
  H       -1.1366960    -0.0000120    -1.5675160
  H       -2.4051950     0.8313860    -0.8944410
  H       -2.4052130    -0.8313750    -0.8944310
units angstrom
no_reorient  #important for SAPT in psi4, default
symmetry c1  #important for SAPT in psi4, default
}

set PROPERTIES_ORIGIN ["COM"]
properties('MP2/aug-cc-pvtz', properties = ['dipole'])
--------------------------------------------------------------------------

    Molecular point group: c1
  Charge       = 1
  Multiplicity = 1
  Basis Set: AUG-CC-PVTZ
    Blend: AUG-CC-PVTZ
  Basis Set: (AUG-CC-PVTZ AUX)
    Blend: AUG-CC-PVTZ-JKFIT

    Orbital Energies [Eh]
    ---------------------

    Doubly Occupied:

       1A    -15.874843     2A    -11.467903     3A    -11.389264
       4A    -11.389252     5A    -11.371150     6A    -11.371147
       7A    -11.357448     8A     -1.495258     9A     -1.277111
      10A     -1.172246    11A     -1.172213    12A     -1.020441
      13A     -1.003786    14A     -0.962701    15A     -0.922096
      16A     -0.903827    17A     -0.828385    18A     -0.810676
      19A     -0.762603    20A     -0.752579    21A     -0.701050
      22A     -0.695044    23A     -0.685550    24A     -0.682839
      25A     -0.645786    26A     -0.610937    27A     -0.594998
      28A     -0.594627

  @DF-RHF Final Energy:  -289.69219687204640

   => Energetics <=

    Nuclear Repulsion Energy =            347.5881162630851122
    One-Electron Energy =               -1069.5291101547163635
    Two-Electron Energy =                 432.2487970195848561
    Total Energy =                       -289.6921968720463951
  Basis Set: (AUG-CC-PVTZ AUX)
    Blend: AUG-CC-PVTZ-RI
    Molecular point group: c1

    Geometry (in Angstrom), charge = 1, multiplicity = 1:

       Center              X                  Y                   Z               Mass
    ------------   -----------------  -----------------  -----------------  -----------------
         N           -1.727487865292     0.000000020134    -0.838069660424    14.003074004430
         C           -1.091939565292     0.000000020134     0.552652639576    12.000000000000
         C           -0.255208565292    -1.271566979866     0.642865639576    12.000000000000
         C           -0.255208565292     1.271567020134     0.642866639576    12.000000000000
         C            0.933867434708    -1.263350979866    -0.323300360424    12.000000000000
         C            0.933866434708     1.263351020134    -0.323301360424    12.000000000000
         C            1.777675434708     0.000000020134    -0.150705360424    12.000000000000
         H           -1.893367565292     0.000000020134     1.298164639576     1.007825032230
         H           -0.886075565292    -2.159139979866     0.502254639576     1.007825032230
         H            0.115593434708    -1.325464979866     1.672903639576     1.007825032230
         H            0.115594434708     1.325464020134     1.672904639576     1.007825032230
         H           -0.886075565292     2.159140020134     0.502255639576     1.007825032230
         H            0.595917434708    -1.345883979866    -1.367861360424     1.007825032230
         H            1.538505434708    -2.158015979866    -0.146618360424     1.007825032230
         H            1.538504434708     2.158016020134    -0.146619360424     1.007825032230
         H            0.595915434708     1.345883020134    -1.367861360424     1.007825032230
         H            2.224540434708     0.000001020134     0.851373639576     1.007825032230
         H            2.607585434708     0.000000020134    -0.864038360424     1.007825032230
         H           -1.151192565292    -0.000011979866    -1.568173360424     1.007825032230
         H           -2.419691565292     0.831386020134    -0.895098360424     1.007825032230
         H           -2.419709565292    -0.831374979866    -0.895088360424     1.007825032230

  Basis Set: AUG-CC-PVTZ
    Blend: AUG-CC-PVTZ
  Basis Set: (AUG-CC-PVTZ AUX)
    Blend: AUG-CC-PVTZ-JKFIT
	 Reference Energy          =    -289.6921968720463951 [Eh]
	 Singles Energy            =      -0.0000000000000000 [Eh]
	 Same-Spin Energy          =      -0.3080220501743435 [Eh]
	 Opposite-Spin Energy      =      -1.0949869675775878 [Eh]
	 Correlation Energy        =      -1.4030090177519314 [Eh]
	 Total Energy              =    -291.0952058897983079 [Eh]

	 ================> DF-SCS-MP2 Energies <==================
	-----------------------------------------------------------
	 SCS Same-Spin Scale       =       0.3333333333333333 [-]
	 SCS Opposite-Spin Scale   =       1.2000000000000000 [-]
	 SCS Same-Spin Energy      =      -0.1026740167247812 [Eh]
	 SCS Opposite-Spin Energy  =      -1.3139843610931055 [Eh]
	 SCS Correlation Energy    =      -1.4166583778178867 [Eh]
	 SCS Total Energy          =    -291.1088552498642912 [Eh]
	-----------------------------------------------------------

  Dipole Moment: [D]
     X:    -5.7550      Y:    -0.0000      Z:    -1.9916     Total:     6.0898

*** Psi4 exiting successfully. Buy a developer a beer!
