                               Psi4 1.4a3.dev225

  ==> Input File <==

--------------------------------------------------------------------------
#psi4
#
memory 32 gb

molecule  {
1 1
  N       -1.8084550     0.0000000    -0.7896910
  C       -1.0774430     0.0000000     0.5533100
  C       -0.2407120    -1.2715670     0.6435230
  C       -0.2407120     1.2715670     0.6435240
  C        0.9483640    -1.2633510    -0.3226430
  C        0.9483630     1.2633510    -0.3226440
  C        1.7921720     0.0000000    -0.1500480
  H       -1.8788710     0.0000000     1.2988220
  H       -0.8715790    -2.1591400     0.5029120
  H        0.1300900    -1.3254650     1.6735610
  H        0.1300910     1.3254640     1.6735620
  H       -0.8715790     2.1591400     0.5029130
  H        0.6104140    -1.3458840    -1.3672040
  H        1.5530020    -2.1580160    -0.1459610
  H        1.5530010     2.1580160    -0.1459620
  H        0.6104120     1.3458830    -1.3672040
  H        2.2390370     0.0000010     0.8520310
  H        2.6220820     0.0000000    -0.8633810
  H       -1.1366960    -0.0000120    -1.5675160
  H       -2.4051950     0.8313860    -0.8944410
  H       -2.4632225    -0.9121911    -0.9046125
units angstrom
no_reorient  #important for SAPT in psi4, default
symmetry c1  #important for SAPT in psi4, default
}

set PROPERTIES_ORIGIN ["COM"]
properties('MP2/aug-cc-pvtz', properties = ['dipole'])
--------------------------------------------------------------------------

    Molecular point group: c1
  Charge       = 1
  Multiplicity = 1
  Basis Set: AUG-CC-PVTZ
    Blend: AUG-CC-PVTZ
  Basis Set: (AUG-CC-PVTZ AUX)
    Blend: AUG-CC-PVTZ-JKFIT

    Orbital Energies [Eh]
    ---------------------

    Doubly Occupied:

       1A    -15.880009     2A    -11.465658     3A    -11.389950
       4A    -11.389806     5A    -11.371088     6A    -11.371083
       7A    -11.357392     8A     -1.478911     9A     -1.275050
      10A     -1.171904    11A     -1.168712    12A     -1.008795
      13A     -1.004145    14A     -0.944951    15A     -0.917222
      16A     -0.909649    17A     -0.813402    18A     -0.812397
      19A     -0.763216    20A     -0.754303    21A     -0.697840
      22A     -0.695235    23A     -0.686077    24A     -0.685258
      25A     -0.645789    26A     -0.610409    27A     -0.594926
      28A     -0.594310

  @DF-RHF Final Energy:  -289.69992206473563

   => Energetics <=

    Nuclear Repulsion Energy =            346.1887805843024353
    One-Electron Energy =               -1066.8624351735286382
    Two-Electron Energy =                 430.9737325244905719
    Total Energy =                       -289.6999220647356310
  Basis Set: (AUG-CC-PVTZ AUX)
    Blend: AUG-CC-PVTZ-RI
    Molecular point group: c1

    Geometry (in Angstrom), charge = 1, multiplicity = 1:

       Center              X                  Y                   Z               Mass
    ------------   -----------------  -----------------  -----------------  -----------------
         N           -1.809014774706     0.000813588742    -0.796920795504    14.003074004430
         C           -1.078002774706     0.000813588742     0.546080204496    12.000000000000
         C           -0.241271774706    -1.270753411258     0.636293204496    12.000000000000
         C           -0.241271774706     1.272380588742     0.636294204496    12.000000000000
         C            0.947804225294    -1.262537411258    -0.329872795504    12.000000000000
         C            0.947803225294     1.264164588742    -0.329873795504    12.000000000000
         C            1.791612225294     0.000813588742    -0.157277795504    12.000000000000
         H           -1.879430774706     0.000813588742     1.291592204496     1.007825032230
         H           -0.872138774706    -2.158326411258     0.495682204496     1.007825032230
         H            0.129530225294    -1.324651411258     1.666331204496     1.007825032230
         H            0.129531225294     1.326277588742     1.666332204496     1.007825032230
         H           -0.872138774706     2.159953588742     0.495683204496     1.007825032230
         H            0.609854225294    -1.345070411258    -1.374433795504     1.007825032230
         H            1.552442225294    -2.157202411258    -0.153190795504     1.007825032230
         H            1.552441225294     2.158829588742    -0.153191795504     1.007825032230
         H            0.609852225294     1.346696588742    -1.374433795504     1.007825032230
         H            2.238477225294     0.000814588742     0.844801204496     1.007825032230
         H            2.621522225294     0.000813588742    -0.870610795504     1.007825032230
         H           -1.137255774706     0.000801588742    -1.574745795504     1.007825032230
         H           -2.405754774706     0.832199588742    -0.901670795504     1.007825032230
         H           -2.463782274706    -0.911377511258    -0.911842295504     1.007825032230

  Basis Set: AUG-CC-PVTZ
    Blend: AUG-CC-PVTZ
  Basis Set: (AUG-CC-PVTZ AUX)
    Blend: AUG-CC-PVTZ-JKFIT
	 Reference Energy          =    -289.6999220647356310 [Eh]
	 Singles Energy            =      -0.0000000000000000 [Eh]
	 Same-Spin Energy          =      -0.3082456600581025 [Eh]
	 Opposite-Spin Energy      =      -1.0958029956470186 [Eh]
	 Correlation Energy        =      -1.4040486557051211 [Eh]
	 Total Energy              =    -291.1039707204407705 [Eh]

	 ================> DF-SCS-MP2 Energies <==================
	-----------------------------------------------------------
	 SCS Same-Spin Scale       =       0.3333333333333333 [-]
	 SCS Opposite-Spin Scale   =       1.2000000000000000 [-]
	 SCS Same-Spin Energy      =      -0.1027485533527008 [Eh]
	 SCS Opposite-Spin Energy  =      -1.3149635947764222 [Eh]
	 SCS Correlation Energy    =      -1.4177121481291231 [Eh]
	 SCS Total Energy          =    -291.1176342128647434 [Eh]
	-----------------------------------------------------------

  Dipole Moment: [D]
     X:    -5.6887      Y:    -0.1008      Z:    -2.0683     Total:     6.0539

*** Psi4 exiting successfully. Buy a developer a beer!
