                               Psi4 1.4a3.dev225

  ==> Input File <==

--------------------------------------------------------------------------
#psi4
#
memory 32 gb

molecule  {
1 1
  N       -1.8084550     0.0000000    -0.7896910
  C       -1.0774430     0.0000000     0.5533100
  C       -0.2407120    -1.2715670     0.6435230
  C       -0.2407120     1.2715670     0.6435240
  C        0.9483640    -1.2633510    -0.3226430
  C        0.9483630     1.2633510    -0.3226440
  C        1.7921720     0.0000000    -0.1500480
  H       -1.8788710     0.0000000     1.2988220
  H       -0.8715790    -2.1591400     0.5029120
  H        0.1300900    -1.3254650     1.6735610
  H        0.1300910     1.3254640     1.6735620
  H       -0.8715790     2.1591400     0.5029130
  H        0.6104140    -1.3458840    -1.3672040
  H        1.5530020    -2.1580160    -0.1459610
  H        1.4424820     1.9944844    -0.1782569
  H        0.6104120     1.3458830    -1.3672040
  H        2.2390370     0.0000010     0.8520310
  H        2.6220820     0.0000000    -0.8633810
  H       -1.1366960    -0.0000120    -1.5675160
  H       -2.4051950     0.8313860    -0.8944410
  H       -2.4052130    -0.8313750    -0.8944310
units angstrom
no_reorient  #important for SAPT in psi4, default
symmetry c1  #important for SAPT in psi4, default
}

set PROPERTIES_ORIGIN ["COM"]
properties('MP2/aug-cc-pvtz', properties = ['dipole'])
--------------------------------------------------------------------------

    Molecular point group: c1
  Charge       = 1
  Multiplicity = 1
  Basis Set: AUG-CC-PVTZ
    Blend: AUG-CC-PVTZ
  Basis Set: (AUG-CC-PVTZ AUX)
    Blend: AUG-CC-PVTZ-JKFIT

    Orbital Energies [Eh]
    ---------------------

    Doubly Occupied:

       1A    -15.874073     2A    -11.466235     3A    -11.389979
       4A    -11.389783     5A    -11.370907     6A    -11.357092
       7A    -11.348358     8A     -1.491910     9A     -1.279702
      10A     -1.182290    11A     -1.170616    12A     -1.020741
      13A     -1.009389    14A     -0.950736    15A     -0.934939
      16A     -0.924444    17A     -0.820155    18A     -0.814886
      19A     -0.777188    20A     -0.756637    21A     -0.707123
      22A     -0.696650    23A     -0.689237    24A     -0.686104
      25A     -0.647353    26A     -0.613060    27A     -0.602442
      28A     -0.594309

  @DF-RHF Final Energy:  -289.67632830432672

   => Energetics <=

    Nuclear Repulsion Energy =            347.8445374578579958
    One-Electron Energy =               -1069.9090552210600436
    Two-Electron Energy =                 432.3881894588753312
    Total Energy =                       -289.6763283043267165
  Basis Set: (AUG-CC-PVTZ AUX)
    Blend: AUG-CC-PVTZ-RI
    Molecular point group: c1

    Geometry (in Angstrom), charge = 1, multiplicity = 1:

       Center              X                  Y                   Z               Mass
    ------------   -----------------  -----------------  -----------------  -----------------
         N           -1.808486166163     0.001646278445    -0.796698181841    14.003074004430
         C           -1.077474166163     0.001646278445     0.546302818159    12.000000000000
         C           -0.240743166163    -1.269920721555     0.636515818159    12.000000000000
         C           -0.240743166163     1.273213278445     0.636516818159    12.000000000000
         C            0.948332833837    -1.261704721555    -0.329650181841    12.000000000000
         C            0.948331833837     1.264997278445    -0.329651181841    12.000000000000
         C            1.792140833837     0.001646278445    -0.157055181841    12.000000000000
         H           -1.878902166163     0.001646278445     1.291814818159     1.007825032230
         H           -0.871610166163    -2.157493721555     0.495904818159     1.007825032230
         H            0.130058833837    -1.323818721555     1.666553818159     1.007825032230
         H            0.130059833837     1.327110278445     1.666554818159     1.007825032230
         H           -0.871610166163     2.160786278445     0.495905818159     1.007825032230
         H            0.610382833837    -1.344237721555    -1.374211181841     1.007825032230
         H            1.552970833837    -2.156369721555    -0.152968181841     1.007825032230
         H            1.442450833837     1.996130678445    -0.185264081841     1.007825032230
         H            0.610380833837     1.347529278445    -1.374211181841     1.007825032230
         H            2.239005833837     0.001647278445     0.845023818159     1.007825032230
         H            2.622050833837     0.001646278445    -0.870388181841     1.007825032230
         H           -1.136727166163     0.001634278445    -1.574523181841     1.007825032230
         H           -2.405226166163     0.833032278445    -0.901448181841     1.007825032230
         H           -2.405244166163    -0.829728721555    -0.901438181841     1.007825032230

  Basis Set: AUG-CC-PVTZ
    Blend: AUG-CC-PVTZ
  Basis Set: (AUG-CC-PVTZ AUX)
    Blend: AUG-CC-PVTZ-JKFIT
	 Reference Energy          =    -289.6763283043267165 [Eh]
	 Singles Energy            =      -0.0000000000000000 [Eh]
	 Same-Spin Energy          =      -0.3075890021113972 [Eh]
	 Opposite-Spin Energy      =      -1.0931141505413893 [Eh]
	 Correlation Energy        =      -1.4007031526527864 [Eh]
	 Total Energy              =    -291.0770314569795119 [Eh]

	 ================> DF-SCS-MP2 Energies <==================
	-----------------------------------------------------------
	 SCS Same-Spin Scale       =       0.3333333333333333 [-]
	 SCS Opposite-Spin Scale   =       1.2000000000000000 [-]
	 SCS Same-Spin Energy      =      -0.1025296673704657 [Eh]
	 SCS Opposite-Spin Energy  =      -1.3117369806496670 [Eh]
	 SCS Correlation Energy    =      -1.4142666480201327 [Eh]
	 SCS Total Energy          =    -291.0905949523468621 [Eh]
	-----------------------------------------------------------

  Dipole Moment: [D]
     X:    -5.5904      Y:     0.0401      Z:    -2.0604     Total:     5.9581

*** Psi4 exiting successfully. Buy a developer a beer!
