                               Psi4 1.4a3.dev225

  ==> Input File <==

--------------------------------------------------------------------------
#psi4
#
memory 32 gb

molecule  {
1 1
  N       -1.8084550     0.0000000    -0.7896910
  C       -1.0774430     0.0000000     0.5533100
  C       -0.1309653    -1.4383473     0.6553554
  C       -0.2407120     1.2715670     0.6435240
  C        0.9483640    -1.2633510    -0.3226430
  C        0.9483630     1.2633510    -0.3226440
  C        1.7921720     0.0000000    -0.1500480
  H       -1.8788710     0.0000000     1.2988220
  H       -0.8715790    -2.1591400     0.5029120
  H        0.1300900    -1.3254650     1.6735610
  H        0.1300910     1.3254640     1.6735620
  H       -0.8715790     2.1591400     0.5029130
  H        0.6104140    -1.3458840    -1.3672040
  H        1.5530020    -2.1580160    -0.1459610
  H        1.5530010     2.1580160    -0.1459620
  H        0.6104120     1.3458830    -1.3672040
  H        2.2390370     0.0000010     0.8520310
  H        2.6220820     0.0000000    -0.8633810
  H       -1.1366960    -0.0000120    -1.5675160
  H       -2.4051950     0.8313860    -0.8944410
  H       -2.4052130    -0.8313750    -0.8944310
units angstrom
no_reorient  #important for SAPT in psi4, default
symmetry c1  #important for SAPT in psi4, default
}

set PROPERTIES_ORIGIN ["COM"]
properties('MP2/aug-cc-pvtz', properties = ['dipole'])
--------------------------------------------------------------------------

    Molecular point group: c1
  Charge       = 1
  Multiplicity = 1
  Basis Set: AUG-CC-PVTZ
    Blend: AUG-CC-PVTZ
  Basis Set: (AUG-CC-PVTZ AUX)
    Blend: AUG-CC-PVTZ-JKFIT

    Orbital Energies [Eh]
    ---------------------

    Doubly Occupied:

       1A    -15.872133     2A    -11.463098     3A    -11.397215
       4A    -11.388318     5A    -11.370757     6A    -11.370407
       7A    -11.360713     8A     -1.486318     9A     -1.270366
      10A     -1.182904    11A     -1.155834    12A     -1.016054
      13A     -1.000379    14A     -0.947135    15A     -0.932949
      16A     -0.919176    17A     -0.810495    18A     -0.806383
      19A     -0.776890    20A     -0.761023    21A     -0.706326
      22A     -0.699425    23A     -0.693440    24A     -0.663041
      25A     -0.646586    26A     -0.614837    27A     -0.607922
      28A     -0.565506

  @DF-RHF Final Energy:  -289.68148126192449

   => Energetics <=

    Nuclear Repulsion Energy =            344.5126389831387996
    One-Electron Energy =               -1063.4169783298561924
    Two-Electron Energy =                 429.2228580847929038
    Total Energy =                       -289.6814812619244890
  Basis Set: (AUG-CC-PVTZ AUX)
    Blend: AUG-CC-PVTZ-RI
    Molecular point group: c1

    Geometry (in Angstrom), charge = 1, multiplicity = 1:

       Center              X                  Y                   Z               Mass
    ------------   -----------------  -----------------  -----------------  -----------------
         N           -1.822753539759     0.019991141242    -0.798441582432    14.003074004430
         C           -1.091741539759     0.019991141242     0.544559417568    12.000000000000
         C           -0.145263839759    -1.418356158758     0.646604817568    12.000000000000
         C           -0.255010539759     1.291558141242     0.634773417568    12.000000000000
         C            0.934065460241    -1.243359858758    -0.331393582432    12.000000000000
         C            0.934064460241     1.283342141242    -0.331394582432    12.000000000000
         C            1.777873460241     0.019991141242    -0.158798582432    12.000000000000
         H           -1.893169539759     0.019991141242     1.290071417568     1.007825032230
         H           -0.885877539759    -2.139148858758     0.494161417568     1.007825032230
         H            0.115791460241    -1.305473858758     1.664810417568     1.007825032230
         H            0.115792460241     1.345455141242     1.664811417568     1.007825032230
         H           -0.885877539759     2.179131141242     0.494162417568     1.007825032230
         H            0.596115460241    -1.325892858758    -1.375954582432     1.007825032230
         H            1.538703460241    -2.138024858758    -0.154711582432     1.007825032230
         H            1.538702460241     2.178007141242    -0.154712582432     1.007825032230
         H            0.596113460241     1.365874141242    -1.375954582432     1.007825032230
         H            2.224738460241     0.019992141242     0.843280417568     1.007825032230
         H            2.607783460241     0.019991141242    -0.872131582432     1.007825032230
         H           -1.150994539759     0.019979141242    -1.576266582432     1.007825032230
         H           -2.419493539759     0.851377141242    -0.903191582432     1.007825032230
         H           -2.419511539759    -0.811383858758    -0.903181582432     1.007825032230

  Basis Set: AUG-CC-PVTZ
    Blend: AUG-CC-PVTZ
  Basis Set: (AUG-CC-PVTZ AUX)
    Blend: AUG-CC-PVTZ-JKFIT
	 Reference Energy          =    -289.6814812619244890 [Eh]
	 Singles Energy            =      -0.0000000000000000 [Eh]
	 Same-Spin Energy          =      -0.3079419438451215 [Eh]
	 Opposite-Spin Energy      =      -1.0954659370076065 [Eh]
	 Correlation Energy        =      -1.4034078808527282 [Eh]
	 Total Energy              =    -291.0848891427772287 [Eh]

	 ================> DF-SCS-MP2 Energies <==================
	-----------------------------------------------------------
	 SCS Same-Spin Scale       =       0.3333333333333333 [-]
	 SCS Opposite-Spin Scale   =       1.2000000000000000 [-]
	 SCS Same-Spin Energy      =      -0.1026473146150405 [Eh]
	 SCS Opposite-Spin Energy  =      -1.3145591244091277 [Eh]
	 SCS Correlation Energy    =      -1.4172064390241681 [Eh]
	 SCS Total Energy          =    -291.0986877009486307 [Eh]
	-----------------------------------------------------------

  Dipole Moment: [D]
     X:    -5.5786      Y:    -0.0115      Z:    -2.0779     Total:     5.9530

*** Psi4 exiting successfully. Buy a developer a beer!
