                               Psi4 1.4a3.dev225

  ==> Input File <==

--------------------------------------------------------------------------
#psi4
#
memory 32 gb

molecule  {
1 1
  N       -1.8084550     0.0000000    -0.7896910
  C       -1.0774430     0.0000000     0.5533100
  C       -0.2407120    -1.2715670     0.6435230
  C       -0.2407120     1.2715670     0.6435240
  C        0.9483640    -1.2633510    -0.3226430
  C        0.9483630     1.2633510    -0.3226440
  C        1.8473588    -0.0826257    -0.1387599
  H       -1.8788710     0.0000000     1.2988220
  H       -0.8715790    -2.1591400     0.5029120
  H        0.1300900    -1.3254650     1.6735610
  H        0.1300910     1.3254640     1.6735620
  H       -0.8715790     2.1591400     0.5029130
  H        0.6104140    -1.3458840    -1.3672040
  H        1.5530020    -2.1580160    -0.1459610
  H        1.5530010     2.1580160    -0.1459620
  H        0.6104120     1.3458830    -1.3672040
  H        2.2390370     0.0000010     0.8520310
  H        2.6220820     0.0000000    -0.8633810
  H       -1.1366960    -0.0000120    -1.5675160
  H       -2.4051950     0.8313860    -0.8944410
  H       -2.4052130    -0.8313750    -0.8944310
units angstrom
no_reorient  #important for SAPT in psi4, default
symmetry c1  #important for SAPT in psi4, default
}

set PROPERTIES_ORIGIN ["COM"]
properties('MP2/aug-cc-pvtz', properties = ['dipole'])
--------------------------------------------------------------------------

    Molecular point group: c1
  Charge       = 1
  Multiplicity = 1
  Basis Set: AUG-CC-PVTZ
    Blend: AUG-CC-PVTZ
  Basis Set: (AUG-CC-PVTZ AUX)
    Blend: AUG-CC-PVTZ-JKFIT

    Orbital Energies [Eh]
    ---------------------

    Doubly Occupied:

       1A    -15.874344     2A    -11.466422     3A    -11.391688
       4A    -11.389884     5A    -11.373107     6A    -11.370748
       7A    -11.357303     8A     -1.492179     9A     -1.274569
      10A     -1.176070    11A     -1.162965    12A     -1.014276
      13A     -1.001254    14A     -0.950649    15A     -0.933873
      16A     -0.921158    17A     -0.815955    18A     -0.812408
      19A     -0.766925    20A     -0.754526    21A     -0.701499
      22A     -0.695888    23A     -0.686844    24A     -0.682570
      25A     -0.646086    26A     -0.621291    27A     -0.606808
      28A     -0.570631

  @DF-RHF Final Energy:  -289.70207529402342

   => Energetics <=

    Nuclear Repulsion Energy =            345.7840857639814658
    One-Electron Energy =               -1065.9484871379245305
    Two-Electron Energy =                 430.4623260799196487
    Total Energy =                       -289.7020752940234161
  Basis Set: (AUG-CC-PVTZ AUX)
    Blend: AUG-CC-PVTZ-RI
    Molecular point group: c1

    Geometry (in Angstrom), charge = 1, multiplicity = 1:

       Center              X                  Y                   Z               Mass
    ------------   -----------------  -----------------  -----------------  -----------------
         N           -1.816213717198     0.009903949887    -0.798376339911    14.003074004430
         C           -1.085201717198     0.009903949887     0.544624660089    12.000000000000
         C           -0.248470717198    -1.261663050113     0.634837660089    12.000000000000
         C           -0.248470717198     1.281470949887     0.634838660089    12.000000000000
         C            0.940605282802    -1.253447050113    -0.331328339911    12.000000000000
         C            0.940604282802     1.273254949887    -0.331329339911    12.000000000000
         C            1.839600082802    -0.072721750113    -0.147445239911    12.000000000000
         H           -1.886629717198     0.009903949887     1.290136660089     1.007825032230
         H           -0.879337717198    -2.149236050113     0.494226660089     1.007825032230
         H            0.122331282802    -1.315561050113     1.664875660089     1.007825032230
         H            0.122332282802     1.335367949887     1.664876660089     1.007825032230
         H           -0.879337717198     2.169043949887     0.494227660089     1.007825032230
         H            0.602655282802    -1.335980050113    -1.375889339911     1.007825032230
         H            1.545243282802    -2.148112050113    -0.154646339911     1.007825032230
         H            1.545242282802     2.167919949887    -0.154647339911     1.007825032230
         H            0.602653282802     1.355786949887    -1.375889339911     1.007825032230
         H            2.231278282802     0.009904949887     0.843345660089     1.007825032230
         H            2.614323282802     0.009903949887    -0.872066339911     1.007825032230
         H           -1.144454717198     0.009891949887    -1.576201339911     1.007825032230
         H           -2.412953717198     0.841289949887    -0.903126339911     1.007825032230
         H           -2.412971717198    -0.821471050113    -0.903116339911     1.007825032230

  Basis Set: AUG-CC-PVTZ
    Blend: AUG-CC-PVTZ
  Basis Set: (AUG-CC-PVTZ AUX)
    Blend: AUG-CC-PVTZ-JKFIT
	 Reference Energy          =    -289.7020752940234161 [Eh]
	 Singles Energy            =      -0.0000000000000000 [Eh]
	 Same-Spin Energy          =      -0.3075157330221568 [Eh]
	 Opposite-Spin Energy      =      -1.0941420131727431 [Eh]
	 Correlation Energy        =      -1.4016577461948998 [Eh]
	 Total Energy              =    -291.1037330402183443 [Eh]

	 ================> DF-SCS-MP2 Energies <==================
	-----------------------------------------------------------
	 SCS Same-Spin Scale       =       0.3333333333333333 [-]
	 SCS Opposite-Spin Scale   =       1.2000000000000000 [-]
	 SCS Same-Spin Energy      =      -0.1025052443407189 [Eh]
	 SCS Opposite-Spin Energy  =      -1.3129704158072917 [Eh]
	 SCS Correlation Energy    =      -1.4154756601480105 [Eh]
	 SCS Total Energy          =    -291.1175509541714064 [Eh]
	-----------------------------------------------------------

  Dipole Moment: [D]
     X:    -5.6203      Y:     0.0077      Z:    -2.0485     Total:     5.9820

*** Psi4 exiting successfully. Buy a developer a beer!
