                               Psi4 1.4a3.dev225

  ==> Input File <==

--------------------------------------------------------------------------
#psi4
#
memory 32 gb

molecule  {
1 1
  N       -1.8084550     0.0000000    -0.7896910
  C       -1.0774430     0.0000000     0.5533100
  C       -0.2516867    -1.2548890     0.6423398
  C       -0.2407120     1.2715670     0.6435240
  C        0.9483640    -1.2633510    -0.3226430
  C        0.9483630     1.2633510    -0.3226440
  C        1.7921720     0.0000000    -0.1500480
  H       -1.8788710     0.0000000     1.2988220
  H       -0.8715790    -2.1591400     0.5029120
  H        0.1300900    -1.3254650     1.6735610
  H        0.1300910     1.3254640     1.6735620
  H       -0.8715790     2.1591400     0.5029130
  H        0.6104140    -1.3458840    -1.3672040
  H        1.5530020    -2.1580160    -0.1459610
  H        1.5530010     2.1580160    -0.1459620
  H        0.6104120     1.3458830    -1.3672040
  H        2.2390370     0.0000010     0.8520310
  H        2.6220820     0.0000000    -0.8633810
  H       -1.1366960    -0.0000120    -1.5675160
  H       -2.4051950     0.8313860    -0.8944410
  H       -2.4052130    -0.8313750    -0.8944310
units angstrom
no_reorient  #important for SAPT in psi4, default
symmetry c1  #important for SAPT in psi4, default
}

set PROPERTIES_ORIGIN ["COM"]
properties('MP2/aug-cc-pvtz', properties = ['dipole'])
--------------------------------------------------------------------------

    Molecular point group: c1
  Charge       = 1
  Multiplicity = 1
  Basis Set: AUG-CC-PVTZ
    Blend: AUG-CC-PVTZ
  Basis Set: (AUG-CC-PVTZ AUX)
    Blend: AUG-CC-PVTZ-JKFIT

    Orbital Energies [Eh]
    ---------------------

    Doubly Occupied:

       1A    -15.874625     2A    -11.466554     3A    -11.390638
       4A    -11.390479     5A    -11.372138     6A    -11.371747
       7A    -11.357680     8A     -1.492995     9A     -1.278880
      10A     -1.173121    11A     -1.171080    12A     -1.009671
      13A     -1.006841    14A     -0.951225    15A     -0.934254
      16A     -0.918419    17A     -0.816216    18A     -0.814834
      19A     -0.763362    20A     -0.755765    21A     -0.700518
      22A     -0.697043    23A     -0.686788    24A     -0.685177
      25A     -0.645812    26A     -0.610682    27A     -0.597058
      28A     -0.593109

  @DF-RHF Final Energy:  -289.70916608745893

   => Energetics <=

    Nuclear Repulsion Energy =            346.9254866958038974
    One-Electron Energy =               -1068.2158815248574228
    Two-Electron Energy =                 431.5812287415946003
    Total Energy =                       -289.7091660874589252
  Basis Set: (AUG-CC-PVTZ AUX)
    Blend: AUG-CC-PVTZ-RI
    Molecular point group: c1

    Geometry (in Angstrom), charge = 1, multiplicity = 1:

       Center              X                  Y                   Z               Mass
    ------------   -----------------  -----------------  -----------------  -----------------
         N           -1.808283268822    -0.001999088381    -0.796881467503    14.003074004430
         C           -1.077271268822    -0.001999088381     0.546119532497    12.000000000000
         C           -0.251514968822    -1.256888088381     0.635149332497    12.000000000000
         C           -0.240540268822     1.269567911619     0.636333532497    12.000000000000
         C            0.948535731178    -1.265350088381    -0.329833467503    12.000000000000
         C            0.948534731178     1.261351911619    -0.329834467503    12.000000000000
         C            1.792343731178    -0.001999088381    -0.157238467503    12.000000000000
         H           -1.878699268822    -0.001999088381     1.291631532497     1.007825032230
         H           -0.871407268822    -2.161139088381     0.495721532497     1.007825032230
         H            0.130261731178    -1.327464088381     1.666370532497     1.007825032230
         H            0.130262731178     1.323464911619     1.666371532497     1.007825032230
         H           -0.871407268822     2.157140911619     0.495722532497     1.007825032230
         H            0.610585731178    -1.347883088381    -1.374394467503     1.007825032230
         H            1.553173731178    -2.160015088381    -0.153151467503     1.007825032230
         H            1.553172731178     2.156016911619    -0.153152467503     1.007825032230
         H            0.610583731178     1.343883911619    -1.374394467503     1.007825032230
         H            2.239208731178    -0.001998088381     0.844840532497     1.007825032230
         H            2.622253731178    -0.001999088381    -0.870571467503     1.007825032230
         H           -1.136524268822    -0.002011088381    -1.574706467503     1.007825032230
         H           -2.405023268822     0.829386911619    -0.901631467503     1.007825032230
         H           -2.405041268822    -0.833374088381    -0.901621467503     1.007825032230

  Basis Set: AUG-CC-PVTZ
    Blend: AUG-CC-PVTZ
  Basis Set: (AUG-CC-PVTZ AUX)
    Blend: AUG-CC-PVTZ-JKFIT
	 Reference Energy          =    -289.7091660874589252 [Eh]
	 Singles Energy            =      -0.0000000000000000 [Eh]
	 Same-Spin Energy          =      -0.3077677471949883 [Eh]
	 Opposite-Spin Energy      =      -1.0940434688332124 [Eh]
	 Correlation Energy        =      -1.4018112160282006 [Eh]
	 Total Energy              =    -291.1109773034871182 [Eh]

	 ================> DF-SCS-MP2 Energies <==================
	-----------------------------------------------------------
	 SCS Same-Spin Scale       =       0.3333333333333333 [-]
	 SCS Opposite-Spin Scale   =       1.2000000000000000 [-]
	 SCS Same-Spin Energy      =      -0.1025892490649961 [Eh]
	 SCS Opposite-Spin Energy  =      -1.3128521625998548 [Eh]
	 SCS Correlation Energy    =      -1.4154414116648508 [Eh]
	 SCS Total Energy          =    -291.1246074991237833 [Eh]
	-----------------------------------------------------------

  Dipole Moment: [D]
     X:    -5.5925      Y:    -0.0048      Z:    -2.0479     Total:     5.9557

*** Psi4 exiting successfully. Buy a developer a beer!
