                               Psi4 1.4a3.dev225

  ==> Input File <==

--------------------------------------------------------------------------
#psi4
#
memory 32 gb

molecule  {
1 1
  N       -1.8084550     0.0000000    -0.7896910
  C       -1.0774430     0.0000000     0.5533100
  C       -0.2407120    -1.2715670     0.6435230
  C       -0.2407120     1.2715670     0.6435240
  C        0.9483640    -1.2633510    -0.3226430
  C        0.9483630     1.2633510    -0.3226440
  C        1.7921720     0.0000000    -0.1500480
  H       -1.9154804     0.0000000     1.3328771
  H       -0.8715790    -2.1591400     0.5029120
  H        0.1300900    -1.3254650     1.6735610
  H        0.1300910     1.3254640     1.6735620
  H       -0.8715790     2.1591400     0.5029130
  H        0.6104140    -1.3458840    -1.3672040
  H        1.5530020    -2.1580160    -0.1459610
  H        1.5530010     2.1580160    -0.1459620
  H        0.6104120     1.3458830    -1.3672040
  H        2.2390370     0.0000010     0.8520310
  H        2.6220820     0.0000000    -0.8633810
  H       -1.1366960    -0.0000120    -1.5675160
  H       -2.4051950     0.8313860    -0.8944410
  H       -2.4052130    -0.8313750    -0.8944310
units angstrom
no_reorient  #important for SAPT in psi4, default
symmetry c1  #important for SAPT in psi4, default
}

set PROPERTIES_ORIGIN ["COM"]
properties('MP2/aug-cc-pvtz', properties = ['dipole'])
--------------------------------------------------------------------------

    Molecular point group: c1
  Charge       = 1
  Multiplicity = 1
  Basis Set: AUG-CC-PVTZ
    Blend: AUG-CC-PVTZ
  Basis Set: (AUG-CC-PVTZ AUX)
    Blend: AUG-CC-PVTZ-JKFIT

    Orbital Energies [Eh]
    ---------------------

    Doubly Occupied:

       1A    -15.874799     2A    -11.472126     3A    -11.390754
       4A    -11.390742     5A    -11.371909     6A    -11.371906
       7A    -11.358044     8A     -1.492252     9A     -1.277235
      10A     -1.172883    11A     -1.168727    12A     -1.006936
      13A     -1.006445    14A     -0.950918    15A     -0.934337
      16A     -0.918324    17A     -0.815439    18A     -0.807365
      19A     -0.763233    20A     -0.756531    21A     -0.696434
      22A     -0.695793    23A     -0.687242    24A     -0.686226
      25A     -0.646711    26A     -0.611057    27A     -0.595767
      28A     -0.593926

  @DF-RHF Final Energy:  -289.70741510796620

   => Energetics <=

    Nuclear Repulsion Energy =            346.4355226269075843
    One-Electron Energy =               -1067.2577536599083032
    Two-Electron Energy =                 431.1148159250344634
    Total Energy =                       -289.7074151079661988
  Basis Set: (AUG-CC-PVTZ AUX)
    Blend: AUG-CC-PVTZ-RI
    Molecular point group: c1

    Geometry (in Angstrom), charge = 1, multiplicity = 1:

       Center              X                  Y                   Z               Mass
    ------------   -----------------  -----------------  -----------------  -----------------
         N           -1.809230207640     0.000000020134    -0.797366121486    14.003074004430
         C           -1.078218207640     0.000000020134     0.545634878514    12.000000000000
         C           -0.241487207640    -1.271566979866     0.635847878514    12.000000000000
         C           -0.241487207640     1.271567020134     0.635848878514    12.000000000000
         C            0.947588792360    -1.263350979866    -0.330318121486    12.000000000000
         C            0.947587792360     1.263351020134    -0.330319121486    12.000000000000
         C            1.791396792360     0.000000020134    -0.157723121486    12.000000000000
         H           -1.916255607640     0.000000020134     1.325201978514     1.007825032230
         H           -0.872354207640    -2.159139979866     0.495236878514     1.007825032230
         H            0.129314792360    -1.325464979866     1.665885878514     1.007825032230
         H            0.129315792360     1.325464020134     1.665886878514     1.007825032230
         H           -0.872354207640     2.159140020134     0.495237878514     1.007825032230
         H            0.609638792360    -1.345883979866    -1.374879121486     1.007825032230
         H            1.552226792360    -2.158015979866    -0.153636121486     1.007825032230
         H            1.552225792360     2.158016020134    -0.153637121486     1.007825032230
         H            0.609636792360     1.345883020134    -1.374879121486     1.007825032230
         H            2.238261792360     0.000001020134     0.844355878514     1.007825032230
         H            2.621306792360     0.000000020134    -0.871056121486     1.007825032230
         H           -1.137471207640    -0.000011979866    -1.575191121486     1.007825032230
         H           -2.405970207640     0.831386020134    -0.902116121486     1.007825032230
         H           -2.405988207640    -0.831374979866    -0.902106121486     1.007825032230

  Basis Set: AUG-CC-PVTZ
    Blend: AUG-CC-PVTZ
  Basis Set: (AUG-CC-PVTZ AUX)
    Blend: AUG-CC-PVTZ-JKFIT
	 Reference Energy          =    -289.7074151079661988 [Eh]
	 Singles Energy            =      -0.0000000000000000 [Eh]
	 Same-Spin Energy          =      -0.3077359255895284 [Eh]
	 Opposite-Spin Energy      =      -1.0943620746406459 [Eh]
	 Correlation Energy        =      -1.4020980002301744 [Eh]
	 Total Energy              =    -291.1095131081963814 [Eh]

	 ================> DF-SCS-MP2 Energies <==================
	-----------------------------------------------------------
	 SCS Same-Spin Scale       =       0.3333333333333333 [-]
	 SCS Opposite-Spin Scale   =       1.2000000000000000 [-]
	 SCS Same-Spin Energy      =      -0.1025786418631761 [Eh]
	 SCS Opposite-Spin Energy  =      -1.3132344895687751 [Eh]
	 SCS Correlation Energy    =      -1.4158131314319513 [Eh]
	 SCS Total Energy          =    -291.1232282393981450 [Eh]
	-----------------------------------------------------------

  Dipole Moment: [D]
     X:    -5.5835      Y:    -0.0000      Z:    -2.0555     Total:     5.9499

*** Psi4 exiting successfully. Buy a developer a beer!
