                               Psi4 1.4a3.dev225

  ==> Input File <==

--------------------------------------------------------------------------
#psi4
#
memory 32 gb

molecule  {
1 1
  N       -1.8514450     0.0936936    -0.7620503
  C       -1.0774430     0.0000000     0.5533100
  C       -0.2407120    -1.2715670     0.6435230
  C       -0.2407120     1.2715670     0.6435240
  C        0.9483640    -1.2633510    -0.3226430
  C        0.9483630     1.2633510    -0.3226440
  C        1.7921720     0.0000000    -0.1500480
  H       -1.8788710     0.0000000     1.2988220
  H       -0.8715790    -2.1591400     0.5029120
  H        0.1300900    -1.3254650     1.6735610
  H        0.1300910     1.3254640     1.6735620
  H       -0.8715790     2.1591400     0.5029130
  H        0.6104140    -1.3458840    -1.3672040
  H        1.5530020    -2.1580160    -0.1459610
  H        1.5530010     2.1580160    -0.1459620
  H        0.6104120     1.3458830    -1.3672040
  H        2.2390370     0.0000010     0.8520310
  H        2.6220820     0.0000000    -0.8633810
  H       -1.1366960    -0.0000120    -1.5675160
  H       -2.4051950     0.8313860    -0.8944410
  H       -2.4052130    -0.8313750    -0.8944310
units angstrom
no_reorient  #important for SAPT in psi4, default
symmetry c1  #important for SAPT in psi4, default
}

set PROPERTIES_ORIGIN ["COM"]
properties('MP2/aug-cc-pvtz', properties = ['dipole'])
--------------------------------------------------------------------------

    Molecular point group: c1
  Charge       = 1
  Multiplicity = 1
  Basis Set: AUG-CC-PVTZ
    Blend: AUG-CC-PVTZ
  Basis Set: (AUG-CC-PVTZ AUX)
    Blend: AUG-CC-PVTZ-JKFIT

    Orbital Energies [Eh]
    ---------------------

    Doubly Occupied:

       1A    -15.874000     2A    -11.467092     3A    -11.393809
       4A    -11.388756     5A    -11.372950     6A    -11.371112
       7A    -11.358193     8A     -1.493393     9A     -1.278940
      10A     -1.173199    11A     -1.171277    12A     -1.012061
      13A     -1.007666    14A     -0.970874    15A     -0.919354
      16A     -0.910255    17A     -0.817581    18A     -0.806557
      19A     -0.765500    20A     -0.755801    21A     -0.698138
      22A     -0.697043    23A     -0.688979    24A     -0.685000
      25A     -0.646771    26A     -0.611075    27A     -0.595852
      28A     -0.595135

  @DF-RHF Final Energy:  -289.69255386154964

   => Energetics <=

    Nuclear Repulsion Energy =            346.3389493126464913
    One-Electron Energy =               -1067.0102776244434608
    Two-Electron Energy =                 430.9787744502473288
    Total Energy =                       -289.6925538615496407
  Basis Set: (AUG-CC-PVTZ AUX)
    Blend: AUG-CC-PVTZ-RI
    Molecular point group: c1

    Geometry (in Angstrom), charge = 1, multiplicity = 1:

       Center              X                  Y                   Z               Mass
    ------------   -----------------  -----------------  -----------------  -----------------
         N           -1.846575602030     0.080588395676    -0.773248785171    14.003074004430
         C           -1.072573602030    -0.013105204324     0.542111514829    12.000000000000
         C           -0.235842602030    -1.284672204324     0.632324514829    12.000000000000
         C           -0.235842602030     1.258461795676     0.632325514829    12.000000000000
         C            0.953233397970    -1.276456204324    -0.333841485171    12.000000000000
         C            0.953232397970     1.250245795676    -0.333842485171    12.000000000000
         C            1.797041397970    -0.013105204324    -0.161246485171    12.000000000000
         H           -1.874001602030    -0.013105204324     1.287623514829     1.007825032230
         H           -0.866709602030    -2.172245204324     0.491713514829     1.007825032230
         H            0.134959397970    -1.338570204324     1.662362514829     1.007825032230
         H            0.134960397970     1.312358795676     1.662363514829     1.007825032230
         H           -0.866709602030     2.146034795676     0.491714514829     1.007825032230
         H            0.615283397970    -1.358989204324    -1.378402485171     1.007825032230
         H            1.557871397970    -2.171121204324    -0.157159485171     1.007825032230
         H            1.557870397970     2.144910795676    -0.157160485171     1.007825032230
         H            0.615281397970     1.332777795676    -1.378402485171     1.007825032230
         H            2.243906397970    -0.013104204324     0.840832514829     1.007825032230
         H            2.626951397970    -0.013105204324    -0.874579485171     1.007825032230
         H           -1.131826602030    -0.013117204324    -1.578714485171     1.007825032230
         H           -2.400325602030     0.818280795676    -0.905639485171     1.007825032230
         H           -2.400343602030    -0.844480204324    -0.905629485171     1.007825032230

  Basis Set: AUG-CC-PVTZ
    Blend: AUG-CC-PVTZ
  Basis Set: (AUG-CC-PVTZ AUX)
    Blend: AUG-CC-PVTZ-JKFIT
	 Reference Energy          =    -289.6925538615496407 [Eh]
	 Singles Energy            =      -0.0000000000000000 [Eh]
	 Same-Spin Energy          =      -0.3079642473250125 [Eh]
	 Opposite-Spin Energy      =      -1.0947812958229655 [Eh]
	 Correlation Energy        =      -1.4027455431479781 [Eh]
	 Total Energy              =    -291.0952994046976414 [Eh]

	 ================> DF-SCS-MP2 Energies <==================
	-----------------------------------------------------------
	 SCS Same-Spin Scale       =       0.3333333333333333 [-]
	 SCS Opposite-Spin Scale   =       1.2000000000000000 [-]
	 SCS Same-Spin Energy      =      -0.1026547491083375 [Eh]
	 SCS Opposite-Spin Energy  =      -1.3137375549875585 [Eh]
	 SCS Correlation Energy    =      -1.4163923040958961 [Eh]
	 SCS Total Energy          =    -291.1089461656455342 [Eh]
	-----------------------------------------------------------

  Dipole Moment: [D]
     X:    -5.5102      Y:    -0.1591      Z:    -2.0701     Total:     5.8884

*** Psi4 exiting successfully. Buy a developer a beer!
