                               Psi4 1.4a3.dev225

  ==> Input File <==

--------------------------------------------------------------------------
#psi4
#
memory 32 gb

molecule  {
1 1
  N       -1.8084550     0.0000000    -0.7896910
  C       -1.1704522    -0.0631834     0.6665878
  C       -0.2407120    -1.2715670     0.6435230
  C       -0.2407120     1.2715670     0.6435240
  C        0.9483640    -1.2633510    -0.3226430
  C        0.9483630     1.2633510    -0.3226440
  C        1.7921720     0.0000000    -0.1500480
  H       -1.8788710     0.0000000     1.2988220
  H       -0.8715790    -2.1591400     0.5029120
  H        0.1300900    -1.3254650     1.6735610
  H        0.1300910     1.3254640     1.6735620
  H       -0.8715790     2.1591400     0.5029130
  H        0.6104140    -1.3458840    -1.3672040
  H        1.5530020    -2.1580160    -0.1459610
  H        1.5530010     2.1580160    -0.1459620
  H        0.6104120     1.3458830    -1.3672040
  H        2.2390370     0.0000010     0.8520310
  H        2.6220820     0.0000000    -0.8633810
  H       -1.1366960    -0.0000120    -1.5675160
  H       -2.4051950     0.8313860    -0.8944410
  H       -2.4052130    -0.8313750    -0.8944310
units angstrom
no_reorient  #important for SAPT in psi4, default
symmetry c1  #important for SAPT in psi4, default
}

set PROPERTIES_ORIGIN ["COM"]
properties('MP2/aug-cc-pvtz', properties = ['dipole'])
--------------------------------------------------------------------------

    Molecular point group: c1
  Charge       = 1
  Multiplicity = 1
  Basis Set: AUG-CC-PVTZ
    Blend: AUG-CC-PVTZ
  Basis Set: (AUG-CC-PVTZ AUX)
    Blend: AUG-CC-PVTZ-JKFIT

    Orbital Energies [Eh]
    ---------------------

    Doubly Occupied:

       1A    -15.865517     2A    -11.467464     3A    -11.395575
       4A    -11.393115     5A    -11.375519     6A    -11.373772
       7A    -11.358497     8A     -1.475105     9A     -1.271268
      10A     -1.178726    11A     -1.165513    12A     -1.024285
      13A     -1.002535    14A     -0.934663    15A     -0.926114
      16A     -0.916341    17A     -0.844845    18A     -0.801558
      19A     -0.766565    20A     -0.752721    21A     -0.717510
      22A     -0.691826    23A     -0.685715    24A     -0.670348
      25A     -0.642743    26A     -0.612247    27A     -0.605317
      28A     -0.587093

  @DF-RHF Final Energy:  -289.67890391220470

   => Energetics <=

    Nuclear Repulsion Energy =            344.5662409436808389
    One-Electron Energy =               -1063.4852981495675976
    Two-Electron Energy =                 429.2401532936819990
    Total Energy =                       -289.6789039122047029
  Basis Set: (AUG-CC-PVTZ AUX)
    Blend: AUG-CC-PVTZ-RI
    Molecular point group: c1

    Geometry (in Angstrom), charge = 1, multiplicity = 1:

       Center              X                  Y                   Z               Mass
    ------------   -----------------  -----------------  -----------------  -----------------
         N           -1.798450203259     0.007573498545    -0.810601335576    14.003074004430
         C           -1.160447403259    -0.055609901455     0.645677464424    12.000000000000
         C           -0.230707203259    -1.263993501455     0.622612664424    12.000000000000
         C           -0.230707203259     1.279140498545     0.622613664424    12.000000000000
         C            0.958368796741    -1.255777501455    -0.343553335576    12.000000000000
         C            0.958367796741     1.270924498545    -0.343554335576    12.000000000000
         C            1.802176796741     0.007573498545    -0.170958335576    12.000000000000
         H           -1.868866203259     0.007573498545     1.277911664424     1.007825032230
         H           -0.861574203259    -2.151566501455     0.482001664424     1.007825032230
         H            0.140094796741    -1.317891501455     1.652650664424     1.007825032230
         H            0.140095796741     1.333037498545     1.652651664424     1.007825032230
         H           -0.861574203259     2.166713498545     0.482002664424     1.007825032230
         H            0.620418796741    -1.338310501455    -1.388114335576     1.007825032230
         H            1.563006796741    -2.150442501455    -0.166871335576     1.007825032230
         H            1.563005796741     2.165589498545    -0.166872335576     1.007825032230
         H            0.620416796741     1.353456498545    -1.388114335576     1.007825032230
         H            2.249041796741     0.007574498545     0.831120664424     1.007825032230
         H            2.632086796741     0.007573498545    -0.884291335576     1.007825032230
         H           -1.126691203259     0.007561498545    -1.588426335576     1.007825032230
         H           -2.395190203259     0.838959498545    -0.915351335576     1.007825032230
         H           -2.395208203259    -0.823801501455    -0.915341335576     1.007825032230

  Basis Set: AUG-CC-PVTZ
    Blend: AUG-CC-PVTZ
  Basis Set: (AUG-CC-PVTZ AUX)
    Blend: AUG-CC-PVTZ-JKFIT
	 Reference Energy          =    -289.6789039122047029 [Eh]
	 Singles Energy            =      -0.0000000000000000 [Eh]
	 Same-Spin Energy          =      -0.3070081342055646 [Eh]
	 Opposite-Spin Energy      =      -1.0945291129220873 [Eh]
	 Correlation Energy        =      -1.4015372471276519 [Eh]
	 Total Energy              =    -291.0804411593323380 [Eh]

	 ================> DF-SCS-MP2 Energies <==================
	-----------------------------------------------------------
	 SCS Same-Spin Scale       =       0.3333333333333333 [-]
	 SCS Opposite-Spin Scale   =       1.2000000000000000 [-]
	 SCS Same-Spin Energy      =      -0.1023360447351882 [Eh]
	 SCS Opposite-Spin Energy  =      -1.3134349355065047 [Eh]
	 SCS Correlation Energy    =      -1.4157709802416929 [Eh]
	 SCS Total Energy          =    -291.0946748924463918 [Eh]
	-----------------------------------------------------------

  Dipole Moment: [D]
     X:    -5.4779      Y:    -0.0204      Z:    -1.9681     Total:     5.8207

*** Psi4 exiting successfully. Buy a developer a beer!
