                               Psi4 1.4a3.dev225

  ==> Input File <==

--------------------------------------------------------------------------
#psi4
#
memory 32 gb

molecule  {
1 1
  N       -1.7849051     0.0000000    -0.8022444
  C       -1.0774430     0.0000000     0.5533100
  C       -0.2407120    -1.2715670     0.6435230
  C       -0.2407120     1.2715670     0.6435240
  C        0.9483640    -1.2633510    -0.3226430
  C        0.9483630     1.2633510    -0.3226440
  C        1.7921720     0.0000000    -0.1500480
  H       -1.8788710     0.0000000     1.2988220
  H       -0.8715790    -2.1591400     0.5029120
  H        0.1300900    -1.3254650     1.6735610
  H        0.1300910     1.3254640     1.6735620
  H       -0.8715790     2.1591400     0.5029130
  H        0.6104140    -1.3458840    -1.3672040
  H        1.5530020    -2.1580160    -0.1459610
  H        1.5530010     2.1580160    -0.1459620
  H        0.6104120     1.3458830    -1.3672040
  H        2.2390370     0.0000010     0.8520310
  H        2.6220820     0.0000000    -0.8633810
  H       -1.1366960    -0.0000120    -1.5675160
  H       -2.4051950     0.8313860    -0.8944410
  H       -2.4052130    -0.8313750    -0.8944310
units angstrom
no_reorient  #important for SAPT in psi4, default
symmetry c1  #important for SAPT in psi4, default
}

set PROPERTIES_ORIGIN ["COM"]
properties('MP2/aug-cc-pvtz', properties = ['dipole'])
--------------------------------------------------------------------------

    Molecular point group: c1
  Charge       = 1
  Multiplicity = 1
  Basis Set: AUG-CC-PVTZ
    Blend: AUG-CC-PVTZ
  Basis Set: (AUG-CC-PVTZ AUX)
    Blend: AUG-CC-PVTZ-JKFIT

    Orbital Energies [Eh]
    ---------------------

    Doubly Occupied:

       1A    -15.874671     2A    -11.466947     3A    -11.390176
       4A    -11.390164     5A    -11.371531     6A    -11.371528
       7A    -11.357765     8A     -1.492822     9A     -1.277386
      10A     -1.172541    11A     -1.170835    12A     -1.011605
      13A     -1.005531    14A     -0.954960    15A     -0.926818
      16A     -0.919806    17A     -0.817996    18A     -0.814030
      19A     -0.763779    20A     -0.755542    21A     -0.699313
      22A     -0.695886    23A     -0.686135    24A     -0.685992
      25A     -0.646366    26A     -0.610992    27A     -0.595394
      28A     -0.594862

  @DF-RHF Final Energy:  -289.70868650670678

   => Energetics <=

    Nuclear Repulsion Energy =            346.9112758637730280
    One-Electron Energy =               -1068.1971799373809517
    Two-Electron Energy =                 431.5772175669011972
    Total Energy =                       -289.7086865067067833
  Basis Set: (AUG-CC-PVTZ AUX)
    Blend: AUG-CC-PVTZ-RI
    Molecular point group: c1

    Geometry (in Angstrom), charge = 1, multiplicity = 1:

       Center              X                  Y                   Z               Mass
    ------------   -----------------  -----------------  -----------------  -----------------
         N           -1.789342851343     0.000000020134    -0.807820807437    14.003074004430
         C           -1.081880751343     0.000000020134     0.547733592563    12.000000000000
         C           -0.245149751343    -1.271566979866     0.637946592563    12.000000000000
         C           -0.245149751343     1.271567020134     0.637947592563    12.000000000000
         C            0.943926248657    -1.263350979866    -0.328219407437    12.000000000000
         C            0.943925248657     1.263351020134    -0.328220407437    12.000000000000
         C            1.787734248657     0.000000020134    -0.155624407437    12.000000000000
         H           -1.883308751343     0.000000020134     1.293245592563     1.007825032230
         H           -0.876016751343    -2.159139979866     0.497335592563     1.007825032230
         H            0.125652248657    -1.325464979866     1.667984592563     1.007825032230
         H            0.125653248657     1.325464020134     1.667985592563     1.007825032230
         H           -0.876016751343     2.159140020134     0.497336592563     1.007825032230
         H            0.605976248657    -1.345883979866    -1.372780407437     1.007825032230
         H            1.548564248657    -2.158015979866    -0.151537407437     1.007825032230
         H            1.548563248657     2.158016020134    -0.151538407437     1.007825032230
         H            0.605974248657     1.345883020134    -1.372780407437     1.007825032230
         H            2.234599248657     0.000001020134     0.846454592563     1.007825032230
         H            2.617644248657     0.000000020134    -0.868957407437     1.007825032230
         H           -1.141133751343    -0.000011979866    -1.573092407437     1.007825032230
         H           -2.409632751343     0.831386020134    -0.900017407437     1.007825032230
         H           -2.409650751343    -0.831374979866    -0.900007407437     1.007825032230

  Basis Set: AUG-CC-PVTZ
    Blend: AUG-CC-PVTZ
  Basis Set: (AUG-CC-PVTZ AUX)
    Blend: AUG-CC-PVTZ-JKFIT
	 Reference Energy          =    -289.7086865067067833 [Eh]
	 Singles Energy            =      -0.0000000000000000 [Eh]
	 Same-Spin Energy          =      -0.3076656573402413 [Eh]
	 Opposite-Spin Energy      =      -1.0939911818338293 [Eh]
	 Correlation Energy        =      -1.4016568391740707 [Eh]
	 Total Energy              =    -291.1103433458808354 [Eh]

	 ================> DF-SCS-MP2 Energies <==================
	-----------------------------------------------------------
	 SCS Same-Spin Scale       =       0.3333333333333333 [-]
	 SCS Opposite-Spin Scale   =       1.2000000000000000 [-]
	 SCS Same-Spin Energy      =      -0.1025552191134138 [Eh]
	 SCS Opposite-Spin Energy  =      -1.3127894182005950 [Eh]
	 SCS Correlation Energy    =      -1.4153446373140088 [Eh]
	 SCS Total Energy          =    -291.1240311440208188 [Eh]
	-----------------------------------------------------------

  Dipole Moment: [D]
     X:    -5.6384      Y:    -0.0000      Z:    -2.0378     Total:     5.9954

*** Psi4 exiting successfully. Buy a developer a beer!
