                               Psi4 1.4a3.dev225

  ==> Input File <==

--------------------------------------------------------------------------
#psi4
#
memory 32 gb

molecule  {
1 1
  N       -1.8084550     0.0000000    -0.7896910
  C       -1.0774430     0.0000000     0.5533100
  C       -0.2407120    -1.2715670     0.6435230
  C       -0.2407120     1.2715670     0.6435240
  C        1.0823639    -1.3464584    -0.2952342
  C        0.9483630     1.2633510    -0.3226440
  C        1.7921720     0.0000000    -0.1500480
  H       -1.8788710     0.0000000     1.2988220
  H       -0.8715790    -2.1591400     0.5029120
  H        0.1300900    -1.3254650     1.6735610
  H        0.1300910     1.3254640     1.6735620
  H       -0.8715790     2.1591400     0.5029130
  H        0.6104140    -1.3458840    -1.3672040
  H        1.5530020    -2.1580160    -0.1459610
  H        1.5530010     2.1580160    -0.1459620
  H        0.6104120     1.3458830    -1.3672040
  H        2.2390370     0.0000010     0.8520310
  H        2.6220820     0.0000000    -0.8633810
  H       -1.1366960    -0.0000120    -1.5675160
  H       -2.4051950     0.8313860    -0.8944410
  H       -2.4052130    -0.8313750    -0.8944310
units angstrom
no_reorient  #important for SAPT in psi4, default
symmetry c1  #important for SAPT in psi4, default
}

set PROPERTIES_ORIGIN ["COM"]
properties('MP2/aug-cc-pvtz', properties = ['dipole'])
--------------------------------------------------------------------------

    Molecular point group: c1
  Charge       = 1
  Multiplicity = 1
  Basis Set: AUG-CC-PVTZ
    Blend: AUG-CC-PVTZ
  Basis Set: (AUG-CC-PVTZ AUX)
    Blend: AUG-CC-PVTZ-JKFIT

    Orbital Energies [Eh]
    ---------------------

    Doubly Occupied:

       1A    -15.874390     2A    -11.469185     3A    -11.391539
       4A    -11.391219     5A    -11.375779     6A    -11.374210
       7A    -11.359302     8A     -1.492068     9A     -1.271799
      10A     -1.173209    11A     -1.167049    12A     -1.016324
      13A     -1.007438    14A     -0.950082    15A     -0.934098
      16A     -0.922054    17A     -0.815915    18A     -0.811877
      19A     -0.775882    20A     -0.750615    21A     -0.711961
      22A     -0.698175    23A     -0.690465    24A     -0.675629
      25A     -0.639200    26A     -0.619460    27A     -0.596423
      28A     -0.577974

  @DF-RHF Final Energy:  -289.67944396655173

   => Energetics <=

    Nuclear Repulsion Energy =            344.7461961252277547
    One-Electron Energy =               -1063.7846420390467301
    Two-Electron Energy =                 429.3590019472673021
    Total Energy =                       -289.6794439665517302
  Basis Set: (AUG-CC-PVTZ AUX)
    Blend: AUG-CC-PVTZ-RI
    Molecular point group: c1

    Geometry (in Angstrom), charge = 1, multiplicity = 1:

       Center              X                  Y                   Z               Mass
    ------------   -----------------  -----------------  -----------------  -----------------
         N           -1.825660649642     0.009961688859    -0.800308647660    14.003074004430
         C           -1.094648649642     0.009961688859     0.542692352340    12.000000000000
         C           -0.257917649642    -1.261605311141     0.632905352340    12.000000000000
         C           -0.257917649642     1.281528688859     0.632906352340    12.000000000000
         C            1.065158250358    -1.336496711141    -0.305851847660    12.000000000000
         C            0.931157350358     1.273312688859    -0.333261647660    12.000000000000
         C            1.774966350358     0.009961688859    -0.160665647660    12.000000000000
         H           -1.896076649642     0.009961688859     1.288204352340     1.007825032230
         H           -0.888784649642    -2.149178311141     0.492294352340     1.007825032230
         H            0.112884350358    -1.315503311141     1.662943352340     1.007825032230
         H            0.112885350358     1.335425688859     1.662944352340     1.007825032230
         H           -0.888784649642     2.169101688859     0.492295352340     1.007825032230
         H            0.593208350358    -1.335922311141    -1.377821647660     1.007825032230
         H            1.535796350358    -2.148054311141    -0.156578647660     1.007825032230
         H            1.535795350358     2.167977688859    -0.156579647660     1.007825032230
         H            0.593206350358     1.355844688859    -1.377821647660     1.007825032230
         H            2.221831350358     0.009962688859     0.841413352340     1.007825032230
         H            2.604876350358     0.009961688859    -0.873998647660     1.007825032230
         H           -1.153901649642     0.009949688859    -1.578133647660     1.007825032230
         H           -2.422400649642     0.841347688859    -0.905058647660     1.007825032230
         H           -2.422418649642    -0.821413311141    -0.905048647660     1.007825032230

  Basis Set: AUG-CC-PVTZ
    Blend: AUG-CC-PVTZ
  Basis Set: (AUG-CC-PVTZ AUX)
    Blend: AUG-CC-PVTZ-JKFIT
	 Reference Energy          =    -289.6794439665517302 [Eh]
	 Singles Energy            =      -0.0000000000000000 [Eh]
	 Same-Spin Energy          =      -0.3072985884808366 [Eh]
	 Opposite-Spin Energy      =      -1.0946728182634586 [Eh]
	 Correlation Energy        =      -1.4019714067442952 [Eh]
	 Total Energy              =    -291.0814153732960108 [Eh]

	 ================> DF-SCS-MP2 Energies <==================
	-----------------------------------------------------------
	 SCS Same-Spin Scale       =       0.3333333333333333 [-]
	 SCS Opposite-Spin Scale   =       1.2000000000000000 [-]
	 SCS Same-Spin Energy      =      -0.1024328628269455 [Eh]
	 SCS Opposite-Spin Energy  =      -1.3136073819161502 [Eh]
	 SCS Correlation Energy    =      -1.4160402447430958 [Eh]
	 SCS Total Energy          =    -291.0954842112948313 [Eh]
	-----------------------------------------------------------

  Dipole Moment: [D]
     X:    -5.6454      Y:     0.1141      Z:    -2.0311     Total:     6.0007

*** Psi4 exiting successfully. Buy a developer a beer!
