                               Psi4 1.4a3.dev225

  ==> Input File <==

--------------------------------------------------------------------------
#psi4
#
memory 32 gb

molecule  {
1 1
  N       -1.8084550     0.0000000    -0.7896910
  C       -1.0774430     0.0000000     0.5533100
  C       -0.2407120    -1.2715670     0.6435230
  C       -0.2229164     1.3178510     0.6635516
  C        0.9483640    -1.2633510    -0.3226430
  C        0.9483630     1.2633510    -0.3226440
  C        1.7921720     0.0000000    -0.1500480
  H       -1.8788710     0.0000000     1.2988220
  H       -0.8715790    -2.1591400     0.5029120
  H        0.1300900    -1.3254650     1.6735610
  H        0.1300910     1.3254640     1.6735620
  H       -0.8715790     2.1591400     0.5029130
  H        0.6104140    -1.3458840    -1.3672040
  H        1.5530020    -2.1580160    -0.1459610
  H        1.5530010     2.1580160    -0.1459620
  H        0.6104120     1.3458830    -1.3672040
  H        2.2390370     0.0000010     0.8520310
  H        2.6220820     0.0000000    -0.8633810
  H       -1.1366960    -0.0000120    -1.5675160
  H       -2.4051950     0.8313860    -0.8944410
  H       -2.4052130    -0.8313750    -0.8944310
units angstrom
no_reorient  #important for SAPT in psi4, default
symmetry c1  #important for SAPT in psi4, default
}

set PROPERTIES_ORIGIN ["COM"]
properties('MP2/aug-cc-pvtz', properties = ['dipole'])
--------------------------------------------------------------------------

    Molecular point group: c1
  Charge       = 1
  Multiplicity = 1
  Basis Set: AUG-CC-PVTZ
    Blend: AUG-CC-PVTZ
  Basis Set: (AUG-CC-PVTZ AUX)
    Blend: AUG-CC-PVTZ-JKFIT

    Orbital Energies [Eh]
    ---------------------

    Doubly Occupied:

       1A    -15.874501     2A    -11.466730     3A    -11.390141
       4A    -11.390127     5A    -11.371495     6A    -11.371328
       7A    -11.358333     8A     -1.491041     9A     -1.273810
      10A     -1.173310    11A     -1.166798    12A     -1.011738
      13A     -1.004664    14A     -0.950417    15A     -0.934696
      16A     -0.918411    17A     -0.814361    18A     -0.810890
      19A     -0.766417    20A     -0.758617    21A     -0.698222
      22A     -0.696785    23A     -0.687779    24A     -0.680694
      25A     -0.649580    26A     -0.611916    27A     -0.598913
      28A     -0.589572

  @DF-RHF Final Energy:  -289.70779999978191

   => Energetics <=

    Nuclear Repulsion Energy =            345.8981996712147406
    One-Electron Energy =               -1066.1894263434567165
    Two-Electron Energy =                 430.5834266724600070
    Total Energy =                       -289.7077999997819120
  Basis Set: (AUG-CC-PVTZ AUX)
    Blend: AUG-CC-PVTZ-RI
    Molecular point group: c1

    Geometry (in Angstrom), charge = 1, multiplicity = 1:

       Center              X                  Y                   Z               Mass
    ------------   -----------------  -----------------  -----------------  -----------------
         N           -1.811731820909    -0.005547811651    -0.799423900102    14.003074004430
         C           -1.080719820909    -0.005547811651     0.543577099898    12.000000000000
         C           -0.243988820909    -1.277114811651     0.633790099898    12.000000000000
         C           -0.226193220909     1.312303188349     0.653818699898    12.000000000000
         C            0.945087179091    -1.268898811651    -0.332375900102    12.000000000000
         C            0.945086179091     1.257803188349    -0.332376900102    12.000000000000
         C            1.788895179091    -0.005547811651    -0.159780900102    12.000000000000
         H           -1.882147820909    -0.005547811651     1.289089099898     1.007825032230
         H           -0.874855820909    -2.164687811651     0.493179099898     1.007825032230
         H            0.126813179091    -1.331012811651     1.663828099898     1.007825032230
         H            0.126814179091     1.319916188349     1.663829099898     1.007825032230
         H           -0.874855820909     2.153592188349     0.493180099898     1.007825032230
         H            0.607137179091    -1.351431811651    -1.376936900102     1.007825032230
         H            1.549725179091    -2.163563811651    -0.155693900102     1.007825032230
         H            1.549724179091     2.152468188349    -0.155694900102     1.007825032230
         H            0.607135179091     1.340335188349    -1.376936900102     1.007825032230
         H            2.235760179091    -0.005546811651     0.842298099898     1.007825032230
         H            2.618805179091    -0.005547811651    -0.873113900102     1.007825032230
         H           -1.139972820909    -0.005559811651    -1.577248900102     1.007825032230
         H           -2.408471820909     0.825838188349    -0.904173900102     1.007825032230
         H           -2.408489820909    -0.836922811651    -0.904163900102     1.007825032230

  Basis Set: AUG-CC-PVTZ
    Blend: AUG-CC-PVTZ
  Basis Set: (AUG-CC-PVTZ AUX)
    Blend: AUG-CC-PVTZ-JKFIT
	 Reference Energy          =    -289.7077999997819120 [Eh]
	 Singles Energy            =      -0.0000000000000000 [Eh]
	 Same-Spin Energy          =      -0.3072906605580056 [Eh]
	 Opposite-Spin Energy      =      -1.0936460383423685 [Eh]
	 Correlation Energy        =      -1.4009366989003742 [Eh]
	 Total Energy              =    -291.1087366986822644 [Eh]

	 ================> DF-SCS-MP2 Energies <==================
	-----------------------------------------------------------
	 SCS Same-Spin Scale       =       0.3333333333333333 [-]
	 SCS Opposite-Spin Scale   =       1.2000000000000000 [-]
	 SCS Same-Spin Energy      =      -0.1024302201860019 [Eh]
	 SCS Opposite-Spin Energy  =      -1.3123752460108422 [Eh]
	 SCS Correlation Energy    =      -1.4148054661968441 [Eh]
	 SCS Total Energy          =    -291.1226054659787792 [Eh]
	-----------------------------------------------------------

  Dipole Moment: [D]
     X:    -5.6093      Y:    -0.0083      Z:    -2.0685     Total:     5.9785

*** Psi4 exiting successfully. Buy a developer a beer!
