                               Psi4 1.4a3.dev225

  ==> Input File <==

--------------------------------------------------------------------------
#psi4
#
memory 32 gb

molecule  {
1 1
  N       -1.8084550     0.0000000    -0.7896910
  C       -1.0774430     0.0000000     0.5533100
  C       -0.2297373    -1.2882450     0.6447062
  C       -0.2407120     1.2715670     0.6435240
  C        0.9483640    -1.2633510    -0.3226430
  C        0.9483630     1.2633510    -0.3226440
  C        1.7921720     0.0000000    -0.1500480
  H       -1.8788710     0.0000000     1.2988220
  H       -0.8715790    -2.1591400     0.5029120
  H        0.1300900    -1.3254650     1.6735610
  H        0.1300910     1.3254640     1.6735620
  H       -0.8715790     2.1591400     0.5029130
  H        0.6104140    -1.3458840    -1.3672040
  H        1.5530020    -2.1580160    -0.1459610
  H        1.5530010     2.1580160    -0.1459620
  H        0.6104120     1.3458830    -1.3672040
  H        2.2390370     0.0000010     0.8520310
  H        2.6220820     0.0000000    -0.8633810
  H       -1.1366960    -0.0000120    -1.5675160
  H       -2.4051950     0.8313860    -0.8944410
  H       -2.4052130    -0.8313750    -0.8944310
units angstrom
no_reorient  #important for SAPT in psi4, default
symmetry c1  #important for SAPT in psi4, default
}

set PROPERTIES_ORIGIN ["COM"]
properties('MP2/aug-cc-pvtz', properties = ['dipole'])
--------------------------------------------------------------------------

    Molecular point group: c1
  Charge       = 1
  Multiplicity = 1
  Basis Set: AUG-CC-PVTZ
    Blend: AUG-CC-PVTZ
  Basis Set: (AUG-CC-PVTZ AUX)
    Blend: AUG-CC-PVTZ-JKFIT

    Orbital Energies [Eh]
    ---------------------

    Doubly Occupied:

       1A    -15.874426     2A    -11.466894     3A    -11.390611
       4A    -11.390335     5A    -11.371579     6A    -11.371249
       7A    -11.358093     8A     -1.491853     9A     -1.276493
      10A     -1.173562    11A     -1.169006    12A     -1.010741
      13A     -1.005665    14A     -0.950688    15A     -0.934280
      16A     -0.918384    17A     -0.814832    18A     -0.813048
      19A     -0.764887    20A     -0.756951    21A     -0.698143
      22A     -0.695478    23A     -0.687865    24A     -0.685271
      25A     -0.647202    26A     -0.611350    27A     -0.596965
      28A     -0.593463

  @DF-RHF Final Energy:  -289.70958140078403

   => Energetics <=

    Nuclear Repulsion Energy =            346.4733704223885411
    One-Electron Energy =               -1067.3272779618735058
    Two-Electron Energy =                 431.1443261387008761
    Total Energy =                       -289.7095814007840318
  Basis Set: (AUG-CC-PVTZ AUX)
    Blend: AUG-CC-PVTZ-RI
    Molecular point group: c1

    Geometry (in Angstrom), charge = 1, multiplicity = 1:

       Center              X                  Y                   Z               Mass
    ------------   -----------------  -----------------  -----------------  -----------------
         N           -1.810914233713     0.001999128649    -0.797165116045    14.003074004430
         C           -1.079902233713     0.001999128649     0.545835883955    12.000000000000
         C           -0.232196533713    -1.286245871351     0.637232083955    12.000000000000
         C           -0.243171233713     1.273566128649     0.636049883955    12.000000000000
         C            0.945904766287    -1.261351871351    -0.330117116045    12.000000000000
         C            0.945903766287     1.265350128649    -0.330118116045    12.000000000000
         C            1.789712766287     0.001999128649    -0.157522116045    12.000000000000
         H           -1.881330233713     0.001999128649     1.291347883955     1.007825032230
         H           -0.874038233713    -2.157140871351     0.495437883955     1.007825032230
         H            0.127630766287    -1.323465871351     1.666086883955     1.007825032230
         H            0.127631766287     1.327463128649     1.666087883955     1.007825032230
         H           -0.874038233713     2.161139128649     0.495438883955     1.007825032230
         H            0.607954766287    -1.343884871351    -1.374678116045     1.007825032230
         H            1.550542766287    -2.156016871351    -0.153435116045     1.007825032230
         H            1.550541766287     2.160015128649    -0.153436116045     1.007825032230
         H            0.607952766287     1.347882128649    -1.374678116045     1.007825032230
         H            2.236577766287     0.002000128649     0.844556883955     1.007825032230
         H            2.619622766287     0.001999128649    -0.870855116045     1.007825032230
         H           -1.139155233713     0.001987128649    -1.574990116045     1.007825032230
         H           -2.407654233713     0.833385128649    -0.901915116045     1.007825032230
         H           -2.407672233713    -0.829375871351    -0.901905116045     1.007825032230

  Basis Set: AUG-CC-PVTZ
    Blend: AUG-CC-PVTZ
  Basis Set: (AUG-CC-PVTZ AUX)
    Blend: AUG-CC-PVTZ-JKFIT
	 Reference Energy          =    -289.7095814007840318 [Eh]
	 Singles Energy            =      -0.0000000000000000 [Eh]
	 Same-Spin Energy          =      -0.3075366957675324 [Eh]
	 Opposite-Spin Energy      =      -1.0938126017921204 [Eh]
	 Correlation Energy        =      -1.4013492975596527 [Eh]
	 Total Energy              =    -291.1109306983436795 [Eh]

	 ================> DF-SCS-MP2 Energies <==================
	-----------------------------------------------------------
	 SCS Same-Spin Scale       =       0.3333333333333333 [-]
	 SCS Opposite-Spin Scale   =       1.2000000000000000 [-]
	 SCS Same-Spin Energy      =      -0.1025122319225108 [Eh]
	 SCS Opposite-Spin Energy  =      -1.3125751221505444 [Eh]
	 SCS Correlation Energy    =      -1.4150873540730551 [Eh]
	 SCS Total Energy          =    -291.1246687548571117 [Eh]
	-----------------------------------------------------------

  Dipole Moment: [D]
     X:    -5.6044      Y:     0.0036      Z:    -2.0540     Total:     5.9689

*** Psi4 exiting successfully. Buy a developer a beer!
