                               Psi4 1.4a3.dev225

  ==> Input File <==

--------------------------------------------------------------------------
#psi4
#
memory 32 gb

molecule  {
1 1
  N       -1.8084550     0.0000000    -0.7896910
  C       -1.0774430     0.0000000     0.5533100
  C       -0.2407120    -1.2715670     0.6435230
  C       -0.2407120     1.2715670     0.6435240
  C        0.9483640    -1.2633510    -0.3226430
  C        0.9483630     1.2633510    -0.3226440
  C        1.7921720     0.0000000    -0.1500480
  H       -1.8788710     0.0000000     1.2988220
  H       -0.8715790    -2.1591400     0.5029120
  H        0.1300900    -1.3254650     1.6735610
  H        0.1300910     1.3254640     1.6735620
  H       -0.8715790     2.1591400     0.5029130
  H        0.6104140    -1.3458840    -1.3672040
  H        1.5530020    -2.1580160    -0.1459610
  H        1.5806307     2.1988989    -0.1378883
  H        0.6104120     1.3458830    -1.3672040
  H        2.2390370     0.0000010     0.8520310
  H        2.6220820     0.0000000    -0.8633810
  H       -1.1366960    -0.0000120    -1.5675160
  H       -2.4051950     0.8313860    -0.8944410
  H       -2.4052130    -0.8313750    -0.8944310
units angstrom
no_reorient  #important for SAPT in psi4, default
symmetry c1  #important for SAPT in psi4, default
}

set PROPERTIES_ORIGIN ["COM"]
properties('MP2/aug-cc-pvtz', properties = ['dipole'])
--------------------------------------------------------------------------

    Molecular point group: c1
  Charge       = 1
  Multiplicity = 1
  Basis Set: AUG-CC-PVTZ
    Blend: AUG-CC-PVTZ
  Basis Set: (AUG-CC-PVTZ AUX)
    Blend: AUG-CC-PVTZ-JKFIT

    Orbital Energies [Eh]
    ---------------------

    Doubly Occupied:

       1A    -15.874737     2A    -11.467031     3A    -11.390791
       4A    -11.390702     5A    -11.377221     6A    -11.371974
       7A    -11.358202     8A     -1.492639     9A     -1.277511
      10A     -1.172179    11A     -1.169953    12A     -1.010226
      13A     -1.004248    14A     -0.951131    15A     -0.934349
      16A     -0.917241    17A     -0.815690    18A     -0.813163
      19A     -0.761864    20A     -0.755862    21A     -0.698061
      22A     -0.695364    23A     -0.687239    24A     -0.684486
      25A     -0.646378    26A     -0.610858    27A     -0.595427
      28A     -0.592392

  @DF-RHF Final Energy:  -289.70753696529687

   => Energetics <=

    Nuclear Repulsion Energy =            346.4528016376924597
    One-Electron Energy =               -1067.2868424479815985
    Two-Electron Energy =                 431.1265038449922713
    Total Energy =                       -289.7075369652968675
  Basis Set: (AUG-CC-PVTZ AUX)
    Blend: AUG-CC-PVTZ-RI
    Molecular point group: c1

    Geometry (in Angstrom), charge = 1, multiplicity = 1:

       Center              X                  Y                   Z               Mass
    ------------   -----------------  -----------------  -----------------  -----------------
         N           -1.809876897040    -0.000411544444    -0.797104569006    14.003074004430
         C           -1.078864897040    -0.000411544444     0.545896430994    12.000000000000
         C           -0.242133897040    -1.271978544444     0.636109430994    12.000000000000
         C           -0.242133897040     1.271155455556     0.636110430994    12.000000000000
         C            0.946942102960    -1.263762544444    -0.330056569006    12.000000000000
         C            0.946941102960     1.262939455556    -0.330057569006    12.000000000000
         C            1.790750102960    -0.000411544444    -0.157461569006    12.000000000000
         H           -1.880292897040    -0.000411544444     1.291408430994     1.007825032230
         H           -0.873000897040    -2.159551544444     0.495498430994     1.007825032230
         H            0.128668102960    -1.325876544444     1.666147430994     1.007825032230
         H            0.128669102960     1.325052455556     1.666148430994     1.007825032230
         H           -0.873000897040     2.158728455556     0.495499430994     1.007825032230
         H            0.608992102960    -1.346295544444    -1.374617569006     1.007825032230
         H            1.551580102960    -2.158427544444    -0.153374569006     1.007825032230
         H            1.579208802960     2.198487355556    -0.145301869006     1.007825032230
         H            0.608990102960     1.345471455556    -1.374617569006     1.007825032230
         H            2.237615102960    -0.000410544444     0.844617430994     1.007825032230
         H            2.620660102960    -0.000411544444    -0.870794569006     1.007825032230
         H           -1.138117897040    -0.000423544444    -1.574929569006     1.007825032230
         H           -2.406616897040     0.830974455556    -0.901854569006     1.007825032230
         H           -2.406634897040    -0.831786544444    -0.901844569006     1.007825032230

  Basis Set: AUG-CC-PVTZ
    Blend: AUG-CC-PVTZ
  Basis Set: (AUG-CC-PVTZ AUX)
    Blend: AUG-CC-PVTZ-JKFIT
	 Reference Energy          =    -289.7075369652968675 [Eh]
	 Singles Energy            =      -0.0000000000000000 [Eh]
	 Same-Spin Energy          =      -0.3076802123022749 [Eh]
	 Opposite-Spin Energy      =      -1.0942923100293616 [Eh]
	 Correlation Energy        =      -1.4019725223316364 [Eh]
	 Total Energy              =    -291.1095094876284861 [Eh]

	 ================> DF-SCS-MP2 Energies <==================
	-----------------------------------------------------------
	 SCS Same-Spin Scale       =       0.3333333333333333 [-]
	 SCS Opposite-Spin Scale   =       1.2000000000000000 [-]
	 SCS Same-Spin Energy      =      -0.1025600707674250 [Eh]
	 SCS Opposite-Spin Energy  =      -1.3131507720352338 [Eh]
	 SCS Correlation Energy    =      -1.4157108428026588 [Eh]
	 SCS Total Energy          =    -291.1232478080995065 [Eh]
	-----------------------------------------------------------

  Dipole Moment: [D]
     X:    -5.6066      Y:    -0.0182      Z:    -2.0488     Total:     5.9692

*** Psi4 exiting successfully. Buy a developer a beer!
