                               Psi4 1.4a3.dev225

  ==> Input File <==

--------------------------------------------------------------------------
#psi4
#
memory 32 gb

molecule  {
1 1
  N       -1.8084550     0.0000000    -0.7896910
  C       -1.0774430     0.0000000     0.5533100
  C       -0.2407120    -1.2715670     0.6435230
  C       -0.2407120     1.2715670     0.6435240
  C        0.9483640    -1.2633510    -0.3226430
  C        0.9483630     1.2633510    -0.3226440
  C        1.7921720     0.0000000    -0.1500480
  H       -1.8788710     0.0000000     1.2988220
  H       -0.8715790    -2.1591400     0.5029120
  H        0.1300900    -1.3254650     1.6735610
  H        0.1300910     1.3254640     1.6735620
  H       -0.8715790     2.1591400     0.5029130
  H        0.6104140    -1.3458840    -1.3672040
  H        1.5530020    -2.1580160    -0.1459610
  H        1.5530010     2.1580160    -0.1459620
  H        0.6104120     1.3458830    -1.3672040
  H        2.2390370     0.0000010     0.8520310
  H        2.6220820     0.0000000    -0.8633810
  H       -1.1366960    -0.0000120    -1.5675160
  H       -2.4051950     0.8313860    -0.8944410
  H       -2.3936111    -0.8152118    -0.8923947
units angstrom
no_reorient  #important for SAPT in psi4, default
symmetry c1  #important for SAPT in psi4, default
}

set PROPERTIES_ORIGIN ["COM"]
properties('MP2/aug-cc-pvtz', properties = ['dipole'])
--------------------------------------------------------------------------

    Molecular point group: c1
  Charge       = 1
  Multiplicity = 1
  Basis Set: AUG-CC-PVTZ
    Blend: AUG-CC-PVTZ
  Basis Set: (AUG-CC-PVTZ AUX)
    Blend: AUG-CC-PVTZ-JKFIT

    Orbital Energies [Eh]
    ---------------------

    Doubly Occupied:

       1A    -15.873234     2A    -11.467002     3A    -11.390625
       4A    -11.390603     5A    -11.371778     6A    -11.371773
       7A    -11.357972     8A     -1.495623     9A     -1.278198
      10A     -1.172836    11A     -1.171092    12A     -1.010417
      13A     -1.006908    14A     -0.953467    15A     -0.938014
      16A     -0.918621    17A     -0.815912    18A     -0.814196
      19A     -0.764215    20A     -0.756712    21A     -0.698891
      22A     -0.696328    23A     -0.687304    24A     -0.686305
      25A     -0.646706    26A     -0.611129    27A     -0.595657
      28A     -0.595057

  @DF-RHF Final Energy:  -289.71017530288998

   => Energetics <=

    Nuclear Repulsion Energy =            346.8082942589585400
    One-Electron Energy =               -1067.9637921962118980
    Two-Electron Energy =                 431.4453226343633787
    Total Energy =                       -289.7101753028899793
  Basis Set: (AUG-CC-PVTZ AUX)
    Blend: AUG-CC-PVTZ-RI
    Molecular point group: c1

    Geometry (in Angstrom), charge = 1, multiplicity = 1:

       Center              X                  Y                   Z               Mass
    ------------   -----------------  -----------------  -----------------  -----------------
         N           -1.809715546580    -0.000162693387    -0.797043791028    14.003074004430
         C           -1.078703546580    -0.000162693387     0.545957208972    12.000000000000
         C           -0.241972546580    -1.271729693387     0.636170208972    12.000000000000
         C           -0.241972546580     1.271404306613     0.636171208972    12.000000000000
         C            0.947103453420    -1.263513693387    -0.329995791028    12.000000000000
         C            0.947102453420     1.263188306613    -0.329996791028    12.000000000000
         C            1.790911453420    -0.000162693387    -0.157400791028    12.000000000000
         H           -1.880131546580    -0.000162693387     1.291469208972     1.007825032230
         H           -0.872839546580    -2.159302693387     0.495559208972     1.007825032230
         H            0.128829453420    -1.325627693387     1.666208208972     1.007825032230
         H            0.128830453420     1.325301306613     1.666209208972     1.007825032230
         H           -0.872839546580     2.158977306613     0.495560208972     1.007825032230
         H            0.609153453420    -1.346046693387    -1.374556791028     1.007825032230
         H            1.551741453420    -2.158178693387    -0.153313791028     1.007825032230
         H            1.551740453420     2.157853306613    -0.153314791028     1.007825032230
         H            0.609151453420     1.345720306613    -1.374556791028     1.007825032230
         H            2.237776453420    -0.000161693387     0.844678208972     1.007825032230
         H            2.620821453420    -0.000162693387    -0.870733791028     1.007825032230
         H           -1.137956546580    -0.000174693387    -1.574868791028     1.007825032230
         H           -2.406455546580     0.831223306613    -0.901793791028     1.007825032230
         H           -2.394871646580    -0.815374493387    -0.899747491028     1.007825032230

  Basis Set: AUG-CC-PVTZ
    Blend: AUG-CC-PVTZ
  Basis Set: (AUG-CC-PVTZ AUX)
    Blend: AUG-CC-PVTZ-JKFIT
	 Reference Energy          =    -289.7101753028899793 [Eh]
	 Singles Energy            =      -0.0000000000000000 [Eh]
	 Same-Spin Energy          =      -0.3075195226002510 [Eh]
	 Opposite-Spin Energy      =      -1.0935475865275819 [Eh]
	 Correlation Energy        =      -1.4010671091278328 [Eh]
	 Total Energy              =    -291.1112424120178162 [Eh]

	 ================> DF-SCS-MP2 Energies <==================
	-----------------------------------------------------------
	 SCS Same-Spin Scale       =       0.3333333333333333 [-]
	 SCS Opposite-Spin Scale   =       1.2000000000000000 [-]
	 SCS Same-Spin Energy      =      -0.1025065075334170 [Eh]
	 SCS Opposite-Spin Energy  =      -1.3122571038330981 [Eh]
	 SCS Correlation Energy    =      -1.4147636113665152 [Eh]
	 SCS Total Energy          =    -291.1249389142565178 [Eh]
	-----------------------------------------------------------

  Dipole Moment: [D]
     X:    -5.5818      Y:     0.0195      Z:    -2.0475     Total:     5.9455

*** Psi4 exiting successfully. Buy a developer a beer!
