                               Psi4 1.4a3.dev225

  ==> Input File <==

--------------------------------------------------------------------------
#psi4
#
memory 32 gb

molecule  {
1 1
  N       -1.8084550     0.0000000    -0.7896910
  C       -1.0774430     0.0000000     0.5533100
  C       -0.2407120    -1.2715670     0.6435230
  C       -0.2407120     1.2715670     0.6435240
  C        0.9483640    -1.2633510    -0.3226430
  C        0.9483630     1.2633510    -0.3226440
  C        1.7921720     0.0000000    -0.1500480
  H       -1.8788710     0.0000000     1.2988220
  H       -0.8715790    -2.1591400     0.5029120
  H        0.1300900    -1.3254650     1.6735610
  H        0.1300910     1.3254640     1.6735620
  H       -0.8715790     2.1591400     0.5029130
  H        0.6104140    -1.3458840    -1.3672040
  H        1.5530020    -2.1580160    -0.1459610
  H        1.5561227     2.1521658    -0.1280534
  H        0.6104120     1.3458830    -1.3672040
  H        2.2390370     0.0000010     0.8520310
  H        2.6220820     0.0000000    -0.8633810
  H       -1.1366960    -0.0000120    -1.5675160
  H       -2.4051950     0.8313860    -0.8944410
  H       -2.4052130    -0.8313750    -0.8944310
units angstrom
no_reorient  #important for SAPT in psi4, default
symmetry c1  #important for SAPT in psi4, default
}

set PROPERTIES_ORIGIN ["COM"]
properties('MP2/aug-cc-pvtz', properties = ['dipole'])
--------------------------------------------------------------------------

    Molecular point group: c1
  Charge       = 1
  Multiplicity = 1
  Basis Set: AUG-CC-PVTZ
    Blend: AUG-CC-PVTZ
  Basis Set: (AUG-CC-PVTZ AUX)
    Blend: AUG-CC-PVTZ-JKFIT

    Orbital Energies [Eh]
    ---------------------

    Doubly Occupied:

       1A    -15.874582     2A    -11.466695     3A    -11.390462
       4A    -11.390399     5A    -11.371671     6A    -11.371594
       7A    -11.357796     8A     -1.492456     9A     -1.277644
      10A     -1.172709    11A     -1.170673    12A     -1.010131
      13A     -1.006213    14A     -0.951025    15A     -0.934284
      16A     -0.918114    17A     -0.815546    18A     -0.813688
      19A     -0.764588    20A     -0.756689    21A     -0.698453
      22A     -0.696017    23A     -0.687093    24A     -0.685944
      25A     -0.646947    26A     -0.611352    27A     -0.595194
      28A     -0.594742

  @DF-RHF Final Energy:  -289.70971631157681

   => Energetics <=

    Nuclear Repulsion Energy =            346.7108737988351095
    One-Electron Energy =               -1067.7957804383258917
    Two-Electron Energy =                 431.3751903279139697
    Total Energy =                       -289.7097163115768126
  Basis Set: (AUG-CC-PVTZ AUX)
    Blend: AUG-CC-PVTZ-RI
    Molecular point group: c1

    Geometry (in Angstrom), charge = 1, multiplicity = 1:

       Center              X                  Y                   Z               Mass
    ------------   -----------------  -----------------  -----------------  -----------------
         N           -1.809630177148     0.000058913585    -0.797203576083    14.003074004430
         C           -1.078618177148     0.000058913585     0.545797423917    12.000000000000
         C           -0.241887177148    -1.271508086415     0.636010423917    12.000000000000
         C           -0.241887177148     1.271625913585     0.636011423917    12.000000000000
         C            0.947188822852    -1.263292086415    -0.330155576083    12.000000000000
         C            0.947187822852     1.263409913585    -0.330156576083    12.000000000000
         C            1.790996822852     0.000058913585    -0.157560576083    12.000000000000
         H           -1.880046177148     0.000058913585     1.291309423917     1.007825032230
         H           -0.872754177148    -2.159081086415     0.495399423917     1.007825032230
         H            0.128914822852    -1.325406086415     1.666048423917     1.007825032230
         H            0.128915822852     1.325522913585     1.666049423917     1.007825032230
         H           -0.872754177148     2.159198913585     0.495400423917     1.007825032230
         H            0.609238822852    -1.345825086415    -1.374716576083     1.007825032230
         H            1.551826822852    -2.157957086415    -0.153473576083     1.007825032230
         H            1.554947522852     2.152224713585    -0.135565976083     1.007825032230
         H            0.609236822852     1.345941913585    -1.374716576083     1.007825032230
         H            2.237861822852     0.000059913585     0.844518423917     1.007825032230
         H            2.620906822852     0.000058913585    -0.870893576083     1.007825032230
         H           -1.137871177148     0.000046913585    -1.575028576083     1.007825032230
         H           -2.406370177148     0.831444913585    -0.901953576083     1.007825032230
         H           -2.406388177148    -0.831316086415    -0.901943576083     1.007825032230

  Basis Set: AUG-CC-PVTZ
    Blend: AUG-CC-PVTZ
  Basis Set: (AUG-CC-PVTZ AUX)
    Blend: AUG-CC-PVTZ-JKFIT
	 Reference Energy          =    -289.7097163115768126 [Eh]
	 Singles Energy            =      -0.0000000000000000 [Eh]
	 Same-Spin Energy          =      -0.3076352026495588 [Eh]
	 Opposite-Spin Energy      =      -1.0939136517685393 [Eh]
	 Correlation Energy        =      -1.4015488544180981 [Eh]
	 Total Energy              =    -291.1112651659948938 [Eh]

	 ================> DF-SCS-MP2 Energies <==================
	-----------------------------------------------------------
	 SCS Same-Spin Scale       =       0.3333333333333333 [-]
	 SCS Opposite-Spin Scale   =       1.2000000000000000 [-]
	 SCS Same-Spin Energy      =      -0.1025450675498529 [Eh]
	 SCS Opposite-Spin Energy  =      -1.3126963821222470 [Eh]
	 SCS Correlation Energy    =      -1.4152414496721000 [Eh]
	 SCS Total Energy          =    -291.1249577612489361 [Eh]
	-----------------------------------------------------------

  Dipole Moment: [D]
     X:    -5.5990      Y:    -0.0019      Z:    -2.0464     Total:     5.9613

*** Psi4 exiting successfully. Buy a developer a beer!
