                               Psi4 1.4a3.dev225

  ==> Input File <==

--------------------------------------------------------------------------
#psi4
#
memory 32 gb

molecule  {
1 1
  N       -1.8084550     0.0000000    -0.7896910
  C       -1.1013469     0.0000000     0.5093942
  C       -0.2407120    -1.2715670     0.6435230
  C       -0.2407120     1.2715670     0.6435240
  C        0.9483640    -1.2633510    -0.3226430
  C        0.9483630     1.2633510    -0.3226440
  C        1.7921720     0.0000000    -0.1500480
  H       -1.8788710     0.0000000     1.2988220
  H       -0.8715790    -2.1591400     0.5029120
  H        0.1300900    -1.3254650     1.6735610
  H        0.1300910     1.3254640     1.6735620
  H       -0.8715790     2.1591400     0.5029130
  H        0.6104140    -1.3458840    -1.3672040
  H        1.5530020    -2.1580160    -0.1459610
  H        1.5530010     2.1580160    -0.1459620
  H        0.6104120     1.3458830    -1.3672040
  H        2.2390370     0.0000010     0.8520310
  H        2.6220820     0.0000000    -0.8633810
  H       -1.1366960    -0.0000120    -1.5675160
  H       -2.4051950     0.8313860    -0.8944410
  H       -2.4052130    -0.8313750    -0.8944310
units angstrom
no_reorient  #important for SAPT in psi4, default
symmetry c1  #important for SAPT in psi4, default
}

set PROPERTIES_ORIGIN ["COM"]
properties('MP2/aug-cc-pvtz', properties = ['dipole'])
--------------------------------------------------------------------------

    Molecular point group: c1
  Charge       = 1
  Multiplicity = 1
  Basis Set: AUG-CC-PVTZ
    Blend: AUG-CC-PVTZ
  Basis Set: (AUG-CC-PVTZ AUX)
    Blend: AUG-CC-PVTZ-JKFIT

    Orbital Energies [Eh]
    ---------------------

    Doubly Occupied:

       1A    -15.881602     2A    -11.463464     3A    -11.390328
       4A    -11.390317     5A    -11.370768     6A    -11.370765
       7A    -11.357122     8A     -1.506784     9A     -1.273887
      10A     -1.170545    11A     -1.168061    12A     -1.014122
      13A     -1.005264    14A     -0.960125    15A     -0.940672
      16A     -0.920904    17A     -0.820578    18A     -0.809090
      19A     -0.763178    20A     -0.756084    21A     -0.693664
      22A     -0.690422    23A     -0.690224    24A     -0.682592
      25A     -0.646344    26A     -0.610622    27A     -0.592692
      28A     -0.591903

  @DF-RHF Final Energy:  -289.70779654629035

   => Energetics <=

    Nuclear Repulsion Energy =            346.8713008811459986
    One-Electron Energy =               -1068.0939519760866006
    Two-Electron Energy =                 431.5148545486502485
    Total Energy =                       -289.7077965462903535
  Basis Set: (AUG-CC-PVTZ AUX)
    Blend: AUG-CC-PVTZ-RI
    Molecular point group: c1

    Geometry (in Angstrom), charge = 1, multiplicity = 1:

       Center              X                  Y                   Z               Mass
    ------------   -----------------  -----------------  -----------------  -----------------
         N           -1.806733510230     0.000000020134    -0.791759324289    14.003074004430
         C           -1.099625410230     0.000000020134     0.507325875711    12.000000000000
         C           -0.238990510230    -1.271566979866     0.641454675711    12.000000000000
         C           -0.238990510230     1.271567020134     0.641455675711    12.000000000000
         C            0.950085489770    -1.263350979866    -0.324711324289    12.000000000000
         C            0.950084489770     1.263351020134    -0.324712324289    12.000000000000
         C            1.793893489770     0.000000020134    -0.152116324289    12.000000000000
         H           -1.877149510230     0.000000020134     1.296753675711     1.007825032230
         H           -0.869857510230    -2.159139979866     0.500843675711     1.007825032230
         H            0.131811489770    -1.325464979866     1.671492675711     1.007825032230
         H            0.131812489770     1.325464020134     1.671493675711     1.007825032230
         H           -0.869857510230     2.159140020134     0.500844675711     1.007825032230
         H            0.612135489770    -1.345883979866    -1.369272324289     1.007825032230
         H            1.554723489770    -2.158015979866    -0.148029324289     1.007825032230
         H            1.554722489770     2.158016020134    -0.148030324289     1.007825032230
         H            0.612133489770     1.345883020134    -1.369272324289     1.007825032230
         H            2.240758489770     0.000001020134     0.849962675711     1.007825032230
         H            2.623803489770     0.000000020134    -0.865449324289     1.007825032230
         H           -1.134974510230    -0.000011979866    -1.569584324289     1.007825032230
         H           -2.403473510230     0.831386020134    -0.896509324289     1.007825032230
         H           -2.403491510230    -0.831374979866    -0.896499324289     1.007825032230

  Basis Set: AUG-CC-PVTZ
    Blend: AUG-CC-PVTZ
  Basis Set: (AUG-CC-PVTZ AUX)
    Blend: AUG-CC-PVTZ-JKFIT
	 Reference Energy          =    -289.7077965462903535 [Eh]
	 Singles Energy            =      -0.0000000000000000 [Eh]
	 Same-Spin Energy          =      -0.3078007204878397 [Eh]
	 Opposite-Spin Energy      =      -1.0939564391286238 [Eh]
	 Correlation Energy        =      -1.4017571596164635 [Eh]
	 Total Energy              =    -291.1095537059068192 [Eh]

	 ================> DF-SCS-MP2 Energies <==================
	-----------------------------------------------------------
	 SCS Same-Spin Scale       =       0.3333333333333333 [-]
	 SCS Opposite-Spin Scale   =       1.2000000000000000 [-]
	 SCS Same-Spin Energy      =      -0.1026002401626132 [Eh]
	 SCS Opposite-Spin Energy  =      -1.3127477269543486 [Eh]
	 SCS Correlation Energy    =      -1.4153479671169618 [Eh]
	 SCS Total Energy          =    -291.1231445134073397 [Eh]
	-----------------------------------------------------------

  Dipole Moment: [D]
     X:    -5.6813      Y:    -0.0000      Z:    -2.1430     Total:     6.0720

*** Psi4 exiting successfully. Buy a developer a beer!
