                               Psi4 1.4a3.dev225

  ==> Input File <==

--------------------------------------------------------------------------
#psi4
#
memory 32 gb

molecule  {
1 1
  N       -1.8084550     0.0000000    -0.7896910
  C       -1.0774430     0.0000000     0.5533100
  C       -0.2407120    -1.2715670     0.6435230
  C       -0.2407120     1.2715670     0.6435240
  C        0.9483640    -1.2633510    -0.3226430
  C        0.9483630     1.2633510    -0.3226440
  C        1.7921720     0.0000000    -0.1500480
  H       -1.8056522     0.0000000     1.2307117
  H       -0.8715790    -2.1591400     0.5029120
  H        0.1300900    -1.3254650     1.6735610
  H        0.1300910     1.3254640     1.6735620
  H       -0.8715790     2.1591400     0.5029130
  H        0.6104140    -1.3458840    -1.3672040
  H        1.5530020    -2.1580160    -0.1459610
  H        1.5530010     2.1580160    -0.1459620
  H        0.6104120     1.3458830    -1.3672040
  H        2.2390370     0.0000010     0.8520310
  H        2.6220820     0.0000000    -0.8633810
  H       -1.1366960    -0.0000120    -1.5675160
  H       -2.4051950     0.8313860    -0.8944410
  H       -2.4052130    -0.8313750    -0.8944310
units angstrom
no_reorient  #important for SAPT in psi4, default
symmetry c1  #important for SAPT in psi4, default
}

set PROPERTIES_ORIGIN ["COM"]
properties('MP2/aug-cc-pvtz', properties = ['dipole'])
--------------------------------------------------------------------------

    Molecular point group: c1
  Charge       = 1
  Multiplicity = 1
  Basis Set: AUG-CC-PVTZ
    Blend: AUG-CC-PVTZ
  Basis Set: (AUG-CC-PVTZ AUX)
    Blend: AUG-CC-PVTZ-JKFIT

    Orbital Energies [Eh]
    ---------------------

    Doubly Occupied:

       1A    -15.874170     2A    -11.455526     3A    -11.390114
       4A    -11.390102     5A    -11.371306     6A    -11.371303
       7A    -11.357634     8A     -1.493055     9A     -1.279005
      10A     -1.175946    11A     -1.172359    12A     -1.018251
      13A     -1.006171    14A     -0.951112    15A     -0.934259
      16A     -0.918671    17A     -0.829619    18A     -0.814734
      19A     -0.765309    20A     -0.756105    21A     -0.703472
      22A     -0.695755    23A     -0.686827    24A     -0.686093
      25A     -0.646340    26A     -0.611012    27A     -0.596592
      28A     -0.595214

  @DF-RHF Final Energy:  -289.70424068496305

   => Energetics <=

    Nuclear Repulsion Energy =            347.2688732628836874
    One-Electron Energy =               -1068.8541140347554119
    Two-Electron Energy =                 431.8810000869086139
    Total Energy =                       -289.7042406849630538
  Basis Set: (AUG-CC-PVTZ AUX)
    Blend: AUG-CC-PVTZ-RI
    Molecular point group: c1

    Geometry (in Angstrom), charge = 1, multiplicity = 1:

       Center              X                  Y                   Z               Mass
    ------------   -----------------  -----------------  -----------------  -----------------
         N           -1.810335838522     0.000000020134    -0.796337631342    14.003074004430
         C           -1.079323838522     0.000000020134     0.546663368658    12.000000000000
         C           -0.242592838522    -1.271566979866     0.636876368658    12.000000000000
         C           -0.242592838522     1.271567020134     0.636877368658    12.000000000000
         C            0.946483161478    -1.263350979866    -0.329289631342    12.000000000000
         C            0.946482161478     1.263351020134    -0.329290631342    12.000000000000
         C            1.790291161478     0.000000020134    -0.156694631342    12.000000000000
         H           -1.807533038522     0.000000020134     1.224065068658     1.007825032230
         H           -0.873459838522    -2.159139979866     0.496265368658     1.007825032230
         H            0.128209161478    -1.325464979866     1.666914368658     1.007825032230
         H            0.128210161478     1.325464020134     1.666915368658     1.007825032230
         H           -0.873459838522     2.159140020134     0.496266368658     1.007825032230
         H            0.608533161478    -1.345883979866    -1.373850631342     1.007825032230
         H            1.551121161478    -2.158015979866    -0.152607631342     1.007825032230
         H            1.551120161478     2.158016020134    -0.152608631342     1.007825032230
         H            0.608531161478     1.345883020134    -1.373850631342     1.007825032230
         H            2.237156161478     0.000001020134     0.845384368658     1.007825032230
         H            2.620201161478     0.000000020134    -0.870027631342     1.007825032230
         H           -1.138576838522    -0.000011979866    -1.574162631342     1.007825032230
         H           -2.407075838522     0.831386020134    -0.901087631342     1.007825032230
         H           -2.407093838522    -0.831374979866    -0.901077631342     1.007825032230

  Basis Set: AUG-CC-PVTZ
    Blend: AUG-CC-PVTZ
  Basis Set: (AUG-CC-PVTZ AUX)
    Blend: AUG-CC-PVTZ-JKFIT
	 Reference Energy          =    -289.7042406849630538 [Eh]
	 Singles Energy            =      -0.0000000000000000 [Eh]
	 Same-Spin Energy          =      -0.3074787125272275 [Eh]
	 Opposite-Spin Energy      =      -1.0931951868924075 [Eh]
	 Correlation Energy        =      -1.4006738994196350 [Eh]
	 Total Energy              =    -291.1049145843826977 [Eh]

	 ================> DF-SCS-MP2 Energies <==================
	-----------------------------------------------------------
	 SCS Same-Spin Scale       =       0.3333333333333333 [-]
	 SCS Opposite-Spin Scale   =       1.2000000000000000 [-]
	 SCS Same-Spin Energy      =      -0.1024929041757425 [Eh]
	 SCS Opposite-Spin Energy  =      -1.3118342242708889 [Eh]
	 SCS Correlation Energy    =      -1.4143271284466314 [Eh]
	 SCS Total Energy          =    -291.1185678134096975 [Eh]
	-----------------------------------------------------------

  Dipole Moment: [D]
     X:    -5.6221      Y:    -0.0000      Z:    -2.0491     Total:     5.9839

*** Psi4 exiting successfully. Buy a developer a beer!
