                               Psi4 1.4a3.dev225

  ==> Input File <==

--------------------------------------------------------------------------
#psi4
#
memory 32 gb

molecule  {
1 1
  N       -1.8084550     0.0000000    -0.7896910
  C       -1.0774430     0.0000000     0.5533100
  C       -0.2407120    -1.2715670     0.6435230
  C       -0.2407120     1.2715670     0.6435240
  C        0.9483640    -1.2633510    -0.3226430
  C        0.9483630     1.2633510    -0.3226440
  C        1.7921720     0.0000000    -0.1500480
  H       -1.8788710     0.0000000     1.2988220
  H       -0.8715790    -2.1591400     0.5029120
  H        0.1300900    -1.3254650     1.6735610
  H        0.0962609     1.3205467     1.5795868
  H       -0.8715790     2.1591400     0.5029130
  H        0.6104140    -1.3458840    -1.3672040
  H        1.5530020    -2.1580160    -0.1459610
  H        1.5530010     2.1580160    -0.1459620
  H        0.6104120     1.3458830    -1.3672040
  H        2.2390370     0.0000010     0.8520310
  H        2.6220820     0.0000000    -0.8633810
  H       -1.1366960    -0.0000120    -1.5675160
  H       -2.4051950     0.8313860    -0.8944410
  H       -2.4052130    -0.8313750    -0.8944310
units angstrom
no_reorient  #important for SAPT in psi4, default
symmetry c1  #important for SAPT in psi4, default
}

set PROPERTIES_ORIGIN ["COM"]
properties('MP2/aug-cc-pvtz', properties = ['dipole'])
--------------------------------------------------------------------------

    Molecular point group: c1
  Charge       = 1
  Multiplicity = 1
  Basis Set: AUG-CC-PVTZ
    Blend: AUG-CC-PVTZ
  Basis Set: (AUG-CC-PVTZ AUX)
    Blend: AUG-CC-PVTZ-JKFIT

    Orbital Energies [Eh]
    ---------------------

    Doubly Occupied:

       1A    -15.874174     2A    -11.466372     3A    -11.390674
       4A    -11.378941     5A    -11.371698     6A    -11.371063
       7A    -11.357921     8A     -1.492045     9A     -1.279648
      10A     -1.176505    11A     -1.170776    12A     -1.013720
      13A     -1.007444    14A     -0.952563    15A     -0.936081
      16A     -0.920681    17A     -0.815474    18A     -0.813975
      19A     -0.765370    20A     -0.762163    21A     -0.700148
      22A     -0.695934    23A     -0.693278    24A     -0.685791
      25A     -0.651287    26A     -0.611452    27A     -0.595375
      28A     -0.594699

  @DF-RHF Final Energy:  -289.70401811580541

   => Energetics <=

    Nuclear Repulsion Energy =            347.2143521238702988
    One-Electron Energy =               -1068.7462343221018273
    Two-Electron Energy =                 431.8278640824261174
    Total Energy =                       -289.7040181158054111
  Basis Set: (AUG-CC-PVTZ AUX)
    Blend: AUG-CC-PVTZ-RI
    Molecular point group: c1

    Geometry (in Angstrom), charge = 1, multiplicity = 1:

       Center              X                  Y                   Z               Mass
    ------------   -----------------  -----------------  -----------------  -----------------
         N           -1.809258186610     0.000049522163    -0.796077251657    14.003074004430
         C           -1.078246186610     0.000049522163     0.546923748343    12.000000000000
         C           -0.241515186610    -1.271517477837     0.637136748343    12.000000000000
         C           -0.241515186610     1.271616522163     0.637137748343    12.000000000000
         C            0.947560813390    -1.263301477837    -0.329029251657    12.000000000000
         C            0.947559813390     1.263400522163    -0.329030251657    12.000000000000
         C            1.791368813390     0.000049522163    -0.156434251657    12.000000000000
         H           -1.879674186610     0.000049522163     1.292435748343     1.007825032230
         H           -0.872382186610    -2.159090477837     0.496525748343     1.007825032230
         H            0.129286813390    -1.325415477837     1.667174748343     1.007825032230
         H            0.095457713390     1.320596222163     1.573200548343     1.007825032230
         H           -0.872382186610     2.159189522163     0.496526748343     1.007825032230
         H            0.609610813390    -1.345834477837    -1.373590251657     1.007825032230
         H            1.552198813390    -2.157966477837    -0.152347251657     1.007825032230
         H            1.552197813390     2.158065522163    -0.152348251657     1.007825032230
         H            0.609608813390     1.345932522163    -1.373590251657     1.007825032230
         H            2.238233813390     0.000050522163     0.845644748343     1.007825032230
         H            2.621278813390     0.000049522163    -0.869767251657     1.007825032230
         H           -1.137499186610     0.000037522163    -1.573902251657     1.007825032230
         H           -2.405998186610     0.831435522163    -0.900827251657     1.007825032230
         H           -2.406016186610    -0.831325477837    -0.900817251657     1.007825032230

  Basis Set: AUG-CC-PVTZ
    Blend: AUG-CC-PVTZ
  Basis Set: (AUG-CC-PVTZ AUX)
    Blend: AUG-CC-PVTZ-JKFIT
	 Reference Energy          =    -289.7040181158054111 [Eh]
	 Singles Energy            =      -0.0000000000000000 [Eh]
	 Same-Spin Energy          =      -0.3075453880892533 [Eh]
	 Opposite-Spin Energy      =      -1.0933060947948439 [Eh]
	 Correlation Energy        =      -1.4008514828840972 [Eh]
	 Total Energy              =    -291.1048695986895041 [Eh]

	 ================> DF-SCS-MP2 Energies <==================
	-----------------------------------------------------------
	 SCS Same-Spin Scale       =       0.3333333333333333 [-]
	 SCS Opposite-Spin Scale   =       1.2000000000000000 [-]
	 SCS Same-Spin Energy      =      -0.1025151293630844 [Eh]
	 SCS Opposite-Spin Energy  =      -1.3119673137538126 [Eh]
	 SCS Correlation Energy    =      -1.4144824431168970 [Eh]
	 SCS Total Energy          =    -291.1185005589223351 [Eh]
	-----------------------------------------------------------

  Dipole Moment: [D]
     X:    -5.6033      Y:    -0.0059      Z:    -2.0363     Total:     5.9618

*** Psi4 exiting successfully. Buy a developer a beer!
