                               Psi4 1.4a3.dev225

  ==> Input File <==

--------------------------------------------------------------------------
#psi4
#
memory 32 gb

molecule  {
1 1
  N       -1.8084550     0.0000000    -0.7896910
  C       -1.0774430     0.0000000     0.5533100
  C       -0.2407120    -1.2715670     0.6435230
  C       -0.2407120     1.2715670     0.6435240
  C        0.9483640    -1.2633510    -0.3226430
  C        0.9483630     1.2633510    -0.3226440
  C        1.7921720     0.0000000    -0.1500480
  H       -1.8788710     0.0000000     1.2988220
  H       -0.8715790    -2.1591400     0.5029120
  H        0.1300900    -1.3254650     1.6735610
  H        0.1300910     1.3254640     1.6735620
  H       -0.8715790     2.1591400     0.5029130
  H        0.6104140    -1.3458840    -1.3672040
  H        1.5530020    -2.1580160    -0.1459610
  H        1.5640529     2.1743692    -0.1427325
  H        0.6104120     1.3458830    -1.3672040
  H        2.2390370     0.0000010     0.8520310
  H        2.6220820     0.0000000    -0.8633810
  H       -1.1366960    -0.0000120    -1.5675160
  H       -2.4051950     0.8313860    -0.8944410
  H       -2.4052130    -0.8313750    -0.8944310
units angstrom
no_reorient  #important for SAPT in psi4, default
symmetry c1  #important for SAPT in psi4, default
}

set PROPERTIES_ORIGIN ["COM"]
properties('MP2/aug-cc-pvtz', properties = ['dipole'])
--------------------------------------------------------------------------

    Molecular point group: c1
  Charge       = 1
  Multiplicity = 1
  Basis Set: AUG-CC-PVTZ
    Blend: AUG-CC-PVTZ
  Basis Set: (AUG-CC-PVTZ AUX)
    Blend: AUG-CC-PVTZ-JKFIT

    Orbital Energies [Eh]
    ---------------------

    Doubly Occupied:

       1A    -15.874615     2A    -11.466873     3A    -11.390606
       4A    -11.390571     5A    -11.373910     6A    -11.371782
       7A    -11.358002     8A     -1.492506     9A     -1.277565
      10A     -1.172362    11A     -1.170450    12A     -1.010153
      13A     -1.005448    14A     -0.951029    15A     -0.934301
      16A     -0.917905    17A     -0.815574    18A     -0.813594
      19A     -0.763079    20A     -0.756204    21A     -0.698346
      22A     -0.695871    23A     -0.687110    24A     -0.685597
      25A     -0.646486    26A     -0.610933    27A     -0.595262
      28A     -0.594212

  @DF-RHF Final Energy:  -289.70918971568210

   => Energetics <=

    Nuclear Repulsion Energy =            346.5983794468505153
    One-Electron Energy =               -1067.5744399745296960
    Two-Electron Energy =                 431.2668708119971370
    Total Energy =                       -289.7091897156821005
  Basis Set: (AUG-CC-PVTZ AUX)
    Blend: AUG-CC-PVTZ-RI
    Molecular point group: c1

    Geometry (in Angstrom), charge = 1, multiplicity = 1:

       Center              X                  Y                   Z               Mass
    ------------   -----------------  -----------------  -----------------  -----------------
         N           -1.809710009778    -0.000164606100    -0.797055802868    14.003074004430
         C           -1.078698009778    -0.000164606100     0.545945197132    12.000000000000
         C           -0.241967009778    -1.271731606100     0.636158197132    12.000000000000
         C           -0.241967009778     1.271402393900     0.636159197132    12.000000000000
         C            0.947108990222    -1.263515606100    -0.330007802868    12.000000000000
         C            0.947107990222     1.263186393900    -0.330008802868    12.000000000000
         C            1.790916990222    -0.000164606100    -0.157412802868    12.000000000000
         H           -1.880126009778    -0.000164606100     1.291457197132     1.007825032230
         H           -0.872834009778    -2.159304606100     0.495547197132     1.007825032230
         H            0.128834990222    -1.325629606100     1.666196197132     1.007825032230
         H            0.128835990222     1.325299393900     1.666197197132     1.007825032230
         H           -0.872834009778     2.158975393900     0.495548197132     1.007825032230
         H            0.609158990222    -1.346048606100    -1.374568802868     1.007825032230
         H            1.551746990222    -2.158180606100    -0.153325802868     1.007825032230
         H            1.562797890222     2.174204593900    -0.150097302868     1.007825032230
         H            0.609156990222     1.345718393900    -1.374568802868     1.007825032230
         H            2.237781990222    -0.000163606100     0.844666197132     1.007825032230
         H            2.620826990222    -0.000164606100    -0.870745802868     1.007825032230
         H           -1.137951009778    -0.000176606100    -1.574880802868     1.007825032230
         H           -2.406450009778     0.831221393900    -0.901805802868     1.007825032230
         H           -2.406468009778    -0.831539606100    -0.901795802868     1.007825032230

  Basis Set: AUG-CC-PVTZ
    Blend: AUG-CC-PVTZ
  Basis Set: (AUG-CC-PVTZ AUX)
    Blend: AUG-CC-PVTZ-JKFIT
	 Reference Energy          =    -289.7091897156821005 [Eh]
	 Singles Energy            =      -0.0000000000000000 [Eh]
	 Same-Spin Energy          =      -0.3076527272238422 [Eh]
	 Opposite-Spin Energy      =      -1.0940491521150830 [Eh]
	 Correlation Energy        =      -1.4017018793389253 [Eh]
	 Total Energy              =    -291.1108915950210303 [Eh]

	 ================> DF-SCS-MP2 Energies <==================
	-----------------------------------------------------------
	 SCS Same-Spin Scale       =       0.3333333333333333 [-]
	 SCS Opposite-Spin Scale   =       1.2000000000000000 [-]
	 SCS Same-Spin Energy      =      -0.1025509090746141 [Eh]
	 SCS Opposite-Spin Energy  =      -1.3128589825380996 [Eh]
	 SCS Correlation Energy    =      -1.4154098916127138 [Eh]
	 SCS Total Energy          =    -291.1245996072948401 [Eh]
	-----------------------------------------------------------

  Dipole Moment: [D]
     X:    -5.6020      Y:    -0.0069      Z:    -2.0501     Total:     5.9653

*** Psi4 exiting successfully. Buy a developer a beer!
