                               Psi4 1.4a3.dev225

  ==> Input File <==

--------------------------------------------------------------------------
#psi4
#
memory 32 gb

molecule  {
1 1
  N       -1.8317823     0.0000000    -0.7767285
  C       -1.0774430     0.0000000     0.5533100
  C       -0.2407120    -1.2715670     0.6435230
  C       -0.2407120     1.2715670     0.6435240
  C        0.9483640    -1.2633510    -0.3226430
  C        0.9483630     1.2633510    -0.3226440
  C        1.7921720     0.0000000    -0.1500480
  H       -1.8788710     0.0000000     1.2988220
  H       -0.8715790    -2.1591400     0.5029120
  H        0.1300900    -1.3254650     1.6735610
  H        0.1300910     1.3254640     1.6735620
  H       -0.8715790     2.1591400     0.5029130
  H        0.6104140    -1.3458840    -1.3672040
  H        1.5530020    -2.1580160    -0.1459610
  H        1.5530010     2.1580160    -0.1459620
  H        0.6104120     1.3458830    -1.3672040
  H        2.2390370     0.0000010     0.8520310
  H        2.6220820     0.0000000    -0.8633810
  H       -1.1366960    -0.0000120    -1.5675160
  H       -2.4051950     0.8313860    -0.8944410
  H       -2.4052130    -0.8313750    -0.8944310
units angstrom
no_reorient  #important for SAPT in psi4, default
symmetry c1  #important for SAPT in psi4, default
}

set PROPERTIES_ORIGIN ["COM"]
properties('MP2/aug-cc-pvtz', properties = ['dipole'])
--------------------------------------------------------------------------

    Molecular point group: c1
  Charge       = 1
  Multiplicity = 1
  Basis Set: AUG-CC-PVTZ
    Blend: AUG-CC-PVTZ
  Basis Set: (AUG-CC-PVTZ AUX)
    Blend: AUG-CC-PVTZ-JKFIT

    Orbital Energies [Eh]
    ---------------------

    Doubly Occupied:

       1A    -15.874392     2A    -11.466676     3A    -11.390825
       4A    -11.390813     5A    -11.371803     6A    -11.371800
       7A    -11.357995     8A     -1.492184     9A     -1.277914
      10A     -1.172814    11A     -1.170624    12A     -1.009305
      13A     -1.007244    14A     -0.946766    15A     -0.941498
      16A     -0.916429    17A     -0.816295    18A     -0.810434
      19A     -0.764250    20A     -0.757092    21A     -0.698134
      22A     -0.696418    23A     -0.687962    24A     -0.686313
      25A     -0.646750    26A     -0.611032    27A     -0.595688
      28A     -0.595002

  @DF-RHF Final Energy:  -289.70887816126287

   => Energetics <=

    Nuclear Repulsion Energy =            346.4903146724120688
    One-Electron Energy =               -1067.3494826317830757
    Two-Electron Energy =                 431.1502897981081333
    Total Energy =                       -289.7088781612628736
  Basis Set: (AUG-CC-PVTZ AUX)
    Blend: AUG-CC-PVTZ-RI
    Molecular point group: c1

    Geometry (in Angstrom), charge = 1, multiplicity = 1:

       Center              X                  Y                   Z               Mass
    ------------   -----------------  -----------------  -----------------  -----------------
         N           -1.829663186968     0.000000020134    -0.785873898241    14.003074004430
         C           -1.075323886968     0.000000020134     0.544164601759    12.000000000000
         C           -0.238592886968    -1.271566979866     0.634377601759    12.000000000000
         C           -0.238592886968     1.271567020134     0.634378601759    12.000000000000
         C            0.950483113032    -1.263350979866    -0.331788398241    12.000000000000
         C            0.950482113032     1.263351020134    -0.331789398241    12.000000000000
         C            1.794291113032     0.000000020134    -0.159193398241    12.000000000000
         H           -1.876751886968     0.000000020134     1.289676601759     1.007825032230
         H           -0.869459886968    -2.159139979866     0.493766601759     1.007825032230
         H            0.132209113032    -1.325464979866     1.664415601759     1.007825032230
         H            0.132210113032     1.325464020134     1.664416601759     1.007825032230
         H           -0.869459886968     2.159140020134     0.493767601759     1.007825032230
         H            0.612533113032    -1.345883979866    -1.376349398241     1.007825032230
         H            1.555121113032    -2.158015979866    -0.155106398241     1.007825032230
         H            1.555120113032     2.158016020134    -0.155107398241     1.007825032230
         H            0.612531113032     1.345883020134    -1.376349398241     1.007825032230
         H            2.241156113032     0.000001020134     0.842885601759     1.007825032230
         H            2.624201113032     0.000000020134    -0.872526398241     1.007825032230
         H           -1.134576886968    -0.000011979866    -1.576661398241     1.007825032230
         H           -2.403075886968     0.831386020134    -0.903586398241     1.007825032230
         H           -2.403093886968    -0.831374979866    -0.903576398241     1.007825032230

  Basis Set: AUG-CC-PVTZ
    Blend: AUG-CC-PVTZ
  Basis Set: (AUG-CC-PVTZ AUX)
    Blend: AUG-CC-PVTZ-JKFIT
	 Reference Energy          =    -289.7088781612628736 [Eh]
	 Singles Energy            =      -0.0000000000000000 [Eh]
	 Same-Spin Energy          =      -0.3076492537795508 [Eh]
	 Opposite-Spin Energy      =      -1.0939204861665910 [Eh]
	 Correlation Energy        =      -1.4015697399461418 [Eh]
	 Total Energy              =    -291.1104479012089996 [Eh]

	 ================> DF-SCS-MP2 Energies <==================
	-----------------------------------------------------------
	 SCS Same-Spin Scale       =       0.3333333333333333 [-]
	 SCS Opposite-Spin Scale   =       1.2000000000000000 [-]
	 SCS Same-Spin Energy      =      -0.1025497512598503 [Eh]
	 SCS Opposite-Spin Energy  =      -1.3127045833999091 [Eh]
	 SCS Correlation Energy    =      -1.4152543346597595 [Eh]
	 SCS Total Energy          =    -291.1241324959226517 [Eh]
	-----------------------------------------------------------

  Dipole Moment: [D]
     X:    -5.5602      Y:    -0.0000      Z:    -2.0633     Total:     5.9306

*** Psi4 exiting successfully. Buy a developer a beer!
