                               Psi4 1.4a3.dev225

  ==> Input File <==

--------------------------------------------------------------------------
#psi4
#
memory 32 gb

molecule  {
1 1
  N       -1.8084550     0.0000000    -0.7896910
  C       -1.0774430     0.0000000     0.5533100
  C       -0.2407120    -1.2715670     0.6435230
  C       -0.2407120     1.2715670     0.6435240
  C        0.9483640    -1.2633510    -0.3226430
  C        0.9483630     1.2633510    -0.3226440
  C        1.7921720     0.0000000    -0.1500480
  H       -1.8788710     0.0000000     1.2988220
  H       -0.8715790    -2.1591400     0.5029120
  H        0.1300900    -1.3254650     1.6735610
  H        0.1300910     1.3254640     1.6735620
  H       -0.8715790     2.1591400     0.5029130
  H        0.6104140    -1.3458840    -1.3672040
  H        1.5530020    -2.1580160    -0.1459610
  H        1.5643735     2.1329983    -0.0747050
  H        0.6104120     1.3458830    -1.3672040
  H        2.2390370     0.0000010     0.8520310
  H        2.6220820     0.0000000    -0.8633810
  H       -1.1366960    -0.0000120    -1.5675160
  H       -2.4051950     0.8313860    -0.8944410
  H       -2.4052130    -0.8313750    -0.8944310
units angstrom
no_reorient  #important for SAPT in psi4, default
symmetry c1  #important for SAPT in psi4, default
}

set PROPERTIES_ORIGIN ["COM"]
properties('MP2/aug-cc-pvtz', properties = ['dipole'])
--------------------------------------------------------------------------

    Molecular point group: c1
  Charge       = 1
  Multiplicity = 1
  Basis Set: AUG-CC-PVTZ
    Blend: AUG-CC-PVTZ
  Basis Set: (AUG-CC-PVTZ AUX)
    Blend: AUG-CC-PVTZ-JKFIT

    Orbital Energies [Eh]
    ---------------------

    Doubly Occupied:

       1A    -15.874704     2A    -11.466434     3A    -11.390366
       4A    -11.390145     5A    -11.371703     6A    -11.371376
       7A    -11.357570     8A     -1.492542     9A     -1.277711
      10A     -1.172858    11A     -1.170675    12A     -1.010131
      13A     -1.005927    14A     -0.951191    15A     -0.934294
      16A     -0.917322    17A     -0.815670    18A     -0.812988
      19A     -0.766605    20A     -0.757382    21A     -0.697817
      22A     -0.695494    23A     -0.687081    24A     -0.685217
      25A     -0.648116    26A     -0.612351    27A     -0.594988
      28A     -0.593075

  @DF-RHF Final Energy:  -289.70914892658772

   => Energetics <=

    Nuclear Repulsion Energy =            346.7522352385327622
    One-Electron Energy =               -1067.8793047675042089
    Two-Electron Energy =                 431.4179206023837310
    Total Energy =                       -289.7091489265877158
  Basis Set: (AUG-CC-PVTZ AUX)
    Blend: AUG-CC-PVTZ-RI
    Molecular point group: c1

    Geometry (in Angstrom), charge = 1, multiplicity = 1:

       Center              X                  Y                   Z               Mass
    ------------   -----------------  -----------------  -----------------  -----------------
         N           -1.809713237230     0.000251871131    -0.797740629759    14.003074004430
         C           -1.078701237230     0.000251871131     0.545260370241    12.000000000000
         C           -0.241970237230    -1.271315128869     0.635473370241    12.000000000000
         C           -0.241970237230     1.271818871131     0.635474370241    12.000000000000
         C            0.947105762770    -1.263099128869    -0.330692629759    12.000000000000
         C            0.947104762770     1.263602871131    -0.330693629759    12.000000000000
         C            1.790913762770     0.000251871131    -0.158097629759    12.000000000000
         H           -1.880129237230     0.000251871131     1.290772370241     1.007825032230
         H           -0.872837237230    -2.158888128869     0.494862370241     1.007825032230
         H            0.128831762770    -1.325213128869     1.665511370241     1.007825032230
         H            0.128832762770     1.325715871131     1.665512370241     1.007825032230
         H           -0.872837237230     2.159391871131     0.494863370241     1.007825032230
         H            0.609155762770    -1.345632128869    -1.375253629759     1.007825032230
         H            1.551743762770    -2.157764128869    -0.154010629759     1.007825032230
         H            1.563115262770     2.133250171131    -0.082754629759     1.007825032230
         H            0.609153762770     1.346134871131    -1.375253629759     1.007825032230
         H            2.237778762770     0.000252871131     0.843981370241     1.007825032230
         H            2.620823762770     0.000251871131    -0.871430629759     1.007825032230
         H           -1.137954237230     0.000239871131    -1.575565629759     1.007825032230
         H           -2.406453237230     0.831637871131    -0.902490629759     1.007825032230
         H           -2.406471237230    -0.831123128869    -0.902480629759     1.007825032230

  Basis Set: AUG-CC-PVTZ
    Blend: AUG-CC-PVTZ
  Basis Set: (AUG-CC-PVTZ AUX)
    Blend: AUG-CC-PVTZ-JKFIT
	 Reference Energy          =    -289.7091489265877158 [Eh]
	 Singles Energy            =      -0.0000000000000000 [Eh]
	 Same-Spin Energy          =      -0.3076555451879040 [Eh]
	 Opposite-Spin Energy      =      -1.0939962959580947 [Eh]
	 Correlation Energy        =      -1.4016518411459986 [Eh]
	 Total Energy              =    -291.1108007677337355 [Eh]

	 ================> DF-SCS-MP2 Energies <==================
	-----------------------------------------------------------
	 SCS Same-Spin Scale       =       0.3333333333333333 [-]
	 SCS Opposite-Spin Scale   =       1.2000000000000000 [-]
	 SCS Same-Spin Energy      =      -0.1025518483959680 [Eh]
	 SCS Opposite-Spin Energy  =      -1.3127955551497135 [Eh]
	 SCS Correlation Energy    =      -1.4153474035456814 [Eh]
	 SCS Total Energy          =    -291.1244963301334110 [Eh]
	-----------------------------------------------------------

  Dipole Moment: [D]
     X:    -5.5987      Y:    -0.0079      Z:    -2.0333     Total:     5.9564

*** Psi4 exiting successfully. Buy a developer a beer!
