                               Psi4 1.4a3.dev225

  ==> Input File <==

--------------------------------------------------------------------------
#psi4
#
memory 32 gb

molecule  {
1 1
  N       -1.8084550     0.0000000    -0.7896910
  C       -1.0774430     0.0000000     0.5533100
  C       -0.2407120    -1.2715670     0.6435230
  C       -0.2719372     1.1790253     0.5999632
  C        0.9483640    -1.2633510    -0.3226430
  C        0.9483630     1.2633510    -0.3226440
  C        1.7921720     0.0000000    -0.1500480
  H       -1.8788710     0.0000000     1.2988220
  H       -0.8715790    -2.1591400     0.5029120
  H        0.1300900    -1.3254650     1.6735610
  H        0.1300910     1.3254640     1.6735620
  H       -0.8715790     2.1591400     0.5029130
  H        0.6104140    -1.3458840    -1.3672040
  H        1.5530020    -2.1580160    -0.1459610
  H        1.5530010     2.1580160    -0.1459620
  H        0.6104120     1.3458830    -1.3672040
  H        2.2390370     0.0000010     0.8520310
  H        2.6220820     0.0000000    -0.8633810
  H       -1.1366960    -0.0000120    -1.5675160
  H       -2.4051950     0.8313860    -0.8944410
  H       -2.4052130    -0.8313750    -0.8944310
units angstrom
no_reorient  #important for SAPT in psi4, default
symmetry c1  #important for SAPT in psi4, default
}

set PROPERTIES_ORIGIN ["COM"]
properties('MP2/aug-cc-pvtz', properties = ['dipole'])
--------------------------------------------------------------------------

    Molecular point group: c1
  Charge       = 1
  Multiplicity = 1
  Basis Set: AUG-CC-PVTZ
    Blend: AUG-CC-PVTZ
  Basis Set: (AUG-CC-PVTZ AUX)
    Blend: AUG-CC-PVTZ-JKFIT

    Orbital Energies [Eh]
    ---------------------

    Doubly Occupied:

       1A    -15.873973     2A    -11.465314     3A    -11.393584
       4A    -11.391042     5A    -11.373295     6A    -11.372393
       7A    -11.357268     8A     -1.495290     9A     -1.287446
      10A     -1.180128    11A     -1.171175    12A     -1.013191
      13A     -1.004659    14A     -0.951598    15A     -0.932793
      16A     -0.918876    17A     -0.820962    18A     -0.817474
      19A     -0.761938    20A     -0.753864    21A     -0.715066
      22A     -0.698043    23A     -0.686558    24A     -0.678374
      25A     -0.637352    26A     -0.608341    27A     -0.603027
      28A     -0.585863

  @DF-RHF Final Energy:  -289.69572808189446

   => Energetics <=

    Nuclear Repulsion Energy =            348.3812369552006203
    One-Electron Energy =               -1071.0561581770812154
    Two-Electron Energy =                 432.9791931399861369
    Total Energy =                       -289.6957280818944582
  Basis Set: (AUG-CC-PVTZ AUX)
    Blend: AUG-CC-PVTZ-RI
    Molecular point group: c1

    Geometry (in Angstrom), charge = 1, multiplicity = 1:

       Center              X                  Y                   Z               Mass
    ------------   -----------------  -----------------  -----------------  -----------------
         N           -1.805855942585     0.011092531254    -0.791801876365    14.003074004430
         C           -1.074843942585     0.011092531254     0.551199123635    12.000000000000
         C           -0.238112942585    -1.260474468746     0.641412123635    12.000000000000
         C           -0.269338142585     1.190117831254     0.597852323635    12.000000000000
         C            0.950963057415    -1.252258468746    -0.324753876365    12.000000000000
         C            0.950962057415     1.274443531254    -0.324754876365    12.000000000000
         C            1.794771057415     0.011092531254    -0.152158876365    12.000000000000
         H           -1.876271942585     0.011092531254     1.296711123635     1.007825032230
         H           -0.868979942585    -2.148047468746     0.500801123635     1.007825032230
         H            0.132689057415    -1.314372468746     1.671450123635     1.007825032230
         H            0.132690057415     1.336556531254     1.671451123635     1.007825032230
         H           -0.868979942585     2.170232531254     0.500802123635     1.007825032230
         H            0.613013057415    -1.334791468746    -1.369314876365     1.007825032230
         H            1.555601057415    -2.146923468746    -0.148071876365     1.007825032230
         H            1.555600057415     2.169108531254    -0.148072876365     1.007825032230
         H            0.613011057415     1.356975531254    -1.369314876365     1.007825032230
         H            2.241636057415     0.011093531254     0.849920123635     1.007825032230
         H            2.624681057415     0.011092531254    -0.865491876365     1.007825032230
         H           -1.134096942585     0.011080531254    -1.569626876365     1.007825032230
         H           -2.402595942585     0.842478531254    -0.896551876365     1.007825032230
         H           -2.402613942585    -0.820282468746    -0.896541876365     1.007825032230

  Basis Set: AUG-CC-PVTZ
    Blend: AUG-CC-PVTZ
  Basis Set: (AUG-CC-PVTZ AUX)
    Blend: AUG-CC-PVTZ-JKFIT
	 Reference Energy          =    -289.6957280818944582 [Eh]
	 Singles Energy            =      -0.0000000000000000 [Eh]
	 Same-Spin Energy          =      -0.3089768059185971 [Eh]
	 Opposite-Spin Energy      =      -1.0956593292203027 [Eh]
	 Correlation Energy        =      -1.4046361351388998 [Eh]
	 Total Energy              =    -291.1003642170333592 [Eh]

	 ================> DF-SCS-MP2 Energies <==================
	-----------------------------------------------------------
	 SCS Same-Spin Scale       =       0.3333333333333333 [-]
	 SCS Opposite-Spin Scale   =       1.2000000000000000 [-]
	 SCS Same-Spin Energy      =      -0.1029922686395324 [Eh]
	 SCS Opposite-Spin Energy  =      -1.3147911950643631 [Eh]
	 SCS Correlation Energy    =      -1.4177834637038955 [Eh]
	 SCS Total Energy          =    -291.1135115455983282 [Eh]
	-----------------------------------------------------------

  Dipole Moment: [D]
     X:    -5.5492      Y:     0.0324      Z:    -2.0076     Total:     5.9013

*** Psi4 exiting successfully. Buy a developer a beer!
