                               Psi4 1.4a3.dev225

  ==> Input File <==

--------------------------------------------------------------------------
#psi4
#
memory 32 gb

molecule  {
1 1
  N       -1.8084550     0.0000000    -0.7896910
  C       -1.0774430     0.0000000     0.5533100
  C       -0.1858387    -1.3549571     0.6494392
  C       -0.2407120     1.2715670     0.6435240
  C        0.9483640    -1.2633510    -0.3226430
  C        0.9483630     1.2633510    -0.3226440
  C        1.7921720     0.0000000    -0.1500480
  H       -1.8788710     0.0000000     1.2988220
  H       -0.8715790    -2.1591400     0.5029120
  H        0.1300900    -1.3254650     1.6735610
  H        0.1300910     1.3254640     1.6735620
  H       -0.8715790     2.1591400     0.5029130
  H        0.6104140    -1.3458840    -1.3672040
  H        1.5530020    -2.1580160    -0.1459610
  H        1.5530010     2.1580160    -0.1459620
  H        0.6104120     1.3458830    -1.3672040
  H        2.2390370     0.0000010     0.8520310
  H        2.6220820     0.0000000    -0.8633810
  H       -1.1366960    -0.0000120    -1.5675160
  H       -2.4051950     0.8313860    -0.8944410
  H       -2.4052130    -0.8313750    -0.8944310
units angstrom
no_reorient  #important for SAPT in psi4, default
symmetry c1  #important for SAPT in psi4, default
}

set PROPERTIES_ORIGIN ["COM"]
properties('MP2/aug-cc-pvtz', properties = ['dipole'])
--------------------------------------------------------------------------

    Molecular point group: c1
  Charge       = 1
  Multiplicity = 1
  Basis Set: AUG-CC-PVTZ
    Blend: AUG-CC-PVTZ
  Basis Set: (AUG-CC-PVTZ AUX)
    Blend: AUG-CC-PVTZ-JKFIT

    Orbital Energies [Eh]
    ---------------------

    Doubly Occupied:

       1A    -15.873685     2A    -11.466272     3A    -11.392258
       4A    -11.389585     5A    -11.371231     6A    -11.370219
       7A    -11.359112     8A     -1.489501     9A     -1.272971
      10A     -1.177718    11A     -1.162512    12A     -1.013299
      13A     -1.003038    14A     -0.949328    15A     -0.933969
      16A     -0.918597    17A     -0.812410    18A     -0.809897
      19A     -0.769590    20A     -0.759041    21A     -0.699020
      22A     -0.698259    23A     -0.691617    24A     -0.673570
      25A     -0.648575    26A     -0.612792    27A     -0.603021
      28A     -0.583529

  @DF-RHF Final Energy:  -289.70223856190825

   => Energetics <=

    Nuclear Repulsion Energy =            345.5929274207886124
    One-Electron Energy =               -1065.5811014267032988
    Two-Electron Energy =                 430.2859354440064976
    Total Energy =                       -289.7022385619082456
  Basis Set: (AUG-CC-PVTZ AUX)
    Blend: AUG-CC-PVTZ-RI
    Molecular point group: c1

    Geometry (in Angstrom), charge = 1, multiplicity = 1:

       Center              X                  Y                   Z               Mass
    ------------   -----------------  -----------------  -----------------  -----------------
         N           -1.816176139520     0.009995574695    -0.797732437103    14.003074004430
         C           -1.085164139520     0.009995574695     0.545268562897    12.000000000000
         C           -0.193559839520    -1.344961525305     0.641397762897    12.000000000000
         C           -0.248433139520     1.281562574695     0.635482562897    12.000000000000
         C            0.940642860480    -1.253355425305    -0.330684437103    12.000000000000
         C            0.940641860480     1.273346574695    -0.330685437103    12.000000000000
         C            1.784450860480     0.009995574695    -0.158089437103    12.000000000000
         H           -1.886592139520     0.009995574695     1.290780562897     1.007825032230
         H           -0.879300139520    -2.149144425305     0.494870562897     1.007825032230
         H            0.122368860480    -1.315469425305     1.665519562897     1.007825032230
         H            0.122369860480     1.335459574695     1.665520562897     1.007825032230
         H           -0.879300139520     2.169135574695     0.494871562897     1.007825032230
         H            0.602692860480    -1.335888425305    -1.375245437103     1.007825032230
         H            1.545280860480    -2.148020425305    -0.154002437103     1.007825032230
         H            1.545279860480     2.168011574695    -0.154003437103     1.007825032230
         H            0.602690860480     1.355878574695    -1.375245437103     1.007825032230
         H            2.231315860480     0.009996574695     0.843989562897     1.007825032230
         H            2.614360860480     0.009995574695    -0.871422437103     1.007825032230
         H           -1.144417139520     0.009983574695    -1.575557437103     1.007825032230
         H           -2.412916139520     0.841381574695    -0.902482437103     1.007825032230
         H           -2.412934139520    -0.821379425305    -0.902472437103     1.007825032230

  Basis Set: AUG-CC-PVTZ
    Blend: AUG-CC-PVTZ
  Basis Set: (AUG-CC-PVTZ AUX)
    Blend: AUG-CC-PVTZ-JKFIT
	 Reference Energy          =    -289.7022385619082456 [Eh]
	 Singles Energy            =      -0.0000000000000000 [Eh]
	 Same-Spin Energy          =      -0.3074468170091616 [Eh]
	 Opposite-Spin Energy      =      -1.0940355466238139 [Eh]
	 Correlation Energy        =      -1.4014823636329754 [Eh]
	 Total Energy              =    -291.1037209255412108 [Eh]

	 ================> DF-SCS-MP2 Energies <==================
	-----------------------------------------------------------
	 SCS Same-Spin Scale       =       0.3333333333333333 [-]
	 SCS Opposite-Spin Scale   =       1.2000000000000000 [-]
	 SCS Same-Spin Energy      =      -0.1024822723363872 [Eh]
	 SCS Opposite-Spin Energy  =      -1.3128426559485766 [Eh]
	 SCS Correlation Energy    =      -1.4153249282849638 [Eh]
	 SCS Total Energy          =    -291.1175634901932199 [Eh]
	-----------------------------------------------------------

  Dipole Moment: [D]
     X:    -5.6080      Y:     0.0068      Z:    -2.0649     Total:     5.9760

*** Psi4 exiting successfully. Buy a developer a beer!
