                               Psi4 1.4a3.dev225

  ==> Input File <==

--------------------------------------------------------------------------
#psi4
#
memory 32 gb

molecule  {
1 1
  N       -1.8084550     0.0000000    -0.7896910
  C       -1.1252509     0.0000000     0.4654783
  C       -0.2407120    -1.2715670     0.6435230
  C       -0.2407120     1.2715670     0.6435240
  C        0.9483640    -1.2633510    -0.3226430
  C        0.9483630     1.2633510    -0.3226440
  C        1.7921720     0.0000000    -0.1500480
  H       -1.8788710     0.0000000     1.2988220
  H       -0.8715790    -2.1591400     0.5029120
  H        0.1300900    -1.3254650     1.6735610
  H        0.1300910     1.3254640     1.6735620
  H       -0.8715790     2.1591400     0.5029130
  H        0.6104140    -1.3458840    -1.3672040
  H        1.5530020    -2.1580160    -0.1459610
  H        1.5530010     2.1580160    -0.1459620
  H        0.6104120     1.3458830    -1.3672040
  H        2.2390370     0.0000010     0.8520310
  H        2.6220820     0.0000000    -0.8633810
  H       -1.1366960    -0.0000120    -1.5675160
  H       -2.4051950     0.8313860    -0.8944410
  H       -2.4052130    -0.8313750    -0.8944310
units angstrom
no_reorient  #important for SAPT in psi4, default
symmetry c1  #important for SAPT in psi4, default
}

set PROPERTIES_ORIGIN ["COM"]
properties('MP2/aug-cc-pvtz', properties = ['dipole'])
--------------------------------------------------------------------------

    Molecular point group: c1
  Charge       = 1
  Multiplicity = 1
  Basis Set: AUG-CC-PVTZ
    Blend: AUG-CC-PVTZ
  Basis Set: (AUG-CC-PVTZ AUX)
    Blend: AUG-CC-PVTZ-JKFIT

    Orbital Energies [Eh]
    ---------------------

    Doubly Occupied:

       1A    -15.887397     2A    -11.460719     3A    -11.390592
       4A    -11.390581     5A    -11.370006     6A    -11.370002
       7A    -11.356488     8A     -1.522034     9A     -1.270320
      10A     -1.168674    11A     -1.165609    12A     -1.019558
      13A     -1.005194    14A     -0.969380    15A     -0.946185
      16A     -0.923346    17A     -0.825513    18A     -0.804297
      19A     -0.761828    20A     -0.755741    21A     -0.695354
      22A     -0.687422    23A     -0.685684    24A     -0.676777
      25A     -0.646205    26A     -0.610326    27A     -0.590290
      28A     -0.587878

  @DF-RHF Final Energy:  -289.70126880579505

   => Energetics <=

    Nuclear Repulsion Energy =            347.0528058839963705
    One-Electron Energy =               -1068.4213502261738995
    Two-Electron Energy =                 431.6672755363824763
    Total Energy =                       -289.7012688057950527
  Basis Set: (AUG-CC-PVTZ AUX)
    Blend: AUG-CC-PVTZ-RI
    Molecular point group: c1

    Geometry (in Angstrom), charge = 1, multiplicity = 1:

       Center              X                  Y                   Z               Mass
    ------------   -----------------  -----------------  -----------------  -----------------
         N           -1.803868257205     0.000000020134    -0.786495344817    14.003074004430
         C           -1.120664157205     0.000000020134     0.468673955183    12.000000000000
         C           -0.236125257205    -1.271566979866     0.646718655183    12.000000000000
         C           -0.236125257205     1.271567020134     0.646719655183    12.000000000000
         C            0.952950742795    -1.263350979866    -0.319447344817    12.000000000000
         C            0.952949742795     1.263351020134    -0.319448344817    12.000000000000
         C            1.796758742795     0.000000020134    -0.146852344817    12.000000000000
         H           -1.874284257205     0.000000020134     1.302017655183     1.007825032230
         H           -0.866992257205    -2.159139979866     0.506107655183     1.007825032230
         H            0.134676742795    -1.325464979866     1.676756655183     1.007825032230
         H            0.134677742795     1.325464020134     1.676757655183     1.007825032230
         H           -0.866992257205     2.159140020134     0.506108655183     1.007825032230
         H            0.615000742795    -1.345883979866    -1.364008344817     1.007825032230
         H            1.557588742795    -2.158015979866    -0.142765344817     1.007825032230
         H            1.557587742795     2.158016020134    -0.142766344817     1.007825032230
         H            0.614998742795     1.345883020134    -1.364008344817     1.007825032230
         H            2.243623742795     0.000001020134     0.855226655183     1.007825032230
         H            2.626668742795     0.000000020134    -0.860185344817     1.007825032230
         H           -1.132109257205    -0.000011979866    -1.564320344817     1.007825032230
         H           -2.400608257205     0.831386020134    -0.891245344817     1.007825032230
         H           -2.400626257205    -0.831374979866    -0.891235344817     1.007825032230

  Basis Set: AUG-CC-PVTZ
    Blend: AUG-CC-PVTZ
  Basis Set: (AUG-CC-PVTZ AUX)
    Blend: AUG-CC-PVTZ-JKFIT
	 Reference Energy          =    -289.7012688057950527 [Eh]
	 Singles Energy            =      -0.0000000000000000 [Eh]
	 Same-Spin Energy          =      -0.3081074848636685 [Eh]
	 Opposite-Spin Energy      =      -1.0942471869377921 [Eh]
	 Correlation Energy        =      -1.4023546718014606 [Eh]
	 Total Energy              =    -291.1036234775964999 [Eh]

	 ================> DF-SCS-MP2 Energies <==================
	-----------------------------------------------------------
	 SCS Same-Spin Scale       =       0.3333333333333333 [-]
	 SCS Opposite-Spin Scale   =       1.2000000000000000 [-]
	 SCS Same-Spin Energy      =      -0.1027024949545561 [Eh]
	 SCS Opposite-Spin Energy  =      -1.3130966243253506 [Eh]
	 SCS Correlation Energy    =      -1.4157991192799066 [Eh]
	 SCS Total Energy          =    -291.1170679250749345 [Eh]
	-----------------------------------------------------------

  Dipole Moment: [D]
     X:    -5.7438      Y:    -0.0000      Z:    -2.2158     Total:     6.1564

*** Psi4 exiting successfully. Buy a developer a beer!
