                               Psi4 1.4a3.dev225

  ==> Input File <==

--------------------------------------------------------------------------
#psi4
#
memory 32 gb

molecule  {
1 1
  N       -1.8084550     0.0000000    -0.7896910
  C       -1.0774430     0.0000000     0.5533100
  C       -0.2407120    -1.2715670     0.6435230
  C       -0.2407120     1.2715670     0.6435240
  C        0.9483640    -1.2633510    -0.3226430
  C        0.9483630     1.2633510    -0.3226440
  C        1.7921720     0.0000000    -0.1500480
  H       -1.8788710     0.0000000     1.2988220
  H       -0.8715790    -2.1591400     0.5029120
  H        0.1300900    -1.3254650     1.6735610
  H        0.1300910     1.3254640     1.6735620
  H       -0.8715790     2.1591400     0.5029130
  H        0.6685807    -1.4452607    -1.3718140
  H        1.5530020    -2.1580160    -0.1459610
  H        1.5530010     2.1580160    -0.1459620
  H        0.6104120     1.3458830    -1.3672040
  H        2.2390370     0.0000010     0.8520310
  H        2.6220820     0.0000000    -0.8633810
  H       -1.1366960    -0.0000120    -1.5675160
  H       -2.4051950     0.8313860    -0.8944410
  H       -2.4052130    -0.8313750    -0.8944310
units angstrom
no_reorient  #important for SAPT in psi4, default
symmetry c1  #important for SAPT in psi4, default
}

set PROPERTIES_ORIGIN ["COM"]
properties('MP2/aug-cc-pvtz', properties = ['dipole'])
--------------------------------------------------------------------------

    Molecular point group: c1
  Charge       = 1
  Multiplicity = 1
  Basis Set: AUG-CC-PVTZ
    Blend: AUG-CC-PVTZ
  Basis Set: (AUG-CC-PVTZ AUX)
    Blend: AUG-CC-PVTZ-JKFIT

    Orbital Energies [Eh]
    ---------------------

    Doubly Occupied:

       1A    -15.874247     2A    -11.466569     3A    -11.391148
       4A    -11.390333     5A    -11.371377     6A    -11.370362
       7A    -11.358335     8A     -1.492044     9A     -1.277078
      10A     -1.172399    11A     -1.170255    12A     -1.009977
      13A     -1.007059    14A     -0.950212    15A     -0.934042
      16A     -0.919248    17A     -0.815099    18A     -0.814537
      19A     -0.762469    20A     -0.754452    21A     -0.699270
      22A     -0.695996    23A     -0.686682    24A     -0.686170
      25A     -0.645817    26A     -0.610638    27A     -0.594929
      28A     -0.593905

  @DF-RHF Final Energy:  -289.70838510542524

   => Energetics <=

    Nuclear Repulsion Energy =            346.4918807124955151
    One-Electron Energy =               -1067.3712338511106736
    Two-Electron Energy =                 431.1709680331899790
    Total Energy =                       -289.7083851054252364
  Basis Set: (AUG-CC-PVTZ AUX)
    Blend: AUG-CC-PVTZ-RI
    Molecular point group: c1

    Geometry (in Angstrom), charge = 1, multiplicity = 1:

       Center              X                  Y                   Z               Mass
    ------------   -----------------  -----------------  -----------------  -----------------
         N           -1.810184310348     0.001000436679    -0.796976883307    14.003074004430
         C           -1.079172310348     0.001000436679     0.546024116693    12.000000000000
         C           -0.242441310348    -1.270566563321     0.636237116693    12.000000000000
         C           -0.242441310348     1.272567436679     0.636238116693    12.000000000000
         C            0.946634689652    -1.262350563321    -0.329928883307    12.000000000000
         C            0.946633689652     1.264351436679    -0.329929883307    12.000000000000
         C            1.790442689652     0.001000436679    -0.157333883307    12.000000000000
         H           -1.880600310348     0.001000436679     1.291536116693     1.007825032230
         H           -0.873308310348    -2.158139563321     0.495626116693     1.007825032230
         H            0.128360689652    -1.324464563321     1.666275116693     1.007825032230
         H            0.128361689652     1.326464436679     1.666276116693     1.007825032230
         H           -0.873308310348     2.160140436679     0.495627116693     1.007825032230
         H            0.666851389652    -1.444260263321    -1.379099883307     1.007825032230
         H            1.551272689652    -2.157015563321    -0.153246883307     1.007825032230
         H            1.551271689652     2.159016436679    -0.153247883307     1.007825032230
         H            0.608682689652     1.346883436679    -1.374489883307     1.007825032230
         H            2.237307689652     0.001001436679     0.844745116693     1.007825032230
         H            2.620352689652     0.001000436679    -0.870666883307     1.007825032230
         H           -1.138425310348     0.000988436679    -1.574801883307     1.007825032230
         H           -2.406924310348     0.832386436679    -0.901726883307     1.007825032230
         H           -2.406942310348    -0.830374563321    -0.901716883307     1.007825032230

  Basis Set: AUG-CC-PVTZ
    Blend: AUG-CC-PVTZ
  Basis Set: (AUG-CC-PVTZ AUX)
    Blend: AUG-CC-PVTZ-JKFIT
	 Reference Energy          =    -289.7083851054252364 [Eh]
	 Singles Energy            =      -0.0000000000000000 [Eh]
	 Same-Spin Energy          =      -0.3076648389718130 [Eh]
	 Opposite-Spin Energy      =      -1.0938576927726582 [Eh]
	 Correlation Energy        =      -1.4015225317444711 [Eh]
	 Total Energy              =    -291.1099076371697265 [Eh]

	 ================> DF-SCS-MP2 Energies <==================
	-----------------------------------------------------------
	 SCS Same-Spin Scale       =       0.3333333333333333 [-]
	 SCS Opposite-Spin Scale   =       1.2000000000000000 [-]
	 SCS Same-Spin Energy      =      -0.1025549463239376 [Eh]
	 SCS Opposite-Spin Energy  =      -1.3126292313271899 [Eh]
	 SCS Correlation Energy    =      -1.4151841776511276 [Eh]
	 SCS Total Energy          =    -291.1235692830763355 [Eh]
	-----------------------------------------------------------

  Dipole Moment: [D]
     X:    -5.5913      Y:    -0.0325      Z:    -2.0756     Total:     5.9642

*** Psi4 exiting successfully. Buy a developer a beer!
