                               Psi4 1.4a3.dev225

  ==> Input File <==

--------------------------------------------------------------------------
#psi4
#
memory 32 gb

molecule  {
1 1
  N       -1.8084550     0.0000000    -0.7896910
  C       -1.0774430     0.0000000     0.5533100
  C       -0.2407120    -1.2715670     0.6435230
  C       -0.2036937     1.3640687     0.6823778
  C        0.9483640    -1.2633510    -0.3226430
  C        0.9483630     1.2633510    -0.3226440
  C        1.7921720     0.0000000    -0.1500480
  H       -1.8788710     0.0000000     1.2988220
  H       -0.8715790    -2.1591400     0.5029120
  H        0.1300900    -1.3254650     1.6735610
  H        0.1300910     1.3254640     1.6735620
  H       -0.8715790     2.1591400     0.5029130
  H        0.6104140    -1.3458840    -1.3672040
  H        1.5530020    -2.1580160    -0.1459610
  H        1.5530010     2.1580160    -0.1459620
  H        0.6104120     1.3458830    -1.3672040
  H        2.2390370     0.0000010     0.8520310
  H        2.6220820     0.0000000    -0.8633810
  H       -1.1366960    -0.0000120    -1.5675160
  H       -2.4051950     0.8313860    -0.8944410
  H       -2.4052130    -0.8313750    -0.8944310
units angstrom
no_reorient  #important for SAPT in psi4, default
symmetry c1  #important for SAPT in psi4, default
}

set PROPERTIES_ORIGIN ["COM"]
properties('MP2/aug-cc-pvtz', properties = ['dipole'])
--------------------------------------------------------------------------

    Molecular point group: c1
  Charge       = 1
  Multiplicity = 1
  Basis Set: AUG-CC-PVTZ
    Blend: AUG-CC-PVTZ
  Basis Set: (AUG-CC-PVTZ AUX)
    Blend: AUG-CC-PVTZ-JKFIT

    Orbital Energies [Eh]
    ---------------------

    Doubly Occupied:

       1A    -15.874242     2A    -11.466113     3A    -11.390683
       4A    -11.389700     5A    -11.371754     6A    -11.371000
       7A    -11.358878     8A     -1.489630     9A     -1.270603
      10A     -1.174205    11A     -1.163185    12A     -1.013862
      13A     -1.002805    14A     -0.949701    15A     -0.934876
      16A     -0.918552    17A     -0.813299    18A     -0.808271
      19A     -0.770334    20A     -0.760510    21A     -0.702677
      22A     -0.696614    23A     -0.687282    24A     -0.672514
      25A     -0.651468    26A     -0.612652    27A     -0.602060
      28A     -0.582590

  @DF-RHF Final Energy:  -289.70085272678904

   => Energetics <=

    Nuclear Repulsion Energy =            345.1231294251853683
    One-Electron Energy =               -1064.6478505714396761
    Two-Electron Energy =                 429.8238684194652137
    Total Energy =                       -289.7008527267890372
  Basis Set: (AUG-CC-PVTZ AUX)
    Blend: AUG-CC-PVTZ-RI
    Molecular point group: c1

    Geometry (in Angstrom), charge = 1, multiplicity = 1:

       Center              X                  Y                   Z               Mass
    ------------   -----------------  -----------------  -----------------  -----------------
         N           -1.814035949897    -0.011087696386    -0.801680502616    14.003074004430
         C           -1.083023949897    -0.011087696386     0.541320497384    12.000000000000
         C           -0.246292949897    -1.282654696386     0.631533497384    12.000000000000
         C           -0.209274649897     1.352981003614     0.670388297384    12.000000000000
         C            0.942783050103    -1.274438696386    -0.334632502616    12.000000000000
         C            0.942782050103     1.252263303614    -0.334633502616    12.000000000000
         C            1.786591050103    -0.011087696386    -0.162037502616    12.000000000000
         H           -1.884451949897    -0.011087696386     1.286832497384     1.007825032230
         H           -0.877159949897    -2.170227696386     0.490922497384     1.007825032230
         H            0.124509050103    -1.336552696386     1.661571497384     1.007825032230
         H            0.124510050103     1.314376303614     1.661572497384     1.007825032230
         H           -0.877159949897     2.148052303614     0.490923497384     1.007825032230
         H            0.604833050103    -1.356971696386    -1.379193502616     1.007825032230
         H            1.547421050103    -2.169103696386    -0.157950502616     1.007825032230
         H            1.547420050103     2.146928303614    -0.157951502616     1.007825032230
         H            0.604831050103     1.334795303614    -1.379193502616     1.007825032230
         H            2.233456050103    -0.011086696386     0.840041497384     1.007825032230
         H            2.616501050103    -0.011087696386    -0.875370502616     1.007825032230
         H           -1.142276949897    -0.011099696386    -1.579505502616     1.007825032230
         H           -2.410775949897     0.820298303614    -0.906430502616     1.007825032230
         H           -2.410793949897    -0.842462696386    -0.906420502616     1.007825032230

  Basis Set: AUG-CC-PVTZ
    Blend: AUG-CC-PVTZ
  Basis Set: (AUG-CC-PVTZ AUX)
    Blend: AUG-CC-PVTZ-JKFIT
	 Reference Energy          =    -289.7008527267890372 [Eh]
	 Singles Energy            =      -0.0000000000000000 [Eh]
	 Same-Spin Energy          =      -0.3071467381907582 [Eh]
	 Opposite-Spin Energy      =      -1.0937920827524694 [Eh]
	 Correlation Energy        =      -1.4009388209432276 [Eh]
	 Total Energy              =    -291.1017915477322617 [Eh]

	 ================> DF-SCS-MP2 Energies <==================
	-----------------------------------------------------------
	 SCS Same-Spin Scale       =       0.3333333333333333 [-]
	 SCS Opposite-Spin Scale   =       1.2000000000000000 [-]
	 SCS Same-Spin Energy      =      -0.1023822460635860 [Eh]
	 SCS Opposite-Spin Energy  =      -1.3125504993029633 [Eh]
	 SCS Correlation Energy    =      -1.4149327453665494 [Eh]
	 SCS Total Energy          =    -291.1157854721556077 [Eh]
	-----------------------------------------------------------

  Dipole Moment: [D]
     X:    -5.6101      Y:    -0.0105      Z:    -2.0834     Total:     5.9845

*** Psi4 exiting successfully. Buy a developer a beer!
