                               Psi4 1.4a3.dev225

  ==> Input File <==

--------------------------------------------------------------------------
#psi4
#
memory 32 gb

molecule  {
1 1
  N       -1.8084550     0.0000000    -0.7896910
  C       -1.0774430     0.0000000     0.5533100
  C       -0.2407120    -1.2715670     0.6435230
  C       -0.2407120     1.2715670     0.6435240
  C        0.9483640    -1.2633510    -0.3226430
  C        0.9483630     1.2633510    -0.3226440
  C        1.7921720     0.0000000    -0.1500480
  H       -1.8788710     0.0000000     1.2988220
  H       -0.8715790    -2.1591400     0.5029120
  H        0.1300900    -1.3254650     1.6735610
  H        0.1300910     1.3254640     1.6735620
  H       -0.8715790     2.1591400     0.5029130
  H        0.6198681    -1.3625392    -1.3687700
  H        1.5530020    -2.1580160    -0.1459610
  H        1.5530010     2.1580160    -0.1459620
  H        0.6104120     1.3458830    -1.3672040
  H        2.2390370     0.0000010     0.8520310
  H        2.6220820     0.0000000    -0.8633810
  H       -1.1366960    -0.0000120    -1.5675160
  H       -2.4051950     0.8313860    -0.8944410
  H       -2.4052130    -0.8313750    -0.8944310
units angstrom
no_reorient  #important for SAPT in psi4, default
symmetry c1  #important for SAPT in psi4, default
}

set PROPERTIES_ORIGIN ["COM"]
properties('MP2/aug-cc-pvtz', properties = ['dipole'])
--------------------------------------------------------------------------

    Molecular point group: c1
  Charge       = 1
  Multiplicity = 1
  Basis Set: AUG-CC-PVTZ
    Blend: AUG-CC-PVTZ
  Basis Set: (AUG-CC-PVTZ AUX)
    Blend: AUG-CC-PVTZ-JKFIT

    Orbital Energies [Eh]
    ---------------------

    Doubly Occupied:

       1A    -15.874493     2A    -11.466743     3A    -11.390598
       4A    -11.390464     5A    -11.371615     6A    -11.371441
       7A    -11.357949     8A     -1.492361     9A     -1.277527
      10A     -1.172616    11A     -1.170598    12A     -1.010104
      13A     -1.006430    14A     -0.950833    15A     -0.934242
      16A     -0.918523    17A     -0.815361    18A     -0.814081
      19A     -0.763693    20A     -0.756116    21A     -0.698775
      22A     -0.696108    23A     -0.687021    24A     -0.686119
      25A     -0.646537    26A     -0.610935    27A     -0.595448
      28A     -0.594883

  @DF-RHF Final Energy:  -289.70971876736456

   => Energetics <=

    Nuclear Repulsion Energy =            346.6621348060229479
    One-Electron Energy =               -1067.7004735338584851
    Two-Electron Energy =                 431.3286199604709168
    Total Energy =                       -289.7097187673645635
  Basis Set: (AUG-CC-PVTZ AUX)
    Blend: AUG-CC-PVTZ-RI
    Molecular point group: c1

    Geometry (in Angstrom), charge = 1, multiplicity = 1:

       Center              X                  Y                   Z               Mass
    ------------   -----------------  -----------------  -----------------  -----------------
         N           -1.809693924865     0.000167686575    -0.797007526989    14.003074004430
         C           -1.078681924865     0.000167686575     0.545993473011    12.000000000000
         C           -0.241950924865    -1.271399313425     0.636206473011    12.000000000000
         C           -0.241950924865     1.271734686575     0.636207473011    12.000000000000
         C            0.947125075135    -1.263183313425    -0.329959526989    12.000000000000
         C            0.947124075135     1.263518686575    -0.329960526989    12.000000000000
         C            1.790933075135     0.000167686575    -0.157364526989    12.000000000000
         H           -1.880109924865     0.000167686575     1.291505473011     1.007825032230
         H           -0.872817924865    -2.158972313425     0.495595473011     1.007825032230
         H            0.128851075135    -1.325297313425     1.666244473011     1.007825032230
         H            0.128852075135     1.325631686575     1.666245473011     1.007825032230
         H           -0.872817924865     2.159307686575     0.495596473011     1.007825032230
         H            0.618629175135    -1.362371513425    -1.376086526989     1.007825032230
         H            1.551763075135    -2.157848313425    -0.153277526989     1.007825032230
         H            1.551762075135     2.158183686575    -0.153278526989     1.007825032230
         H            0.609173075135     1.346050686575    -1.374520526989     1.007825032230
         H            2.237798075135     0.000168686575     0.844714473011     1.007825032230
         H            2.620843075135     0.000167686575    -0.870697526989     1.007825032230
         H           -1.137934924865     0.000155686575    -1.574832526989     1.007825032230
         H           -2.406433924865     0.831553686575    -0.901757526989     1.007825032230
         H           -2.406451924865    -0.831207313425    -0.901747526989     1.007825032230

  Basis Set: AUG-CC-PVTZ
    Blend: AUG-CC-PVTZ
  Basis Set: (AUG-CC-PVTZ AUX)
    Blend: AUG-CC-PVTZ-JKFIT
	 Reference Energy          =    -289.7097187673645635 [Eh]
	 Singles Energy            =      -0.0000000000000000 [Eh]
	 Same-Spin Energy          =      -0.3076302048460191 [Eh]
	 Opposite-Spin Energy      =      -1.0938752102218543 [Eh]
	 Correlation Energy        =      -1.4015054150678734 [Eh]
	 Total Energy              =    -291.1112241824324087 [Eh]

	 ================> DF-SCS-MP2 Energies <==================
	-----------------------------------------------------------
	 SCS Same-Spin Scale       =       0.3333333333333333 [-]
	 SCS Opposite-Spin Scale   =       1.2000000000000000 [-]
	 SCS Same-Spin Energy      =      -0.1025434016153397 [Eh]
	 SCS Opposite-Spin Energy  =      -1.3126502522662251 [Eh]
	 SCS Correlation Energy    =      -1.4151936538815648 [Eh]
	 SCS Total Energy          =    -291.1249124212461084 [Eh]
	-----------------------------------------------------------

  Dipole Moment: [D]
     X:    -5.5985      Y:    -0.0049      Z:    -2.0555     Total:     5.9639

*** Psi4 exiting successfully. Buy a developer a beer!
