                               Psi4 1.4a3.dev225

  ==> Input File <==

--------------------------------------------------------------------------
#psi4
#
memory 32 gb

molecule  {
1 1
  N       -1.8084550     0.0000000    -0.7896910
  C       -1.0774430     0.0000000     0.5533100
  C       -0.2407120    -1.2715670     0.6435230
  C       -0.2407120     1.2715670     0.6435240
  C        0.8640802    -1.2001938    -0.3398827
  C        0.9483630     1.2633510    -0.3226440
  C        1.7921720     0.0000000    -0.1500480
  H       -1.8788710     0.0000000     1.2988220
  H       -0.8715790    -2.1591400     0.5029120
  H        0.1300900    -1.3254650     1.6735610
  H        0.1300910     1.3254640     1.6735620
  H       -0.8715790     2.1591400     0.5029130
  H        0.6104140    -1.3458840    -1.3672040
  H        1.5530020    -2.1580160    -0.1459610
  H        1.5530010     2.1580160    -0.1459620
  H        0.6104120     1.3458830    -1.3672040
  H        2.2390370     0.0000010     0.8520310
  H        2.6220820     0.0000000    -0.8633810
  H       -1.1366960    -0.0000120    -1.5675160
  H       -2.4051950     0.8313860    -0.8944410
  H       -2.4052130    -0.8313750    -0.8944310
units angstrom
no_reorient  #important for SAPT in psi4, default
symmetry c1  #important for SAPT in psi4, default
}

set PROPERTIES_ORIGIN ["COM"]
properties('MP2/aug-cc-pvtz', properties = ['dipole'])
--------------------------------------------------------------------------

    Molecular point group: c1
  Charge       = 1
  Multiplicity = 1
  Basis Set: AUG-CC-PVTZ
    Blend: AUG-CC-PVTZ
  Basis Set: (AUG-CC-PVTZ AUX)
    Blend: AUG-CC-PVTZ-JKFIT

    Orbital Energies [Eh]
    ---------------------

    Doubly Occupied:

       1A    -15.874673     2A    -11.465272     3A    -11.390692
       4A    -11.390407     5A    -11.374014     6A    -11.369787
       7A    -11.359060     8A     -1.492895     9A     -1.283359
      10A     -1.177210    11A     -1.170258    12A     -1.012279
      13A     -1.002358    14A     -0.952096    15A     -0.934676
      16A     -0.919396    17A     -0.818370    18A     -0.816948
      19A     -0.759934    20A     -0.758050    21A     -0.699362
      22A     -0.696734    23A     -0.693462    24A     -0.681808
      25A     -0.649017    26A     -0.616017    27A     -0.600909
      28A     -0.573247

  @DF-RHF Final Energy:  -289.69688849919146

   => Energetics <=

    Nuclear Repulsion Energy =            348.0655809387902764
    One-Electron Energy =               -1070.4603651176582844
    Two-Electron Energy =                 432.6978956796765488
    Total Energy =                       -289.6968884991914592
  Basis Set: (AUG-CC-PVTZ AUX)
    Blend: AUG-CC-PVTZ-RI
    Molecular point group: c1

    Geometry (in Angstrom), charge = 1, multiplicity = 1:

       Center              X                  Y                   Z               Mass
    ------------   -----------------  -----------------  -----------------  -----------------
         N           -1.799496073354    -0.007570317814    -0.794956855087    14.003074004430
         C           -1.068484073354    -0.007570317814     0.548044144913    12.000000000000
         C           -0.231753073354    -1.279137317814     0.638257144913    12.000000000000
         C           -0.231753073354     1.263996682186     0.638258144913    12.000000000000
         C            0.873039126646    -1.207764117814    -0.345148555087    12.000000000000
         C            0.957321926646     1.255780682186    -0.327909855087    12.000000000000
         C            1.801130926646    -0.007570317814    -0.155313855087    12.000000000000
         H           -1.869912073354    -0.007570317814     1.293556144913     1.007825032230
         H           -0.862620073354    -2.166710317814     0.497646144913     1.007825032230
         H            0.139048926646    -1.333035317814     1.668295144913     1.007825032230
         H            0.139049926646     1.317893682186     1.668296144913     1.007825032230
         H           -0.862620073354     2.151569682186     0.497647144913     1.007825032230
         H            0.619372926646    -1.353454317814    -1.372469855087     1.007825032230
         H            1.561960926646    -2.165586317814    -0.151226855087     1.007825032230
         H            1.561959926646     2.150445682186    -0.151227855087     1.007825032230
         H            0.619370926646     1.338312682186    -1.372469855087     1.007825032230
         H            2.247995926646    -0.007569317814     0.846765144913     1.007825032230
         H            2.631040926646    -0.007570317814    -0.868646855087     1.007825032230
         H           -1.127737073354    -0.007582317814    -1.572781855087     1.007825032230
         H           -2.396236073354     0.823815682186    -0.899706855087     1.007825032230
         H           -2.396254073354    -0.838945317814    -0.899696855087     1.007825032230

  Basis Set: AUG-CC-PVTZ
    Blend: AUG-CC-PVTZ
  Basis Set: (AUG-CC-PVTZ AUX)
    Blend: AUG-CC-PVTZ-JKFIT
	 Reference Energy          =    -289.6968884991914592 [Eh]
	 Singles Energy            =      -0.0000000000000000 [Eh]
	 Same-Spin Energy          =      -0.3086360860145960 [Eh]
	 Opposite-Spin Energy      =      -1.0953330725777783 [Eh]
	 Correlation Energy        =      -1.4039691585923744 [Eh]
	 Total Energy              =    -291.1008576577838198 [Eh]

	 ================> DF-SCS-MP2 Energies <==================
	-----------------------------------------------------------
	 SCS Same-Spin Scale       =       0.3333333333333333 [-]
	 SCS Opposite-Spin Scale   =       1.2000000000000000 [-]
	 SCS Same-Spin Energy      =      -0.1028786953381987 [Eh]
	 SCS Opposite-Spin Energy  =      -1.3143996870933339 [Eh]
	 SCS Correlation Energy    =      -1.4172783824315325 [Eh]
	 SCS Total Energy          =    -291.1141668816229640 [Eh]
	-----------------------------------------------------------

  Dipole Moment: [D]
     X:    -5.5598      Y:    -0.0474      Z:    -2.0475     Total:     5.9251

*** Psi4 exiting successfully. Buy a developer a beer!
