                               Psi4 1.4a3.dev225

  ==> Input File <==

--------------------------------------------------------------------------
#psi4
#
memory 32 gb

molecule  {
1 1
  N       -1.8084550     0.0000000    -0.7896910
  C       -1.0774430     0.0000000     0.5533100
  C       -0.2132753    -1.3132621     0.6464811
  C       -0.2407120     1.2715670     0.6435240
  C        0.9483640    -1.2633510    -0.3226430
  C        0.9483630     1.2633510    -0.3226440
  C        1.7921720     0.0000000    -0.1500480
  H       -1.8788710     0.0000000     1.2988220
  H       -0.8715790    -2.1591400     0.5029120
  H        0.1300900    -1.3254650     1.6735610
  H        0.1300910     1.3254640     1.6735620
  H       -0.8715790     2.1591400     0.5029130
  H        0.6104140    -1.3458840    -1.3672040
  H        1.5530020    -2.1580160    -0.1459610
  H        1.5530010     2.1580160    -0.1459620
  H        0.6104120     1.3458830    -1.3672040
  H        2.2390370     0.0000010     0.8520310
  H        2.6220820     0.0000000    -0.8633810
  H       -1.1366960    -0.0000120    -1.5675160
  H       -2.4051950     0.8313860    -0.8944410
  H       -2.4052130    -0.8313750    -0.8944310
units angstrom
no_reorient  #important for SAPT in psi4, default
symmetry c1  #important for SAPT in psi4, default
}

set PROPERTIES_ORIGIN ["COM"]
properties('MP2/aug-cc-pvtz', properties = ['dipole'])
--------------------------------------------------------------------------

    Molecular point group: c1
  Charge       = 1
  Multiplicity = 1
  Basis Set: AUG-CC-PVTZ
    Blend: AUG-CC-PVTZ
  Basis Set: (AUG-CC-PVTZ AUX)
    Blend: AUG-CC-PVTZ-JKFIT

    Orbital Energies [Eh]
    ---------------------

    Doubly Occupied:

       1A    -15.874201     2A    -11.466865     3A    -11.391001
       4A    -11.390079     5A    -11.371451     6A    -11.370743
       7A    -11.358445     8A     -1.490986     9A     -1.274994
      10A     -1.175099    11A     -1.166454    12A     -1.011714
      13A     -1.004646    14A     -0.950222    15A     -0.934219
      16A     -0.918424    17A     -0.813861    18A     -0.811809
      19A     -0.766410    20A     -0.757807    21A     -0.697982
      22A     -0.696104    23A     -0.689473    24A     -0.681308
      25A     -0.647958    26A     -0.611872    27A     -0.599469
      28A     -0.590210

  @DF-RHF Final Energy:  -289.70799881109269

   => Energetics <=

    Nuclear Repulsion Energy =            346.1401696222389432
    One-Electron Energy =               -1066.6687276929446853
    Two-Electron Energy =                 430.8205592596129918
    Total Energy =                       -289.7079988110926934
  Basis Set: (AUG-CC-PVTZ AUX)
    Blend: AUG-CC-PVTZ-RI
    Molecular point group: c1

    Geometry (in Angstrom), charge = 1, multiplicity = 1:

       Center              X                  Y                   Z               Mass
    ------------   -----------------  -----------------  -----------------  -----------------
         N           -1.812887451387     0.004997803408    -0.797377864438    14.003074004430
         C           -1.081875451387     0.004997803408     0.545623135562    12.000000000000
         C           -0.217707751387    -1.308264296592     0.638794235562    12.000000000000
         C           -0.245144451387     1.276564803408     0.635837135562    12.000000000000
         C            0.943931548613    -1.258353196592    -0.330329864438    12.000000000000
         C            0.943930548613     1.268348803408    -0.330330864438    12.000000000000
         C            1.787739548613     0.004997803408    -0.157734864438    12.000000000000
         H           -1.883303451387     0.004997803408     1.291135135562     1.007825032230
         H           -0.876011451387    -2.154142196592     0.495225135562     1.007825032230
         H            0.125657548613    -1.320467196592     1.665874135562     1.007825032230
         H            0.125658548613     1.330461803408     1.665875135562     1.007825032230
         H           -0.876011451387     2.164137803408     0.495226135562     1.007825032230
         H            0.605981548613    -1.340886196592    -1.374890864438     1.007825032230
         H            1.548569548613    -2.153018196592    -0.153647864438     1.007825032230
         H            1.548568548613     2.163013803408    -0.153648864438     1.007825032230
         H            0.605979548613     1.350880803408    -1.374890864438     1.007825032230
         H            2.234604548613     0.004998803408     0.844344135562     1.007825032230
         H            2.617649548613     0.004997803408    -0.871067864438     1.007825032230
         H           -1.141128451387     0.004985803408    -1.575202864438     1.007825032230
         H           -2.409627451387     0.836383803408    -0.902127864438     1.007825032230
         H           -2.409645451387    -0.826377196592    -0.902117864438     1.007825032230

  Basis Set: AUG-CC-PVTZ
    Blend: AUG-CC-PVTZ
  Basis Set: (AUG-CC-PVTZ AUX)
    Blend: AUG-CC-PVTZ-JKFIT
	 Reference Energy          =    -289.7079988110926934 [Eh]
	 Singles Energy            =      -0.0000000000000000 [Eh]
	 Same-Spin Energy          =      -0.3074472889858681 [Eh]
	 Opposite-Spin Energy      =      -1.0937924359840487 [Eh]
	 Correlation Energy        =      -1.4012397249699169 [Eh]
	 Total Energy              =    -291.1092385360626054 [Eh]

	 ================> DF-SCS-MP2 Energies <==================
	-----------------------------------------------------------
	 SCS Same-Spin Scale       =       0.3333333333333333 [-]
	 SCS Opposite-Spin Scale   =       1.2000000000000000 [-]
	 SCS Same-Spin Energy      =      -0.1024824296619560 [Eh]
	 SCS Opposite-Spin Energy  =      -1.3125509231808585 [Eh]
	 SCS Correlation Energy    =      -1.4150333528428145 [Eh]
	 SCS Total Energy          =    -291.1230321639355338 [Eh]
	-----------------------------------------------------------

  Dipole Moment: [D]
     X:    -5.6088      Y:     0.0069      Z:    -2.0583     Total:     5.9745

*** Psi4 exiting successfully. Buy a developer a beer!
