                               Psi4 1.4a3.dev225

  ==> Input File <==

--------------------------------------------------------------------------
#psi4
#
memory 32 gb

molecule  {
1 1
  N       -1.6640686     0.0000000    -0.8587455
  C       -1.0774430     0.0000000     0.5533100
  C       -0.2407120    -1.2715670     0.6435230
  C       -0.2407120     1.2715670     0.6435240
  C        0.9483640    -1.2633510    -0.3226430
  C        0.9483630     1.2633510    -0.3226440
  C        1.7921720     0.0000000    -0.1500480
  H       -1.8788710     0.0000000     1.2988220
  H       -0.8715790    -2.1591400     0.5029120
  H        0.1300900    -1.3254650     1.6735610
  H        0.1300910     1.3254640     1.6735620
  H       -0.8715790     2.1591400     0.5029130
  H        0.6104140    -1.3458840    -1.3672040
  H        1.5530020    -2.1580160    -0.1459610
  H        1.5530010     2.1580160    -0.1459620
  H        0.6104120     1.3458830    -1.3672040
  H        2.2390370     0.0000010     0.8520310
  H        2.6220820     0.0000000    -0.8633810
  H       -1.1366960    -0.0000120    -1.5675160
  H       -2.4051950     0.8313860    -0.8944410
  H       -2.4052130    -0.8313750    -0.8944310
units angstrom
no_reorient  #important for SAPT in psi4, default
symmetry c1  #important for SAPT in psi4, default
}

set PROPERTIES_ORIGIN ["COM"]
properties('MP2/aug-cc-pvtz', properties = ['dipole'])
--------------------------------------------------------------------------

    Molecular point group: c1
  Charge       = 1
  Multiplicity = 1
  Basis Set: AUG-CC-PVTZ
    Blend: AUG-CC-PVTZ
  Basis Set: (AUG-CC-PVTZ AUX)
    Blend: AUG-CC-PVTZ-JKFIT

    Orbital Energies [Eh]
    ---------------------

    Doubly Occupied:

       1A    -15.874682     2A    -11.468957     3A    -11.388715
       4A    -11.388704     5A    -11.370916     6A    -11.370912
       7A    -11.357260     8A     -1.498178     9A     -1.277503
      10A     -1.174161    11A     -1.172061    12A     -1.028943
      13A     -1.002988    14A     -0.963726    15A     -0.922598
      16A     -0.888781    17A     -0.834910    18A     -0.808219
      19A     -0.761591    20A     -0.750064    21A     -0.702135
      22A     -0.694438    23A     -0.685289    24A     -0.680400
      25A     -0.645402    26A     -0.610910    27A     -0.594771
      28A     -0.594481

  @DF-RHF Final Energy:  -289.66862406336577

   => Energetics <=

    Nuclear Repulsion Energy =            348.0758271568682858
    One-Electron Energy =               -1070.4655081517510098
    Two-Electron Energy =                 432.7210569315169550
    Total Energy =                       -289.6686240633657690
  Basis Set: (AUG-CC-PVTZ AUX)
    Blend: AUG-CC-PVTZ-RI
    Molecular point group: c1

    Geometry (in Angstrom), charge = 1, multiplicity = 1:

       Center              X                  Y                   Z               Mass
    ------------   -----------------  -----------------  -----------------  -----------------
         N           -1.685408140314     0.000000020134    -0.856418917290    14.003074004430
         C           -1.098782540314     0.000000020134     0.555636582710    12.000000000000
         C           -0.262051540314    -1.271566979866     0.645849582710    12.000000000000
         C           -0.262051540314     1.271567020134     0.645850582710    12.000000000000
         C            0.927024459686    -1.263350979866    -0.320316417290    12.000000000000
         C            0.927023459686     1.263351020134    -0.320317417290    12.000000000000
         C            1.770832459686     0.000000020134    -0.147721417290    12.000000000000
         H           -1.900210540314     0.000000020134     1.301148582710     1.007825032230
         H           -0.892918540314    -2.159139979866     0.505238582710     1.007825032230
         H            0.108750459686    -1.325464979866     1.675887582710     1.007825032230
         H            0.108751459686     1.325464020134     1.675888582710     1.007825032230
         H           -0.892918540314     2.159140020134     0.505239582710     1.007825032230
         H            0.589074459686    -1.345883979866    -1.364877417290     1.007825032230
         H            1.531662459686    -2.158015979866    -0.143634417290     1.007825032230
         H            1.531661459686     2.158016020134    -0.143635417290     1.007825032230
         H            0.589072459686     1.345883020134    -1.364877417290     1.007825032230
         H            2.217697459686     0.000001020134     0.854357582710     1.007825032230
         H            2.600742459686     0.000000020134    -0.861054417290     1.007825032230
         H           -1.158035540314    -0.000011979866    -1.565189417290     1.007825032230
         H           -2.426534540314     0.831386020134    -0.892114417290     1.007825032230
         H           -2.426552540314    -0.831374979866    -0.892104417290     1.007825032230

  Basis Set: AUG-CC-PVTZ
    Blend: AUG-CC-PVTZ
  Basis Set: (AUG-CC-PVTZ AUX)
    Blend: AUG-CC-PVTZ-JKFIT
	 Reference Energy          =    -289.6686240633657690 [Eh]
	 Singles Energy            =      -0.0000000000000000 [Eh]
	 Same-Spin Energy          =      -0.3084882944339012 [Eh]
	 Opposite-Spin Energy      =      -1.0962637366515515 [Eh]
	 Correlation Energy        =      -1.4047520310854527 [Eh]
	 Total Energy              =    -291.0733760944512483 [Eh]

	 ================> DF-SCS-MP2 Energies <==================
	-----------------------------------------------------------
	 SCS Same-Spin Scale       =       0.3333333333333333 [-]
	 SCS Opposite-Spin Scale   =       1.2000000000000000 [-]
	 SCS Same-Spin Energy      =      -0.1028294314779671 [Eh]
	 SCS Opposite-Spin Energy  =      -1.3155164839818618 [Eh]
	 SCS Correlation Energy    =      -1.4183459154598288 [Eh]
	 SCS Total Energy          =    -291.0869699788256071 [Eh]
	-----------------------------------------------------------

  Dipole Moment: [D]
     X:    -5.8306      Y:    -0.0000      Z:    -1.9546     Total:     6.1495

*** Psi4 exiting successfully. Buy a developer a beer!
