                               Psi4 1.4a3.dev225

  ==> Input File <==

--------------------------------------------------------------------------
#psi4
#
memory 32 gb

molecule  {
1 1
  N       -1.8084550     0.0000000    -0.7896910
  C       -1.0774430     0.0000000     0.5533100
  C       -0.2407120    -1.2715670     0.6435230
  C       -0.2407120     1.2715670     0.6435240
  C        0.9483640    -1.2633510    -0.3226430
  C        0.9483630     1.2633510    -0.3226440
  C        1.7921720     0.0000000    -0.1500480
  H       -1.8788710     0.0000000     1.2988220
  H       -0.8715790    -2.1591400     0.5029120
  H        0.1233240    -1.3244815     1.6547659
  H        0.1300910     1.3254640     1.6735620
  H       -0.8715790     2.1591400     0.5029130
  H        0.6104140    -1.3458840    -1.3672040
  H        1.5530020    -2.1580160    -0.1459610
  H        1.5530010     2.1580160    -0.1459620
  H        0.6104120     1.3458830    -1.3672040
  H        2.2390370     0.0000010     0.8520310
  H        2.6220820     0.0000000    -0.8633810
  H       -1.1366960    -0.0000120    -1.5675160
  H       -2.4051950     0.8313860    -0.8944410
  H       -2.4052130    -0.8313750    -0.8944310
units angstrom
no_reorient  #important for SAPT in psi4, default
symmetry c1  #important for SAPT in psi4, default
}

set PROPERTIES_ORIGIN ["COM"]
properties('MP2/aug-cc-pvtz', properties = ['dipole'])
--------------------------------------------------------------------------

    Molecular point group: c1
  Charge       = 1
  Multiplicity = 1
  Basis Set: AUG-CC-PVTZ
    Blend: AUG-CC-PVTZ
  Basis Set: (AUG-CC-PVTZ AUX)
    Blend: AUG-CC-PVTZ-JKFIT

    Orbital Energies [Eh]
    ---------------------

    Doubly Occupied:

       1A    -15.874453     2A    -11.466683     3A    -11.390526
       4A    -11.388229     5A    -11.371667     6A    -11.371529
       7A    -11.357884     8A     -1.492336     9A     -1.277959
      10A     -1.173278    11A     -1.170727    12A     -1.010554
      13A     -1.006666    14A     -0.951207    15A     -0.934594
      16A     -0.918888    17A     -0.815490    18A     -0.813919
      19A     -0.764111    20A     -0.757580    21A     -0.698851
      22A     -0.696084    23A     -0.688496    24A     -0.686065
      25A     -0.647697    26A     -0.611122    27A     -0.595497
      28A     -0.594878

  @DF-RHF Final Energy:  -289.70982950005441

   => Energetics <=

    Nuclear Repulsion Energy =            346.7967470099053457
    One-Electron Energy =               -1067.9592120659076500
    Two-Electron Energy =                 431.4526355559478361
    Total Energy =                       -289.7098295000544113
  Basis Set: (AUG-CC-PVTZ AUX)
    Blend: AUG-CC-PVTZ-RI
    Molecular point group: c1

    Geometry (in Angstrom), charge = 1, multiplicity = 1:

       Center              X                  Y                   Z               Mass
    ------------   -----------------  -----------------  -----------------  -----------------
         N           -1.809530638537    -0.000009880675    -0.796834083147    14.003074004430
         C           -1.078518638537    -0.000009880675     0.546166916853    12.000000000000
         C           -0.241787638537    -1.271576880675     0.636379916853    12.000000000000
         C           -0.241787638537     1.271557119325     0.636380916853    12.000000000000
         C            0.947288361463    -1.263360880675    -0.329786083147    12.000000000000
         C            0.947287361463     1.263341119325    -0.329787083147    12.000000000000
         C            1.791096361463    -0.000009880675    -0.157191083147    12.000000000000
         H           -1.879946638537    -0.000009880675     1.291678916853     1.007825032230
         H           -0.872654638537    -2.159149880675     0.495768916853     1.007825032230
         H            0.122248361463    -1.324491380675     1.647622816853     1.007825032230
         H            0.129015361463     1.325454119325     1.666418916853     1.007825032230
         H           -0.872654638537     2.159130119325     0.495769916853     1.007825032230
         H            0.609338361463    -1.345893880675    -1.374347083147     1.007825032230
         H            1.551926361463    -2.158025880675    -0.153104083147     1.007825032230
         H            1.551925361463     2.158006119325    -0.153105083147     1.007825032230
         H            0.609336361463     1.345873119325    -1.374347083147     1.007825032230
         H            2.237961361463    -0.000008880675     0.844887916853     1.007825032230
         H            2.621006361463    -0.000009880675    -0.870524083147     1.007825032230
         H           -1.137771638537    -0.000021880675    -1.574659083147     1.007825032230
         H           -2.406270638537     0.831376119325    -0.901584083147     1.007825032230
         H           -2.406288638537    -0.831384880675    -0.901574083147     1.007825032230

  Basis Set: AUG-CC-PVTZ
    Blend: AUG-CC-PVTZ
  Basis Set: (AUG-CC-PVTZ AUX)
    Blend: AUG-CC-PVTZ-JKFIT
	 Reference Energy          =    -289.7098295000544113 [Eh]
	 Singles Energy            =      -0.0000000000000000 [Eh]
	 Same-Spin Energy          =      -0.3076137277321142 [Eh]
	 Opposite-Spin Energy      =      -1.0937554910799210 [Eh]
	 Correlation Energy        =      -1.4013692188120352 [Eh]
	 Total Energy              =    -291.1111987188664330 [Eh]

	 ================> DF-SCS-MP2 Energies <==================
	-----------------------------------------------------------
	 SCS Same-Spin Scale       =       0.3333333333333333 [-]
	 SCS Opposite-Spin Scale   =       1.2000000000000000 [-]
	 SCS Same-Spin Energy      =      -0.1025379092440381 [Eh]
	 SCS Opposite-Spin Energy  =      -1.3125065892959051 [Eh]
	 SCS Correlation Energy    =      -1.4150444985399433 [Eh]
	 SCS Total Energy          =    -291.1248739985943530 [Eh]
	-----------------------------------------------------------

  Dipole Moment: [D]
     X:    -5.5999      Y:     0.0010      Z:    -2.0474     Total:     5.9625

*** Psi4 exiting successfully. Buy a developer a beer!
