                               Psi4 1.4a3.dev225

  ==> Input File <==

--------------------------------------------------------------------------
#psi4
#
memory 32 gb

molecule  {
1 1
  N       -1.8084550     0.0000000    -0.7896910
  C       -1.0774430     0.0000000     0.5533100
  C       -0.2407120    -1.2715670     0.6435230
  C       -0.2407120     1.2715670     0.6435240
  C        0.9483640    -1.2633510    -0.3226430
  C        0.9483630     1.2633510    -0.3226440
  C        1.7921720     0.0000000    -0.1500480
  H       -1.8788710     0.0000000     1.2988220
  H       -0.8715790    -2.1591400     0.5029120
  H        0.1300900    -1.3254650     1.6735610
  H        0.1368570     1.3264475     1.6923570
  H       -0.8715790     2.1591400     0.5029130
  H        0.6104140    -1.3458840    -1.3672040
  H        1.5530020    -2.1580160    -0.1459610
  H        1.5530010     2.1580160    -0.1459620
  H        0.6104120     1.3458830    -1.3672040
  H        2.2390370     0.0000010     0.8520310
  H        2.6220820     0.0000000    -0.8633810
  H       -1.1366960    -0.0000120    -1.5675160
  H       -2.4051950     0.8313860    -0.8944410
  H       -2.4052130    -0.8313750    -0.8944310
units angstrom
no_reorient  #important for SAPT in psi4, default
symmetry c1  #important for SAPT in psi4, default
}

set PROPERTIES_ORIGIN ["COM"]
properties('MP2/aug-cc-pvtz', properties = ['dipole'])
--------------------------------------------------------------------------

    Molecular point group: c1
  Charge       = 1
  Multiplicity = 1
  Basis Set: AUG-CC-PVTZ
    Blend: AUG-CC-PVTZ
  Basis Set: (AUG-CC-PVTZ AUX)
    Blend: AUG-CC-PVTZ-JKFIT

    Orbital Energies [Eh]
    ---------------------

    Doubly Occupied:

       1A    -15.874634     2A    -11.466880     3A    -11.392724
       4A    -11.390459     5A    -11.371806     6A    -11.371661
       7A    -11.357874     8A     -1.492520     9A     -1.277325
      10A     -1.172176    11A     -1.170566    12A     -1.009841
      13A     -1.005922    14A     -0.950765    15A     -0.934000
      16A     -0.917874    17A     -0.815542    18A     -0.813929
      19A     -0.764022    20A     -0.755178    21A     -0.698627
      22A     -0.696234    23A     -0.686245    24A     -0.685686
      25A     -0.645309    26A     -0.610885    27A     -0.595584
      28A     -0.594998

  @DF-RHF Final Energy:  -289.70919662759138

   => Energetics <=

    Nuclear Repulsion Energy =            346.6017047466710324
    One-Electron Energy =               -1067.5832698660087772
    Two-Electron Energy =                 431.2723684917464197
    Total Energy =                       -289.7091966275913819
  Basis Set: (AUG-CC-PVTZ AUX)
    Blend: AUG-CC-PVTZ-RI
    Molecular point group: c1

    Geometry (in Angstrom), charge = 1, multiplicity = 1:

       Center              X                  Y                   Z               Mass
    ------------   -----------------  -----------------  -----------------  -----------------
         N           -1.809666863998    -0.000009880675    -0.797212499395    14.003074004430
         C           -1.078654863998    -0.000009880675     0.545788500605    12.000000000000
         C           -0.241923863998    -1.271576880675     0.636001500605    12.000000000000
         C           -0.241923863998     1.271557119325     0.636002500605    12.000000000000
         C            0.947152136002    -1.263360880675    -0.330164499395    12.000000000000
         C            0.947151136002     1.263341119325    -0.330165499395    12.000000000000
         C            1.790960136002    -0.000009880675    -0.157569499395    12.000000000000
         H           -1.880082863998    -0.000009880675     1.291300500605     1.007825032230
         H           -0.872790863998    -2.159149880675     0.495390500605     1.007825032230
         H            0.128878136002    -1.325474880675     1.666039500605     1.007825032230
         H            0.135645136002     1.326437619325     1.684835500605     1.007825032230
         H           -0.872790863998     2.159130119325     0.495391500605     1.007825032230
         H            0.609202136002    -1.345893880675    -1.374725499395     1.007825032230
         H            1.551790136002    -2.158025880675    -0.153482499395     1.007825032230
         H            1.551789136002     2.158006119325    -0.153483499395     1.007825032230
         H            0.609200136002     1.345873119325    -1.374725499395     1.007825032230
         H            2.237825136002    -0.000008880675     0.844509500605     1.007825032230
         H            2.620870136002    -0.000009880675    -0.870902499395     1.007825032230
         H           -1.137907863998    -0.000021880675    -1.575037499395     1.007825032230
         H           -2.406406863998     0.831376119325    -0.901962499395     1.007825032230
         H           -2.406424863998    -0.831384880675    -0.901952499395     1.007825032230

  Basis Set: AUG-CC-PVTZ
    Blend: AUG-CC-PVTZ
  Basis Set: (AUG-CC-PVTZ AUX)
    Blend: AUG-CC-PVTZ-JKFIT
	 Reference Energy          =    -289.7091966275913819 [Eh]
	 Singles Energy            =      -0.0000000000000000 [Eh]
	 Same-Spin Energy          =      -0.3076592093916254 [Eh]
	 Opposite-Spin Energy      =      -1.0940511327320224 [Eh]
	 Correlation Energy        =      -1.4017103421236479 [Eh]
	 Total Energy              =    -291.1109069697150176 [Eh]

	 ================> DF-SCS-MP2 Energies <==================
	-----------------------------------------------------------
	 SCS Same-Spin Scale       =       0.3333333333333333 [-]
	 SCS Opposite-Spin Scale   =       1.2000000000000000 [-]
	 SCS Same-Spin Energy      =      -0.1025530697972085 [Eh]
	 SCS Opposite-Spin Energy  =      -1.3128613592784268 [Eh]
	 SCS Correlation Energy    =      -1.4154144290756354 [Eh]
	 SCS Total Energy          =    -291.1246110566669927 [Eh]
	-----------------------------------------------------------

  Dipole Moment: [D]
     X:    -5.5987      Y:     0.0009      Z:    -2.0551     Total:     5.9640

*** Psi4 exiting successfully. Buy a developer a beer!
