                               Psi4 1.4a3.dev225

  ==> Input File <==

--------------------------------------------------------------------------
#psi4
#
memory 32 gb

molecule  {
1 1
  N       -1.8084550     0.0000000    -0.7896910
  C       -1.0774430     0.0000000     0.5533100
  C       -0.2407120    -1.2715670     0.6435230
  C       -0.2407120     1.2715670     0.6435240
  C        0.9483640    -1.2633510    -0.3226430
  C        0.9483630     1.2633510    -0.3226440
  C        1.8197654    -0.0413128    -0.1444039
  H       -1.8788710     0.0000000     1.2988220
  H       -0.8715790    -2.1591400     0.5029120
  H        0.1300900    -1.3254650     1.6735610
  H        0.1300910     1.3254640     1.6735620
  H       -0.8715790     2.1591400     0.5029130
  H        0.6104140    -1.3458840    -1.3672040
  H        1.5530020    -2.1580160    -0.1459610
  H        1.5530010     2.1580160    -0.1459620
  H        0.6104120     1.3458830    -1.3672040
  H        2.2390370     0.0000010     0.8520310
  H        2.6220820     0.0000000    -0.8633810
  H       -1.1366960    -0.0000120    -1.5675160
  H       -2.4051950     0.8313860    -0.8944410
  H       -2.4052130    -0.8313750    -0.8944310
units angstrom
no_reorient  #important for SAPT in psi4, default
symmetry c1  #important for SAPT in psi4, default
}

set PROPERTIES_ORIGIN ["COM"]
properties('MP2/aug-cc-pvtz', properties = ['dipole'])
--------------------------------------------------------------------------

    Molecular point group: c1
  Charge       = 1
  Multiplicity = 1
  Basis Set: AUG-CC-PVTZ
    Blend: AUG-CC-PVTZ
  Basis Set: (AUG-CC-PVTZ AUX)
    Blend: AUG-CC-PVTZ-JKFIT

    Orbital Energies [Eh]
    ---------------------

    Doubly Occupied:

       1A    -15.874438     2A    -11.466594     3A    -11.391065
       4A    -11.390184     5A    -11.372585     6A    -11.371063
       7A    -11.357215     8A     -1.492296     9A     -1.275882
      10A     -1.174000    11A     -1.166833    12A     -1.012054
      13A     -1.003863    14A     -0.950801    15A     -0.934067
      16A     -0.919826    17A     -0.815713    18A     -0.813106
      19A     -0.765036    20A     -0.755569    21A     -0.699864
      22A     -0.694584    23A     -0.687366    24A     -0.684865
      25A     -0.646175    26A     -0.616358    27A     -0.601483
      28A     -0.584009

  @DF-RHF Final Energy:  -289.70793983699878

   => Energetics <=

    Nuclear Repulsion Energy =            346.2375789204782564
    One-Electron Energy =               -1066.8572521151268120
    Two-Electron Energy =                 430.9117333576498368
    Total Energy =                       -289.7079398369987757
  Basis Set: (AUG-CC-PVTZ AUX)
    Blend: AUG-CC-PVTZ-RI
    Molecular point group: c1

    Geometry (in Angstrom), charge = 1, multiplicity = 1:

       Center              X                  Y                   Z               Mass
    ------------   -----------------  -----------------  -----------------  -----------------
         N           -1.812906234233     0.004951979017    -0.797699821836    14.003074004430
         C           -1.081894234233     0.004951979017     0.545301178164    12.000000000000
         C           -0.245163234233    -1.266615020983     0.635514178164    12.000000000000
         C           -0.245163234233     1.276518979017     0.635515178164    12.000000000000
         C            0.943912765767    -1.258399020983    -0.330651821836    12.000000000000
         C            0.943911765767     1.268302979017    -0.330652821836    12.000000000000
         C            1.815314165767    -0.036360820983    -0.152412721836    12.000000000000
         H           -1.883322234233     0.004951979017     1.290813178164     1.007825032230
         H           -0.876030234233    -2.154188020983     0.494903178164     1.007825032230
         H            0.125638765767    -1.320513020983     1.665552178164     1.007825032230
         H            0.125639765767     1.330415979017     1.665553178164     1.007825032230
         H           -0.876030234233     2.164091979017     0.494904178164     1.007825032230
         H            0.605962765767    -1.340932020983    -1.375212821836     1.007825032230
         H            1.548550765767    -2.153064020983    -0.153969821836     1.007825032230
         H            1.548549765767     2.162967979017    -0.153970821836     1.007825032230
         H            0.605960765767     1.350834979017    -1.375212821836     1.007825032230
         H            2.234585765767     0.004952979017     0.844022178164     1.007825032230
         H            2.617630765767     0.004951979017    -0.871389821836     1.007825032230
         H           -1.141147234233     0.004939979017    -1.575524821836     1.007825032230
         H           -2.409646234233     0.836337979017    -0.902449821836     1.007825032230
         H           -2.409664234233    -0.826423020983    -0.902439821836     1.007825032230

  Basis Set: AUG-CC-PVTZ
    Blend: AUG-CC-PVTZ
  Basis Set: (AUG-CC-PVTZ AUX)
    Blend: AUG-CC-PVTZ-JKFIT
	 Reference Energy          =    -289.7079398369987757 [Eh]
	 Singles Energy            =      -0.0000000000000000 [Eh]
	 Same-Spin Energy          =      -0.3074846895693665 [Eh]
	 Opposite-Spin Energy      =      -1.0938462988503888 [Eh]
	 Correlation Energy        =      -1.4013309884197553 [Eh]
	 Total Energy              =    -291.1092708254185482 [Eh]

	 ================> DF-SCS-MP2 Energies <==================
	-----------------------------------------------------------
	 SCS Same-Spin Scale       =       0.3333333333333333 [-]
	 SCS Opposite-Spin Scale   =       1.2000000000000000 [-]
	 SCS Same-Spin Energy      =      -0.1024948965231222 [Eh]
	 SCS Opposite-Spin Energy  =      -1.3126155586204664 [Eh]
	 SCS Correlation Energy    =      -1.4151104551435887 [Eh]
	 SCS Total Energy          =    -291.1230502921423522 [Eh]
	-----------------------------------------------------------

  Dipole Moment: [D]
     X:    -5.6093      Y:     0.0049      Z:    -2.0498     Total:     5.9721

*** Psi4 exiting successfully. Buy a developer a beer!
