                               Psi4 1.4a3.dev225

  ==> Input File <==

--------------------------------------------------------------------------
#psi4
#
memory 32 gb

molecule  {
1 1
  N       -1.8084550     0.0000000    -0.7896910
  C       -1.0774430     0.0000000     0.5533100
  C       -0.2407120    -1.2715670     0.6435230
  C       -0.2407120     1.2715670     0.6435240
  C        0.9483640    -1.2633510    -0.3226430
  C        0.9483630     1.2633510    -0.3226440
  C        1.7921720     0.0000000    -0.1500480
  H       -1.8788710     0.0000000     1.2988220
  H       -0.8715790    -2.1591400     0.5029120
  H        0.1300900    -1.3254650     1.6735610
  H        0.1300910     1.3254640     1.6735620
  H       -0.8715790     2.1591400     0.5029130
  H        0.6104140    -1.3458840    -1.3672040
  H        1.5530020    -2.1580160    -0.1459610
  H        1.6635200     2.3215476    -0.1136671
  H        0.6104120     1.3458830    -1.3672040
  H        2.2390370     0.0000010     0.8520310
  H        2.6220820     0.0000000    -0.8633810
  H       -1.1366960    -0.0000120    -1.5675160
  H       -2.4051950     0.8313860    -0.8944410
  H       -2.4052130    -0.8313750    -0.8944310
units angstrom
no_reorient  #important for SAPT in psi4, default
symmetry c1  #important for SAPT in psi4, default
}

set PROPERTIES_ORIGIN ["COM"]
properties('MP2/aug-cc-pvtz', properties = ['dipole'])
--------------------------------------------------------------------------

    Molecular point group: c1
  Charge       = 1
  Multiplicity = 1
  Basis Set: AUG-CC-PVTZ
    Blend: AUG-CC-PVTZ
  Basis Set: (AUG-CC-PVTZ AUX)
    Blend: AUG-CC-PVTZ-JKFIT

    Orbital Energies [Eh]
    ---------------------

    Doubly Occupied:

       1A    -15.875520     2A    -11.468072     3A    -11.392702
       4A    -11.391830     5A    -11.391533     6A    -11.373198
       7A    -11.359454     8A     -1.493479     9A     -1.277820
      10A     -1.172874    11A     -1.167652    12A     -1.010957
      13A     -1.000167    14A     -0.951848    15A     -0.934885
      16A     -0.914978    17A     -0.816526    18A     -0.812023
      19A     -0.760019    20A     -0.752400    21A     -0.698338
      22A     -0.694066    23A     -0.688325    24A     -0.676985
      25A     -0.645792    26A     -0.611133    27A     -0.596739
      28A     -0.579893

  @DF-RHF Final Energy:  -289.68926402471430

   => Energetics <=

    Nuclear Repulsion Energy =            345.7893453208384926
    One-Electron Energy =               -1065.9388017953240251
    Two-Electron Energy =                 430.4601924497712275
    Total Energy =                       -289.6892640247143049
  Basis Set: (AUG-CC-PVTZ AUX)
    Blend: AUG-CC-PVTZ-RI
    Molecular point group: c1

    Geometry (in Angstrom), charge = 1, multiplicity = 1:

       Center              X                  Y                   Z               Mass
    ------------   -----------------  -----------------  -----------------  -----------------
         N           -1.810711336372    -0.001646238177    -0.797348401707    14.003074004430
         C           -1.079699336372    -0.001646238177     0.545652598293    12.000000000000
         C           -0.242968336372    -1.273213238177     0.635865598293    12.000000000000
         C           -0.242968336372     1.269920761823     0.635866598293    12.000000000000
         C            0.946107663628    -1.264997238177    -0.330300401707    12.000000000000
         C            0.946106663628     1.261704761823    -0.330301401707    12.000000000000
         C            1.789915663628    -0.001646238177    -0.157705401707    12.000000000000
         H           -1.881127336372    -0.001646238177     1.291164598293     1.007825032230
         H           -0.873835336372    -2.160786238177     0.495254598293     1.007825032230
         H            0.127833663628    -1.327111238177     1.665903598293     1.007825032230
         H            0.127834663628     1.323817761823     1.665904598293     1.007825032230
         H           -0.873835336372     2.157493761823     0.495255598293     1.007825032230
         H            0.608157663628    -1.347530238177    -1.374861401707     1.007825032230
         H            1.550745663628    -2.159662238177    -0.153618401707     1.007825032230
         H            1.661263663628     2.319901361823    -0.121324501707     1.007825032230
         H            0.608155663628     1.344236761823    -1.374861401707     1.007825032230
         H            2.236780663628    -0.001645238177     0.844373598293     1.007825032230
         H            2.619825663628    -0.001646238177    -0.871038401707     1.007825032230
         H           -1.138952336372    -0.001658238177    -1.575173401707     1.007825032230
         H           -2.407451336372     0.829739761823    -0.902098401707     1.007825032230
         H           -2.407469336372    -0.833021238177    -0.902088401707     1.007825032230

  Basis Set: AUG-CC-PVTZ
    Blend: AUG-CC-PVTZ
  Basis Set: (AUG-CC-PVTZ AUX)
    Blend: AUG-CC-PVTZ-JKFIT
	 Reference Energy          =    -289.6892640247143049 [Eh]
	 Singles Energy            =      -0.0000000000000000 [Eh]
	 Same-Spin Energy          =      -0.3078350087311029 [Eh]
	 Opposite-Spin Energy      =      -1.0957462766567307 [Eh]
	 Correlation Energy        =      -1.4035812853878336 [Eh]
	 Total Energy              =    -291.0928453101021205 [Eh]

	 ================> DF-SCS-MP2 Energies <==================
	-----------------------------------------------------------
	 SCS Same-Spin Scale       =       0.3333333333333333 [-]
	 SCS Opposite-Spin Scale   =       1.2000000000000000 [-]
	 SCS Same-Spin Energy      =      -0.1026116695770343 [Eh]
	 SCS Opposite-Spin Energy  =      -1.3148955319880768 [Eh]
	 SCS Correlation Energy    =      -1.4175072015651111 [Eh]
	 SCS Total Energy          =    -291.1067712262794203 [Eh]
	-----------------------------------------------------------

  Dipole Moment: [D]
     X:    -5.6389      Y:    -0.0903      Z:    -2.0418     Total:     5.9979

*** Psi4 exiting successfully. Buy a developer a beer!
