                               Psi4 1.4a3.dev225

  ==> Input File <==

--------------------------------------------------------------------------
#psi4
#
memory 32 gb

molecule  {
1 1
  N       -1.8084550     0.0000000    -0.7896910
  C       -1.0870046     0.0000000     0.5357437
  C       -0.2407120    -1.2715670     0.6435230
  C       -0.2407120     1.2715670     0.6435240
  C        0.9483640    -1.2633510    -0.3226430
  C        0.9483630     1.2633510    -0.3226440
  C        1.7921720     0.0000000    -0.1500480
  H       -1.8788710     0.0000000     1.2988220
  H       -0.8715790    -2.1591400     0.5029120
  H        0.1300900    -1.3254650     1.6735610
  H        0.1300910     1.3254640     1.6735620
  H       -0.8715790     2.1591400     0.5029130
  H        0.6104140    -1.3458840    -1.3672040
  H        1.5530020    -2.1580160    -0.1459610
  H        1.5530010     2.1580160    -0.1459620
  H        0.6104120     1.3458830    -1.3672040
  H        2.2390370     0.0000010     0.8520310
  H        2.6220820     0.0000000    -0.8633810
  H       -1.1366960    -0.0000120    -1.5675160
  H       -2.4051950     0.8313860    -0.8944410
  H       -2.4052130    -0.8313750    -0.8944310
units angstrom
no_reorient  #important for SAPT in psi4, default
symmetry c1  #important for SAPT in psi4, default
}

set PROPERTIES_ORIGIN ["COM"]
properties('MP2/aug-cc-pvtz', properties = ['dipole'])
--------------------------------------------------------------------------

    Molecular point group: c1
  Charge       = 1
  Multiplicity = 1
  Basis Set: AUG-CC-PVTZ
    Blend: AUG-CC-PVTZ
  Basis Set: (AUG-CC-PVTZ AUX)
    Blend: AUG-CC-PVTZ-JKFIT

    Orbital Energies [Eh]
    ---------------------

    Doubly Occupied:

       1A    -15.877518     2A    -11.465383     3A    -11.390377
       4A    -11.390365     5A    -11.371291     6A    -11.371288
       7A    -11.357561     8A     -1.498077     9A     -1.276112
      10A     -1.171791    11A     -1.169612    12A     -1.011565
      13A     -1.005792    14A     -0.954619    15A     -0.936939
      16A     -0.919385    17A     -0.817485    18A     -0.812047
      19A     -0.763763    20A     -0.756255    21A     -0.696471
      22A     -0.693551    23A     -0.688694    24A     -0.684986
      25A     -0.646464    26A     -0.610845    27A     -0.594127
      28A     -0.594054

  @DF-RHF Final Energy:  -289.70946494084473

   => Energetics <=

    Nuclear Repulsion Energy =            346.7668299127638534
    One-Electron Energy =               -1067.8997588994620855
    Two-Electron Energy =                 431.4234640458535637
    Total Energy =                       -289.7094649408447253
  Basis Set: (AUG-CC-PVTZ AUX)
    Blend: AUG-CC-PVTZ-RI
    Molecular point group: c1

    Geometry (in Angstrom), charge = 1, multiplicity = 1:

       Center              X                  Y                   Z               Mass
    ------------   -----------------  -----------------  -----------------  -----------------
         N           -1.808452650058     0.000000020134    -0.794917707177    14.003074004430
         C           -1.087002250058     0.000000020134     0.530516992823    12.000000000000
         C           -0.240709650058    -1.271566979866     0.638296292823    12.000000000000
         C           -0.240709650058     1.271567020134     0.638297292823    12.000000000000
         C            0.948366349942    -1.263350979866    -0.327869707177    12.000000000000
         C            0.948365349942     1.263351020134    -0.327870707177    12.000000000000
         C            1.792174349942     0.000000020134    -0.155274707177    12.000000000000
         H           -1.878868650058     0.000000020134     1.293595292823     1.007825032230
         H           -0.871576650058    -2.159139979866     0.497685292823     1.007825032230
         H            0.130092349942    -1.325464979866     1.668334292823     1.007825032230
         H            0.130093349942     1.325464020134     1.668335292823     1.007825032230
         H           -0.871576650058     2.159140020134     0.497686292823     1.007825032230
         H            0.610416349942    -1.345883979866    -1.372430707177     1.007825032230
         H            1.553004349942    -2.158015979866    -0.151187707177     1.007825032230
         H            1.553003349942     2.158016020134    -0.151188707177     1.007825032230
         H            0.610414349942     1.345883020134    -1.372430707177     1.007825032230
         H            2.239039349942     0.000001020134     0.846804292823     1.007825032230
         H            2.622084349942     0.000000020134    -0.868607707177     1.007825032230
         H           -1.136693650058    -0.000011979866    -1.572742707177     1.007825032230
         H           -2.405192650058     0.831386020134    -0.899667707177     1.007825032230
         H           -2.405210650058    -0.831374979866    -0.899657707177     1.007825032230

  Basis Set: AUG-CC-PVTZ
    Blend: AUG-CC-PVTZ
  Basis Set: (AUG-CC-PVTZ AUX)
    Blend: AUG-CC-PVTZ-JKFIT
	 Reference Energy          =    -289.7094649408447253 [Eh]
	 Singles Energy            =      -0.0000000000000000 [Eh]
	 Same-Spin Energy          =      -0.3076862648429566 [Eh]
	 Opposite-Spin Energy      =      -1.0938973630223703 [Eh]
	 Correlation Energy        =      -1.4015836278653269 [Eh]
	 Total Energy              =    -291.1110485687100322 [Eh]

	 ================> DF-SCS-MP2 Energies <==================
	-----------------------------------------------------------
	 SCS Same-Spin Scale       =       0.3333333333333333 [-]
	 SCS Opposite-Spin Scale   =       1.2000000000000000 [-]
	 SCS Same-Spin Energy      =      -0.1025620882809855 [Eh]
	 SCS Opposite-Spin Energy  =      -1.3126768356268443 [Eh]
	 SCS Correlation Energy    =      -1.4152389239078298 [Eh]
	 SCS Total Energy          =    -291.1247038647525756 [Eh]
	-----------------------------------------------------------

  Dipole Moment: [D]
     X:    -5.6344      Y:    -0.0000      Z:    -2.0901     Total:     6.0096

*** Psi4 exiting successfully. Buy a developer a beer!
