                               Psi4 1.4a3.dev225

  ==> Input File <==

--------------------------------------------------------------------------
#psi4
#
memory 32 gb

molecule  {
1 1
  N       -1.8084550     0.0000000    -0.7896910
  C       -1.0774430     0.0000000     0.5533100
  C       -0.2955853    -1.1881769     0.6376068
  C       -0.2407120     1.2715670     0.6435240
  C        0.9483640    -1.2633510    -0.3226430
  C        0.9483630     1.2633510    -0.3226440
  C        1.7921720     0.0000000    -0.1500480
  H       -1.8788710     0.0000000     1.2988220
  H       -0.8715790    -2.1591400     0.5029120
  H        0.1300900    -1.3254650     1.6735610
  H        0.1300910     1.3254640     1.6735620
  H       -0.8715790     2.1591400     0.5029130
  H        0.6104140    -1.3458840    -1.3672040
  H        1.5530020    -2.1580160    -0.1459610
  H        1.5530010     2.1580160    -0.1459620
  H        0.6104120     1.3458830    -1.3672040
  H        2.2390370     0.0000010     0.8520310
  H        2.6220820     0.0000000    -0.8633810
  H       -1.1366960    -0.0000120    -1.5675160
  H       -2.4051950     0.8313860    -0.8944410
  H       -2.4052130    -0.8313750    -0.8944310
units angstrom
no_reorient  #important for SAPT in psi4, default
symmetry c1  #important for SAPT in psi4, default
}

set PROPERTIES_ORIGIN ["COM"]
properties('MP2/aug-cc-pvtz', properties = ['dipole'])
--------------------------------------------------------------------------

    Molecular point group: c1
  Charge       = 1
  Multiplicity = 1
  Basis Set: AUG-CC-PVTZ
    Blend: AUG-CC-PVTZ
  Basis Set: (AUG-CC-PVTZ AUX)
    Blend: AUG-CC-PVTZ-JKFIT

    Orbital Energies [Eh]
    ---------------------

    Doubly Occupied:

       1A    -15.874686     2A    -11.464607     3A    -11.391361
       4A    -11.391150     5A    -11.374590     6A    -11.372083
       7A    -11.357060     8A     -1.495308     9A     -1.285300
      10A     -1.181262    11A     -1.167156    12A     -1.011603
      13A     -1.005270    14A     -0.951998    15A     -0.933820
      16A     -0.918862    17A     -0.819226    18A     -0.818940
      19A     -0.761650    20A     -0.754291    21A     -0.714388
      22A     -0.698407    23A     -0.681894    24A     -0.680090
      25A     -0.641904    26A     -0.609589    27A     -0.601571
      28A     -0.583859

  @DF-RHF Final Energy:  -289.69806577984900

   => Energetics <=

    Nuclear Repulsion Energy =            347.8666821200255299
    One-Electron Energy =               -1070.0456505023473710
    Two-Electron Energy =                 432.4809026024728382
    Total Energy =                       -289.6980657798490029
  Basis Set: (AUG-CC-PVTZ AUX)
    Blend: AUG-CC-PVTZ-RI
    Molecular point group: c1

    Geometry (in Angstrom), charge = 1, multiplicity = 1:

       Center              X                  Y                   Z               Mass
    ------------   -----------------  -----------------  -----------------  -----------------
         N           -1.803021363015    -0.009995534427    -0.796314146445    14.003074004430
         C           -1.072009363015    -0.009995534427     0.546686853555    12.000000000000
         C           -0.290151663015    -1.198172434427     0.630983653555    12.000000000000
         C           -0.235278363015     1.261571465573     0.636900853555    12.000000000000
         C            0.953797636985    -1.273346534427    -0.329266146445    12.000000000000
         C            0.953796636985     1.253355465573    -0.329267146445    12.000000000000
         C            1.797605636985    -0.009995534427    -0.156671146445    12.000000000000
         H           -1.873437363015    -0.009995534427     1.292198853555     1.007825032230
         H           -0.866145363015    -2.169135534427     0.496288853555     1.007825032230
         H            0.135523636985    -1.335460534427     1.666937853555     1.007825032230
         H            0.135524636985     1.315468465573     1.666938853555     1.007825032230
         H           -0.866145363015     2.149144465573     0.496289853555     1.007825032230
         H            0.615847636985    -1.355879534427    -1.373827146445     1.007825032230
         H            1.558435636985    -2.168011534427    -0.152584146445     1.007825032230
         H            1.558434636985     2.148020465573    -0.152585146445     1.007825032230
         H            0.615845636985     1.335887465573    -1.373827146445     1.007825032230
         H            2.244470636985    -0.009994534427     0.845407853555     1.007825032230
         H            2.627515636985    -0.009995534427    -0.870004146445     1.007825032230
         H           -1.131262363015    -0.010007534427    -1.574139146445     1.007825032230
         H           -2.399761363015     0.821390465573    -0.901064146445     1.007825032230
         H           -2.399779363015    -0.841370534427    -0.901054146445     1.007825032230

  Basis Set: AUG-CC-PVTZ
    Blend: AUG-CC-PVTZ
  Basis Set: (AUG-CC-PVTZ AUX)
    Blend: AUG-CC-PVTZ-JKFIT
	 Reference Energy          =    -289.6980657798490029 [Eh]
	 Singles Energy            =      -0.0000000000000000 [Eh]
	 Same-Spin Energy          =      -0.3086499373719556 [Eh]
	 Opposite-Spin Energy      =      -1.0952489726219343 [Eh]
	 Correlation Energy        =      -1.4038989099938899 [Eh]
	 Total Energy              =    -291.1019646898428732 [Eh]

	 ================> DF-SCS-MP2 Energies <==================
	-----------------------------------------------------------
	 SCS Same-Spin Scale       =       0.3333333333333333 [-]
	 SCS Opposite-Spin Scale   =       1.2000000000000000 [-]
	 SCS Same-Spin Energy      =      -0.1028833124573185 [Eh]
	 SCS Opposite-Spin Energy  =      -1.3142987671463211 [Eh]
	 SCS Correlation Energy    =      -1.4171820796036396 [Eh]
	 SCS Total Energy          =    -291.1152478594526656 [Eh]
	-----------------------------------------------------------

  Dipole Moment: [D]
     X:    -5.5479      Y:    -0.0350      Z:    -2.0333     Total:     5.9089

*** Psi4 exiting successfully. Buy a developer a beer!
