                               Psi4 1.4a3.dev225

  ==> Input File <==

--------------------------------------------------------------------------
#psi4
#
memory 32 gb

molecule  {
1 1
  N       -1.9003573     0.0000000    -0.7354267
  C       -1.0774430     0.0000000     0.5533100
  C       -0.2407120    -1.2715670     0.6435230
  C       -0.2407120     1.2715670     0.6435240
  C        0.9483640    -1.2633510    -0.3226430
  C        0.9483630     1.2633510    -0.3226440
  C        1.7921720     0.0000000    -0.1500480
  H       -1.8788710     0.0000000     1.2988220
  H       -0.8715790    -2.1591400     0.5029120
  H        0.1300900    -1.3254650     1.6735610
  H        0.1300910     1.3254640     1.6735620
  H       -0.8715790     2.1591400     0.5029130
  H        0.6104140    -1.3458840    -1.3672040
  H        1.5530020    -2.1580160    -0.1459610
  H        1.5530010     2.1580160    -0.1459620
  H        0.6104120     1.3458830    -1.3672040
  H        2.2390370     0.0000010     0.8520310
  H        2.6220820     0.0000000    -0.8633810
  H       -1.1366960    -0.0000120    -1.5675160
  H       -2.4051950     0.8313860    -0.8944410
  H       -2.4052130    -0.8313750    -0.8944310
units angstrom
no_reorient  #important for SAPT in psi4, default
symmetry c1  #important for SAPT in psi4, default
}

set PROPERTIES_ORIGIN ["COM"]
properties('MP2/aug-cc-pvtz', properties = ['dipole'])
--------------------------------------------------------------------------

    Molecular point group: c1
  Charge       = 1
  Multiplicity = 1
  Basis Set: AUG-CC-PVTZ
    Blend: AUG-CC-PVTZ
  Basis Set: (AUG-CC-PVTZ AUX)
    Blend: AUG-CC-PVTZ-JKFIT

    Orbital Energies [Eh]
    ---------------------

    Doubly Occupied:

       1A    -15.873973     2A    -11.466720     3A    -11.391830
       4A    -11.391818     5A    -11.372244     6A    -11.372240
       7A    -11.358369     8A     -1.492077     9A     -1.278917
      10A     -1.173286    11A     -1.170955    12A     -1.011121
      13A     -1.009362    14A     -0.960661    15A     -0.936559
      16A     -0.905967    17A     -0.818996    18A     -0.799191
      19A     -0.764089    20A     -0.758936    21A     -0.697183
      22A     -0.696788    23A     -0.689510    24A     -0.686821
      25A     -0.647317    26A     -0.611099    27A     -0.596165
      28A     -0.595128

  @DF-RHF Final Energy:  -289.69624350532592

   => Energetics <=

    Nuclear Repulsion Energy =            345.8916079234577410
    One-Electron Energy =               -1066.1210633439823141
    Two-Electron Energy =                 430.5332119151986490
    Total Energy =                       -289.6962435053259242
  Basis Set: (AUG-CC-PVTZ AUX)
    Blend: AUG-CC-PVTZ-RI
    Molecular point group: c1

    Geometry (in Angstrom), charge = 1, multiplicity = 1:

       Center              X                  Y                   Z               Mass
    ------------   -----------------  -----------------  -----------------  -----------------
         N           -1.888646381688     0.000000020134    -0.750349113528    14.003074004430
         C           -1.065732081688     0.000000020134     0.538387586472    12.000000000000
         C           -0.229001081688    -1.271566979866     0.628600586472    12.000000000000
         C           -0.229001081688     1.271567020134     0.628601586472    12.000000000000
         C            0.960074918312    -1.263350979866    -0.337565413528    12.000000000000
         C            0.960073918312     1.263351020134    -0.337566413528    12.000000000000
         C            1.803882918312     0.000000020134    -0.164970413528    12.000000000000
         H           -1.867160081688     0.000000020134     1.283899586472     1.007825032230
         H           -0.859868081688    -2.159139979866     0.487989586472     1.007825032230
         H            0.141800918312    -1.325464979866     1.658638586472     1.007825032230
         H            0.141801918312     1.325464020134     1.658639586472     1.007825032230
         H           -0.859868081688     2.159140020134     0.487990586472     1.007825032230
         H            0.622124918312    -1.345883979866    -1.382126413528     1.007825032230
         H            1.564712918312    -2.158015979866    -0.160883413528     1.007825032230
         H            1.564711918312     2.158016020134    -0.160884413528     1.007825032230
         H            0.622122918312     1.345883020134    -1.382126413528     1.007825032230
         H            2.250747918312     0.000001020134     0.837108586472     1.007825032230
         H            2.633792918312     0.000000020134    -0.878303413528     1.007825032230
         H           -1.124985081688    -0.000011979866    -1.582438413528     1.007825032230
         H           -2.393484081688     0.831386020134    -0.909363413528     1.007825032230
         H           -2.393502081688    -0.831374979866    -0.909353413528     1.007825032230

  Basis Set: AUG-CC-PVTZ
    Blend: AUG-CC-PVTZ
  Basis Set: (AUG-CC-PVTZ AUX)
    Blend: AUG-CC-PVTZ-JKFIT
	 Reference Energy          =    -289.6962435053259242 [Eh]
	 Singles Energy            =      -0.0000000000000000 [Eh]
	 Same-Spin Energy          =      -0.3079457942158522 [Eh]
	 Opposite-Spin Energy      =      -1.0946485996639574 [Eh]
	 Correlation Energy        =      -1.4025943938798098 [Eh]
	 Total Energy              =    -291.0988378992057619 [Eh]

	 ================> DF-SCS-MP2 Energies <==================
	-----------------------------------------------------------
	 SCS Same-Spin Scale       =       0.3333333333333333 [-]
	 SCS Opposite-Spin Scale   =       1.2000000000000000 [-]
	 SCS Same-Spin Energy      =      -0.1026485980719507 [Eh]
	 SCS Opposite-Spin Energy  =      -1.3135783195967490 [Eh]
	 SCS Correlation Energy    =      -1.4162269176686997 [Eh]
	 SCS Total Energy          =    -291.1124704229946474 [Eh]
	-----------------------------------------------------------

  Dipole Moment: [D]
     X:    -5.4428      Y:    -0.0000      Z:    -2.0951     Total:     5.8321

*** Psi4 exiting successfully. Buy a developer a beer!
