                               Psi4 1.4a3.dev225

  ==> Input File <==

--------------------------------------------------------------------------
#psi4
#
memory 32 gb

molecule  {
1 1
  N       -1.8084550     0.0000000    -0.7896910
  C       -1.0774430     0.0000000     0.5533100
  C       -0.2407120    -1.2715670     0.6435230
  C       -0.2407120     1.2715670     0.6435240
  C        0.9483640    -1.2633510    -0.3226430
  C        0.9483630     1.2633510    -0.3226440
  C        1.7921720     0.0000000    -0.1500480
  H       -2.0253086     0.0000000     1.4350426
  H       -0.8715790    -2.1591400     0.5029120
  H        0.1300900    -1.3254650     1.6735610
  H        0.1300910     1.3254640     1.6735620
  H       -0.8715790     2.1591400     0.5029130
  H        0.6104140    -1.3458840    -1.3672040
  H        1.5530020    -2.1580160    -0.1459610
  H        1.5530010     2.1580160    -0.1459620
  H        0.6104120     1.3458830    -1.3672040
  H        2.2390370     0.0000010     0.8520310
  H        2.6220820     0.0000000    -0.8633810
  H       -1.1366960    -0.0000120    -1.5675160
  H       -2.4051950     0.8313860    -0.8944410
  H       -2.4052130    -0.8313750    -0.8944310
units angstrom
no_reorient  #important for SAPT in psi4, default
symmetry c1  #important for SAPT in psi4, default
}

set PROPERTIES_ORIGIN ["COM"]
properties('MP2/aug-cc-pvtz', properties = ['dipole'])
--------------------------------------------------------------------------

    Molecular point group: c1
  Charge       = 1
  Multiplicity = 1
  Basis Set: AUG-CC-PVTZ
    Blend: AUG-CC-PVTZ
  Basis Set: (AUG-CC-PVTZ AUX)
    Blend: AUG-CC-PVTZ-JKFIT

    Orbital Energies [Eh]
    ---------------------

    Doubly Occupied:

       1A    -15.875832     2A    -11.486700     3A    -11.391770
       4A    -11.391759     5A    -11.372900     6A    -11.372898
       7A    -11.358717     8A     -1.492211     9A     -1.276900
      10A     -1.173730    11A     -1.164951    12A     -1.007041
      13A     -1.000253    14A     -0.950896    15A     -0.934682
      16A     -0.918439    17A     -0.816326    18A     -0.791960
      19A     -0.759808    20A     -0.757273    21A     -0.697557
      22A     -0.688553    23A     -0.686653    24A     -0.683871
      25A     -0.647350    26A     -0.611384    27A     -0.596698
      28A     -0.589769

  @DF-RHF Final Energy:  -289.68881337738947

   => Energetics <=

    Nuclear Repulsion Energy =            345.7210357245642172
    One-Electron Energy =               -1065.8259384870179929
    Two-Electron Energy =                 430.4160893850643106
    Total Energy =                       -289.6888133773894651
  Basis Set: (AUG-CC-PVTZ AUX)
    Blend: AUG-CC-PVTZ-RI
    Molecular point group: c1

    Geometry (in Angstrom), charge = 1, multiplicity = 1:

       Center              X                  Y                   Z               Mass
    ------------   -----------------  -----------------  -----------------  -----------------
         N           -1.808124576759     0.000000020134    -0.798394612637    14.003074004430
         C           -1.077112576759     0.000000020134     0.544606387363    12.000000000000
         C           -0.240381576759    -1.271566979866     0.634819387363    12.000000000000
         C           -0.240381576759     1.271567020134     0.634820387363    12.000000000000
         C            0.948694423241    -1.263350979866    -0.331346612637    12.000000000000
         C            0.948693423241     1.263351020134    -0.331347612637    12.000000000000
         C            1.792502423241     0.000000020134    -0.158751612637    12.000000000000
         H           -2.024978176759     0.000000020134     1.426338987363     1.007825032230
         H           -0.871248576759    -2.159139979866     0.494208387363     1.007825032230
         H            0.130420423241    -1.325464979866     1.664857387363     1.007825032230
         H            0.130421423241     1.325464020134     1.664858387363     1.007825032230
         H           -0.871248576759     2.159140020134     0.494209387363     1.007825032230
         H            0.610744423241    -1.345883979866    -1.375907612637     1.007825032230
         H            1.553332423241    -2.158015979866    -0.154664612637     1.007825032230
         H            1.553331423241     2.158016020134    -0.154665612637     1.007825032230
         H            0.610742423241     1.345883020134    -1.375907612637     1.007825032230
         H            2.239367423241     0.000001020134     0.843327387363     1.007825032230
         H            2.622412423241     0.000000020134    -0.872084612637     1.007825032230
         H           -1.136365576759    -0.000011979866    -1.576219612637     1.007825032230
         H           -2.404864576759     0.831386020134    -0.903144612637     1.007825032230
         H           -2.404882576759    -0.831374979866    -0.903134612637     1.007825032230

  Basis Set: AUG-CC-PVTZ
    Blend: AUG-CC-PVTZ
  Basis Set: (AUG-CC-PVTZ AUX)
    Blend: AUG-CC-PVTZ-JKFIT
	 Reference Energy          =    -289.6888133773894651 [Eh]
	 Singles Energy            =      -0.0000000000000000 [Eh]
	 Same-Spin Energy          =      -0.3080871834989553 [Eh]
	 Opposite-Spin Energy      =      -1.0960551983302165 [Eh]
	 Correlation Energy        =      -1.4041423818291716 [Eh]
	 Total Energy              =    -291.0929557592186256 [Eh]

	 ================> DF-SCS-MP2 Energies <==================
	-----------------------------------------------------------
	 SCS Same-Spin Scale       =       0.3333333333333333 [-]
	 SCS Opposite-Spin Scale   =       1.2000000000000000 [-]
	 SCS Same-Spin Energy      =      -0.1026957278329851 [Eh]
	 SCS Opposite-Spin Energy  =      -1.3152662379962596 [Eh]
	 SCS Correlation Energy    =      -1.4179619658292446 [Eh]
	 SCS Total Energy          =    -291.1067753432187146 [Eh]
	-----------------------------------------------------------

  Dipole Moment: [D]
     X:    -5.5194      Y:    -0.0000      Z:    -2.0815     Total:     5.8989

*** Psi4 exiting successfully. Buy a developer a beer!
