                               Psi4 1.4a3.dev225

  ==> Input File <==

--------------------------------------------------------------------------
#psi4
#
memory 32 gb

molecule  {
1 1
  N       -1.8084550     0.0000000    -0.7896910
  C       -1.0443494     0.0179951     0.5157093
  C       -0.2407120    -1.2715670     0.6435230
  C       -0.2407120     1.2715670     0.6435240
  C        0.9483640    -1.2633510    -0.3226430
  C        0.9483630     1.2633510    -0.3226440
  C        1.7921720     0.0000000    -0.1500480
  H       -1.8788710     0.0000000     1.2988220
  H       -0.8715790    -2.1591400     0.5029120
  H        0.1300900    -1.3254650     1.6735610
  H        0.1300910     1.3254640     1.6735620
  H       -0.8715790     2.1591400     0.5029130
  H        0.6104140    -1.3458840    -1.3672040
  H        1.5530020    -2.1580160    -0.1459610
  H        1.5530010     2.1580160    -0.1459620
  H        0.6104120     1.3458830    -1.3672040
  H        2.2390370     0.0000010     0.8520310
  H        2.6220820     0.0000000    -0.8633810
  H       -1.1366960    -0.0000120    -1.5675160
  H       -2.4051950     0.8313860    -0.8944410
  H       -2.4052130    -0.8313750    -0.8944310
units angstrom
no_reorient  #important for SAPT in psi4, default
symmetry c1  #important for SAPT in psi4, default
}

set PROPERTIES_ORIGIN ["COM"]
properties('MP2/aug-cc-pvtz', properties = ['dipole'])
--------------------------------------------------------------------------

    Molecular point group: c1
  Charge       = 1
  Multiplicity = 1
  Basis Set: AUG-CC-PVTZ
    Blend: AUG-CC-PVTZ
  Basis Set: (AUG-CC-PVTZ AUX)
    Blend: AUG-CC-PVTZ-JKFIT

    Orbital Energies [Eh]
    ---------------------

    Doubly Occupied:

       1A    -15.877151     2A    -11.467830     3A    -11.390477
       4A    -11.389313     5A    -11.371202     6A    -11.370718
       7A    -11.357933     8A     -1.497610     9A     -1.280790
      10A     -1.175426    11A     -1.169121    12A     -1.007928
      13A     -1.006985    14A     -0.956395    15A     -0.936783
      16A     -0.919110    17A     -0.820767    18A     -0.804943
      19A     -0.763232    20A     -0.758132    21A     -0.702072
      22A     -0.691596    23A     -0.689478    24A     -0.684620
      25A     -0.647788    26A     -0.611020    27A     -0.597123
      28A     -0.589429

  @DF-RHF Final Energy:  -289.70577685153415

   => Energetics <=

    Nuclear Repulsion Energy =            347.4101391445018407
    One-Electron Energy =               -1069.1618805897264792
    Two-Electron Energy =                 432.0459645936904849
    Total Energy =                       -289.7057768515341536
  Basis Set: (AUG-CC-PVTZ AUX)
    Blend: AUG-CC-PVTZ-RI
    Molecular point group: c1

    Geometry (in Angstrom), charge = 1, multiplicity = 1:

       Center              X                  Y                   Z               Mass
    ------------   -----------------  -----------------  -----------------  -----------------
         N           -1.813565515721    -0.002156962576    -0.792516283767    14.003074004430
         C           -1.049459915721     0.015838137424     0.512884016233    12.000000000000
         C           -0.245822515721    -1.273723962576     0.640697716233    12.000000000000
         C           -0.245822515721     1.269410037424     0.640698716233    12.000000000000
         C            0.943253484279    -1.265507962576    -0.325468283767    12.000000000000
         C            0.943252484279     1.261194037424    -0.325469283767    12.000000000000
         C            1.787061484279    -0.002156962576    -0.152873283767    12.000000000000
         H           -1.883981515721    -0.002156962576     1.295996716233     1.007825032230
         H           -0.876689515721    -2.161296962576     0.500086716233     1.007825032230
         H            0.124979484279    -1.327621962576     1.670735716233     1.007825032230
         H            0.124980484279     1.323307037424     1.670736716233     1.007825032230
         H           -0.876689515721     2.156983037424     0.500087716233     1.007825032230
         H            0.605303484279    -1.348040962576    -1.370029283767     1.007825032230
         H            1.547891484279    -2.160172962576    -0.148786283767     1.007825032230
         H            1.547890484279     2.155859037424    -0.148787283767     1.007825032230
         H            0.605301484279     1.343726037424    -1.370029283767     1.007825032230
         H            2.233926484279    -0.002155962576     0.849205716233     1.007825032230
         H            2.616971484279    -0.002156962576    -0.866206283767     1.007825032230
         H           -1.141806515721    -0.002168962576    -1.570341283767     1.007825032230
         H           -2.410305515721     0.829229037424    -0.897266283767     1.007825032230
         H           -2.410323515721    -0.833531962576    -0.897256283767     1.007825032230

  Basis Set: AUG-CC-PVTZ
    Blend: AUG-CC-PVTZ
  Basis Set: (AUG-CC-PVTZ AUX)
    Blend: AUG-CC-PVTZ-JKFIT
	 Reference Energy          =    -289.7057768515341536 [Eh]
	 Singles Energy            =      -0.0000000000000000 [Eh]
	 Same-Spin Energy          =      -0.3081452876454083 [Eh]
	 Opposite-Spin Energy      =      -1.0944905990941973 [Eh]
	 Correlation Energy        =      -1.4026358867396056 [Eh]
	 Total Energy              =    -291.1084127382737847 [Eh]

	 ================> DF-SCS-MP2 Energies <==================
	-----------------------------------------------------------
	 SCS Same-Spin Scale       =       0.3333333333333333 [-]
	 SCS Opposite-Spin Scale   =       1.2000000000000000 [-]
	 SCS Same-Spin Energy      =      -0.1027150958818027 [Eh]
	 SCS Opposite-Spin Energy  =      -1.3133887189130367 [Eh]
	 SCS Correlation Energy    =      -1.4161038147948395 [Eh]
	 SCS Total Energy          =    -291.1218806663289911 [Eh]
	-----------------------------------------------------------

  Dipole Moment: [D]
     X:    -5.6137      Y:     0.0063      Z:    -2.0800     Total:     5.9867

*** Psi4 exiting successfully. Buy a developer a beer!
