                               Psi4 1.4a3.dev225

  ==> Input File <==

--------------------------------------------------------------------------
#psi4
#
memory 32 gb

molecule  {
1 1
  N       -1.8084550     0.0000000    -0.7896910
  C       -1.0774430     0.0000000     0.5533100
  C       -0.2407120    -1.2715670     0.6435230
  C       -0.2407120     1.2715670     0.6435240
  C        0.9483640    -1.2633510    -0.3226430
  C        0.9483630     1.2633510    -0.3226440
  C        1.7049723    -0.0569251    -0.1734054
  H       -1.8788710     0.0000000     1.2988220
  H       -0.8715790    -2.1591400     0.5029120
  H        0.1300900    -1.3254650     1.6735610
  H        0.1300910     1.3254640     1.6735620
  H       -0.8715790     2.1591400     0.5029130
  H        0.6104140    -1.3458840    -1.3672040
  H        1.5530020    -2.1580160    -0.1459610
  H        1.5530010     2.1580160    -0.1459620
  H        0.6104120     1.3458830    -1.3672040
  H        2.2390370     0.0000010     0.8520310
  H        2.6220820     0.0000000    -0.8633810
  H       -1.1366960    -0.0000120    -1.5675160
  H       -2.4051950     0.8313860    -0.8944410
  H       -2.4052130    -0.8313750    -0.8944310
units angstrom
no_reorient  #important for SAPT in psi4, default
symmetry c1  #important for SAPT in psi4, default
}

set PROPERTIES_ORIGIN ["COM"]
properties('MP2/aug-cc-pvtz', properties = ['dipole'])
--------------------------------------------------------------------------

    Molecular point group: c1
  Charge       = 1
  Multiplicity = 1
  Basis Set: AUG-CC-PVTZ
    Blend: AUG-CC-PVTZ
  Basis Set: (AUG-CC-PVTZ AUX)
    Blend: AUG-CC-PVTZ-JKFIT

    Orbital Energies [Eh]
    ---------------------

    Doubly Occupied:

       1A    -15.874955     2A    -11.467505     3A    -11.390902
       4A    -11.389740     5A    -11.373223     6A    -11.369265
       7A    -11.362566     8A     -1.492952     9A     -1.285345
      10A     -1.182555    11A     -1.171383    12A     -1.014513
      13A     -1.004980    14A     -0.951644    15A     -0.935093
      16A     -0.913375    17A     -0.817659    18A     -0.814422
      19A     -0.765603    20A     -0.757589    21A     -0.709692
      22A     -0.698436    23A     -0.688165    24A     -0.683440
      25A     -0.648280    26A     -0.616742    27A     -0.590319
      28A     -0.579239

  @DF-RHF Final Energy:  -289.69587185204097

   => Energetics <=

    Nuclear Repulsion Energy =            348.1905050788674316
    One-Electron Energy =               -1070.6735948859734435
    Two-Electron Energy =                 432.7872179550650458
    Total Energy =                       -289.6958718520409661
  Basis Set: (AUG-CC-PVTZ AUX)
    Blend: AUG-CC-PVTZ-RI
    Molecular point group: c1

    Geometry (in Angstrom), charge = 1, multiplicity = 1:

       Center              X                  Y                   Z               Mass
    ------------   -----------------  -----------------  -----------------  -----------------
         N           -1.799146558992     0.006823347399    -0.794223556960    14.003074004430
         C           -1.068134558992     0.006823347399     0.548777443040    12.000000000000
         C           -0.231403558992    -1.264743652601     0.638990443040    12.000000000000
         C           -0.231403558992     1.278390347399     0.638991443040    12.000000000000
         C            0.957672441008    -1.256527652601    -0.327175556960    12.000000000000
         C            0.957671441008     1.270174347399    -0.327176556960    12.000000000000
         C            1.714280741008    -0.050101752601    -0.177937956960    12.000000000000
         H           -1.869562558992     0.006823347399     1.294289443040     1.007825032230
         H           -0.862270558992    -2.152316652601     0.498379443040     1.007825032230
         H            0.139398441008    -1.318641652601     1.669028443040     1.007825032230
         H            0.139399441008     1.332287347399     1.669029443040     1.007825032230
         H           -0.862270558992     2.165963347399     0.498380443040     1.007825032230
         H            0.619722441008    -1.339060652601    -1.371736556960     1.007825032230
         H            1.562310441008    -2.151192652601    -0.150493556960     1.007825032230
         H            1.562309441008     2.164839347399    -0.150494556960     1.007825032230
         H            0.619720441008     1.352706347399    -1.371736556960     1.007825032230
         H            2.248345441008     0.006824347399     0.847498443040     1.007825032230
         H            2.631390441008     0.006823347399    -0.867913556960     1.007825032230
         H           -1.127387558992     0.006811347399    -1.572048556960     1.007825032230
         H           -2.395886558992     0.838209347399    -0.898973556960     1.007825032230
         H           -2.395904558992    -0.824551652601    -0.898963556960     1.007825032230

  Basis Set: AUG-CC-PVTZ
    Blend: AUG-CC-PVTZ
  Basis Set: (AUG-CC-PVTZ AUX)
    Blend: AUG-CC-PVTZ-JKFIT
	 Reference Energy          =    -289.6958718520409661 [Eh]
	 Singles Energy            =      -0.0000000000000000 [Eh]
	 Same-Spin Energy          =      -0.3088224190711924 [Eh]
	 Opposite-Spin Energy      =      -1.0954371597583523 [Eh]
	 Correlation Energy        =      -1.4042595788295447 [Eh]
	 Total Energy              =    -291.1001314308705332 [Eh]

	 ================> DF-SCS-MP2 Energies <==================
	-----------------------------------------------------------
	 SCS Same-Spin Scale       =       0.3333333333333333 [-]
	 SCS Opposite-Spin Scale   =       1.2000000000000000 [-]
	 SCS Same-Spin Energy      =      -0.1029408063570641 [Eh]
	 SCS Opposite-Spin Energy  =      -1.3145245917100228 [Eh]
	 SCS Correlation Energy    =      -1.4174653980670868 [Eh]
	 SCS Total Energy          =    -291.1133372501080316 [Eh]
	-----------------------------------------------------------

  Dipole Moment: [D]
     X:    -5.5766      Y:     0.0119      Z:    -2.0531     Total:     5.9425

*** Psi4 exiting successfully. Buy a developer a beer!
