                               Psi4 1.4a3.dev225

  ==> Input File <==

--------------------------------------------------------------------------
#psi4
#
memory 32 gb

molecule  {
1 1
  N       -1.8084550     0.0000000    -0.7896910
  C       -1.0774430     0.0000000     0.5533100
  C       -0.2407120    -1.2715670     0.6435230
  C       -0.2407120     1.2715670     0.6435240
  C        0.9483640    -1.2633510    -0.3226430
  C        0.9483630     1.2633510    -0.3226440
  C        1.7921720     0.0000000    -0.1500480
  H       -1.8788710     0.0000000     1.2988220
  H       -0.8715790    -2.1591400     0.5029120
  H        0.1300900    -1.3254650     1.6735610
  H        0.1977512     1.3352986     1.8615125
  H       -0.8715790     2.1591400     0.5029130
  H        0.6104140    -1.3458840    -1.3672040
  H        1.5530020    -2.1580160    -0.1459610
  H        1.5530010     2.1580160    -0.1459620
  H        0.6104120     1.3458830    -1.3672040
  H        2.2390370     0.0000010     0.8520310
  H        2.6220820     0.0000000    -0.8633810
  H       -1.1366960    -0.0000120    -1.5675160
  H       -2.4051950     0.8313860    -0.8944410
  H       -2.4052130    -0.8313750    -0.8944310
units angstrom
no_reorient  #important for SAPT in psi4, default
symmetry c1  #important for SAPT in psi4, default
}

set PROPERTIES_ORIGIN ["COM"]
properties('MP2/aug-cc-pvtz', properties = ['dipole'])
--------------------------------------------------------------------------

    Molecular point group: c1
  Charge       = 1
  Multiplicity = 1
  Basis Set: AUG-CC-PVTZ
    Blend: AUG-CC-PVTZ
  Basis Set: (AUG-CC-PVTZ AUX)
    Blend: AUG-CC-PVTZ-JKFIT

    Orbital Energies [Eh]
    ---------------------

    Doubly Occupied:

       1A    -15.875772     2A    -11.468090     3A    -11.411178
       4A    -11.390233     5A    -11.373415     6A    -11.371723
       7A    -11.357930     8A     -1.493646     9A     -1.275720
      10A     -1.171637    11A     -1.167873    12A     -1.009566
      13A     -1.002753    14A     -0.950128    15A     -0.932722
      16A     -0.913339    17A     -0.816110    18A     -0.814283
      19A     -0.764133    20A     -0.747386    21A     -0.698744
      22A     -0.697216    23A     -0.687366    24A     -0.675368
      25A     -0.629607    26A     -0.607874    27A     -0.596182
      28A     -0.595735

  @DF-RHF Final Energy:  -289.68942303248980

   => Energetics <=

    Nuclear Repulsion Energy =            345.8141890631949309
    One-Electron Energy =               -1066.0157657612137427
    Two-Electron Energy =                 430.5121536655290129
    Total Energy =                       -289.6894230324897990
  Basis Set: (AUG-CC-PVTZ AUX)
    Blend: AUG-CC-PVTZ-RI
    Molecular point group: c1

    Geometry (in Angstrom), charge = 1, multiplicity = 1:

       Center              X                  Y                   Z               Mass
    ------------   -----------------  -----------------  -----------------  -----------------
         N           -1.810279880582    -0.000098983924    -0.798915373015    14.003074004430
         C           -1.079267880582    -0.000098983924     0.544085626985    12.000000000000
         C           -0.242536880582    -1.271665983924     0.634298626985    12.000000000000
         C           -0.242536880582     1.271468016076     0.634299626985    12.000000000000
         C            0.946539119418    -1.263449983924    -0.331867373015    12.000000000000
         C            0.946538119418     1.263252016076    -0.331868373015    12.000000000000
         C            1.790347119418    -0.000098983924    -0.159272373015    12.000000000000
         H           -1.880695880582    -0.000098983924     1.289597626985     1.007825032230
         H           -0.873403880582    -2.159238983924     0.493687626985     1.007825032230
         H            0.128265119418    -1.325563983924     1.664336626985     1.007825032230
         H            0.195926319418     1.335199616076     1.852288126985     1.007825032230
         H           -0.873403880582     2.159041016076     0.493688626985     1.007825032230
         H            0.608589119418    -1.345982983924    -1.376428373015     1.007825032230
         H            1.551177119418    -2.158114983924    -0.155185373015     1.007825032230
         H            1.551176119418     2.157917016076    -0.155186373015     1.007825032230
         H            0.608587119418     1.345784016076    -1.376428373015     1.007825032230
         H            2.237212119418    -0.000097983924     0.842806626985     1.007825032230
         H            2.620257119418    -0.000098983924    -0.872605373015     1.007825032230
         H           -1.138520880582    -0.000110983924    -1.576740373015     1.007825032230
         H           -2.407019880582     0.831287016076    -0.903665373015     1.007825032230
         H           -2.407037880582    -0.831473983924    -0.903655373015     1.007825032230

  Basis Set: AUG-CC-PVTZ
    Blend: AUG-CC-PVTZ
  Basis Set: (AUG-CC-PVTZ AUX)
    Blend: AUG-CC-PVTZ-JKFIT
	 Reference Energy          =    -289.6894230324897990 [Eh]
	 Singles Energy            =      -0.0000000000000000 [Eh]
	 Same-Spin Energy          =      -0.3079026489308786 [Eh]
	 Opposite-Spin Energy      =      -1.0957637231611521 [Eh]
	 Correlation Energy        =      -1.4036663720920308 [Eh]
	 Total Energy              =    -291.0930894045818036 [Eh]

	 ================> DF-SCS-MP2 Energies <==================
	-----------------------------------------------------------
	 SCS Same-Spin Scale       =       0.3333333333333333 [-]
	 SCS Opposite-Spin Scale   =       1.2000000000000000 [-]
	 SCS Same-Spin Energy      =      -0.1026342163102929 [Eh]
	 SCS Opposite-Spin Energy  =      -1.3149164677933824 [Eh]
	 SCS Correlation Energy    =      -1.4175506841036754 [Eh]
	 SCS Total Energy          =    -291.1069737165934725 [Eh]
	-----------------------------------------------------------

  Dipole Moment: [D]
     X:    -5.5958      Y:     0.0055      Z:    -2.1057     Total:     5.9789

*** Psi4 exiting successfully. Buy a developer a beer!
