                               Psi4 1.4a3.dev225

  ==> Input File <==

--------------------------------------------------------------------------
#psi4
#
memory 32 gb

molecule  {
1 1
  N       -1.8084550     0.0000000    -0.7896910
  C       -1.0774430     0.0000000     0.5533100
  C       -0.2407120    -1.2715670     0.6435230
  C       -0.2407120     1.2715670     0.6435240
  C        0.9483640    -1.2633510    -0.3226430
  C        0.9483630     1.2633510    -0.3226440
  C        1.7921720     0.0000000    -0.1500480
  H       -1.8788710     0.0000000     1.2988220
  H       -0.8715790    -2.1591400     0.5029120
  H        0.1300900    -1.3254650     1.6735610
  H        0.1300910     1.3254640     1.6735620
  H       -0.8715790     2.1591400     0.5029130
  H        0.6104140    -1.3458840    -1.3672040
  H        1.5530020    -2.1580160    -0.1459610
  H        1.5530010     2.1580160    -0.1459620
  H        0.6104120     1.3458830    -1.3672040
  H        2.2390370     0.0000010     0.8520310
  H        2.6220820     0.0000000    -0.8633810
  H       -1.1366960    -0.0000120    -1.5675160
  H       -2.4051950     0.8313860    -0.8944410
  H       -2.5212320    -0.9930071    -0.9147941
units angstrom
no_reorient  #important for SAPT in psi4, default
symmetry c1  #important for SAPT in psi4, default
}

set PROPERTIES_ORIGIN ["COM"]
properties('MP2/aug-cc-pvtz', properties = ['dipole'])
--------------------------------------------------------------------------

    Molecular point group: c1
  Charge       = 1
  Multiplicity = 1
  Basis Set: AUG-CC-PVTZ
    Blend: AUG-CC-PVTZ
  Basis Set: (AUG-CC-PVTZ AUX)
    Blend: AUG-CC-PVTZ-JKFIT

    Orbital Energies [Eh]
    ---------------------

    Doubly Occupied:

       1A    -15.883721     2A    -11.464528     3A    -11.389439
       4A    -11.389075     5A    -11.370484     6A    -11.370468
       7A    -11.356879     8A     -1.468613     9A     -1.272862
      10A     -1.171138    11A     -1.166985    12A     -1.007488
      13A     -1.002626    14A     -0.941664    15A     -0.916046
      16A     -0.884760    17A     -0.811558    18A     -0.809963
      19A     -0.762310    20A     -0.751679    21A     -0.696936
      22A     -0.694212    23A     -0.685153    24A     -0.684019
      25A     -0.644952    26A     -0.609779    27A     -0.594276
      28A     -0.593649

  @DF-RHF Final Energy:  -289.68197422464380

   => Energetics <=

    Nuclear Repulsion Energy =            345.7368140357588118
    One-Electron Energy =               -1066.0470505436514941
    Two-Electron Energy =                 430.6282622832488869
    Total Energy =                       -289.6819742246437954
  Basis Set: (AUG-CC-PVTZ AUX)
    Blend: AUG-CC-PVTZ-RI
    Molecular point group: c1

    Geometry (in Angstrom), charge = 1, multiplicity = 1:

       Center              X                  Y                   Z               Mass
    ------------   -----------------  -----------------  -----------------  -----------------
         N           -1.808430798144     0.001627156344    -0.796818298228    14.003074004430
         C           -1.077418798144     0.001627156344     0.546182701772    12.000000000000
         C           -0.240687798144    -1.269939843656     0.636395701772    12.000000000000
         C           -0.240687798144     1.273194156344     0.636396701772    12.000000000000
         C            0.948388201856    -1.261723843656    -0.329770298228    12.000000000000
         C            0.948387201856     1.264978156344    -0.329771298228    12.000000000000
         C            1.792196201856     0.001627156344    -0.157175298228    12.000000000000
         H           -1.878846798144     0.001627156344     1.291694701772     1.007825032230
         H           -0.871554798144    -2.157512843656     0.495784701772     1.007825032230
         H            0.130114201856    -1.323837843656     1.666433701772     1.007825032230
         H            0.130115201856     1.327091156344     1.666434701772     1.007825032230
         H           -0.871554798144     2.160767156344     0.495785701772     1.007825032230
         H            0.610438201856    -1.344256843656    -1.374331298228     1.007825032230
         H            1.553026201856    -2.156388843656    -0.153088298228     1.007825032230
         H            1.553025201856     2.159643156344    -0.153089298228     1.007825032230
         H            0.610436201856     1.347510156344    -1.374331298228     1.007825032230
         H            2.239061201856     0.001628156344     0.844903701772     1.007825032230
         H            2.622106201856     0.001627156344    -0.870508298228     1.007825032230
         H           -1.136671798144     0.001615156344    -1.574643298228     1.007825032230
         H           -2.405170798144     0.833013156344    -0.901568298228     1.007825032230
         H           -2.521207798144    -0.991379943656    -0.921921398228     1.007825032230

  Basis Set: AUG-CC-PVTZ
    Blend: AUG-CC-PVTZ
  Basis Set: (AUG-CC-PVTZ AUX)
    Blend: AUG-CC-PVTZ-JKFIT
	 Reference Energy          =    -289.6819742246437954 [Eh]
	 Singles Energy            =      -0.0000000000000000 [Eh]
	 Same-Spin Energy          =      -0.3088893834997585 [Eh]
	 Opposite-Spin Energy      =      -1.0979193915230971 [Eh]
	 Correlation Energy        =      -1.4068087750228557 [Eh]
	 Total Energy              =    -291.0887829996666483 [Eh]

	 ================> DF-SCS-MP2 Energies <==================
	-----------------------------------------------------------
	 SCS Same-Spin Scale       =       0.3333333333333333 [-]
	 SCS Opposite-Spin Scale   =       1.2000000000000000 [-]
	 SCS Same-Spin Energy      =      -0.1029631278332528 [Eh]
	 SCS Opposite-Spin Energy  =      -1.3175032698277165 [Eh]
	 SCS Correlation Energy    =      -1.4204663976609693 [Eh]
	 SCS Total Energy          =    -291.1024406223047549 [Eh]
	-----------------------------------------------------------

  Dipole Moment: [D]
     X:    -5.7804      Y:    -0.2064      Z:    -2.0840     Total:     6.1480

*** Psi4 exiting successfully. Buy a developer a beer!
