                               Psi4 1.4a3.dev225

  ==> Input File <==

--------------------------------------------------------------------------
#psi4
#
memory 32 gb

molecule  {
1 1
  N       -1.8084550     0.0000000    -0.7896910
  C       -1.0774430     0.0000000     0.5533100
  C       -0.2407120    -1.2715670     0.6435230
  C       -0.2407120     1.2715670     0.6435240
  C        0.9483640    -1.2633510    -0.3226430
  C        0.9483630     1.2633510    -0.3226440
  C        1.7921720     0.0000000    -0.1500480
  H       -1.7324334     0.0000000     1.1626014
  H       -0.8715790    -2.1591400     0.5029120
  H        0.1300900    -1.3254650     1.6735610
  H        0.1300910     1.3254640     1.6735620
  H       -0.8715790     2.1591400     0.5029130
  H        0.6104140    -1.3458840    -1.3672040
  H        1.5530020    -2.1580160    -0.1459610
  H        1.5530010     2.1580160    -0.1459620
  H        0.6104120     1.3458830    -1.3672040
  H        2.2390370     0.0000010     0.8520310
  H        2.6220820     0.0000000    -0.8633810
  H       -1.1366960    -0.0000120    -1.5675160
  H       -2.4051950     0.8313860    -0.8944410
  H       -2.4052130    -0.8313750    -0.8944310
units angstrom
no_reorient  #important for SAPT in psi4, default
symmetry c1  #important for SAPT in psi4, default
}

set PROPERTIES_ORIGIN ["COM"]
properties('MP2/aug-cc-pvtz', properties = ['dipole'])
--------------------------------------------------------------------------

    Molecular point group: c1
  Charge       = 1
  Multiplicity = 1
  Basis Set: AUG-CC-PVTZ
    Blend: AUG-CC-PVTZ
  Basis Set: (AUG-CC-PVTZ AUX)
    Blend: AUG-CC-PVTZ-JKFIT

    Orbital Energies [Eh]
    ---------------------

    Doubly Occupied:

       1A    -15.874022     2A    -11.444145     3A    -11.389912
       4A    -11.389900     5A    -11.371114     6A    -11.371111
       7A    -11.357501     8A     -1.494124     9A     -1.281493
      10A     -1.183479    11A     -1.172182    12A     -1.028664
      13A     -1.006156    14A     -0.951291    15A     -0.934345
      16A     -0.919164    17A     -0.845438    18A     -0.814514
      19A     -0.766220    20A     -0.755994    21A     -0.707008
      22A     -0.695589    23A     -0.686634    24A     -0.686149
      25A     -0.646233    26A     -0.611123    27A     -0.597921
      28A     -0.595076

  @DF-RHF Final Energy:  -289.67687568408769

   => Energetics <=

    Nuclear Repulsion Energy =            347.9139677503255825
    One-Electron Energy =               -1070.0286865453369956
    Two-Electron Energy =                 432.4378431109237226
    Total Energy =                       -289.6768756840876904
  Basis Set: (AUG-CC-PVTZ AUX)
    Blend: AUG-CC-PVTZ-RI
    Molecular point group: c1

    Geometry (in Angstrom), charge = 1, multiplicity = 1:

       Center              X                  Y                   Z               Mass
    ------------   -----------------  -----------------  -----------------  -----------------
         N           -1.811072925776     0.000000020134    -0.795651970911    14.003074004430
         C           -1.080060925776     0.000000020134     0.547349029089    12.000000000000
         C           -0.243329925776    -1.271566979866     0.637562029089    12.000000000000
         C           -0.243329925776     1.271567020134     0.637563029089    12.000000000000
         C            0.945746074224    -1.263350979866    -0.328603970911    12.000000000000
         C            0.945745074224     1.263351020134    -0.328604970911    12.000000000000
         C            1.789554074224     0.000000020134    -0.156008970911    12.000000000000
         H           -1.735051325776     0.000000020134     1.156640429089     1.007825032230
         H           -0.874196925776    -2.159139979866     0.496951029089     1.007825032230
         H            0.127472074224    -1.325464979866     1.667600029089     1.007825032230
         H            0.127473074224     1.325464020134     1.667601029089     1.007825032230
         H           -0.874196925776     2.159140020134     0.496952029089     1.007825032230
         H            0.607796074224    -1.345883979866    -1.373164970911     1.007825032230
         H            1.550384074224    -2.158015979866    -0.151921970911     1.007825032230
         H            1.550383074224     2.158016020134    -0.151922970911     1.007825032230
         H            0.607794074224     1.345883020134    -1.373164970911     1.007825032230
         H            2.236419074224     0.000001020134     0.846070029089     1.007825032230
         H            2.619464074224     0.000000020134    -0.869341970911     1.007825032230
         H           -1.139313925776    -0.000011979866    -1.573476970911     1.007825032230
         H           -2.407812925776     0.831386020134    -0.900401970911     1.007825032230
         H           -2.407830925776    -0.831374979866    -0.900391970911     1.007825032230

  Basis Set: AUG-CC-PVTZ
    Blend: AUG-CC-PVTZ
  Basis Set: (AUG-CC-PVTZ AUX)
    Blend: AUG-CC-PVTZ-JKFIT
	 Reference Energy          =    -289.6768756840876904 [Eh]
	 Singles Energy            =      -0.0000000000000000 [Eh]
	 Same-Spin Energy          =      -0.3074043882926980 [Eh]
	 Opposite-Spin Energy      =      -1.0928932046352280 [Eh]
	 Correlation Energy        =      -1.4002975929279260 [Eh]
	 Total Energy              =    -291.0771732770156177 [Eh]

	 ================> DF-SCS-MP2 Energies <==================
	-----------------------------------------------------------
	 SCS Same-Spin Scale       =       0.3333333333333333 [-]
	 SCS Opposite-Spin Scale   =       1.2000000000000000 [-]
	 SCS Same-Spin Energy      =      -0.1024681294308993 [Eh]
	 SCS Opposite-Spin Energy  =      -1.3114718455622736 [Eh]
	 SCS Correlation Energy    =      -1.4139399749931729 [Eh]
	 SCS Total Energy          =    -291.0908156590808744 [Eh]
	-----------------------------------------------------------

  Dipole Moment: [D]
     X:    -5.6335      Y:    -0.0000      Z:    -2.0567     Total:     5.9972

*** Psi4 exiting successfully. Buy a developer a beer!
