                               Psi4 1.4a3.dev225

  ==> Input File <==

--------------------------------------------------------------------------
#psi4
#
memory 32 gb

molecule  {
1 1
  N       -1.8084550     0.0000000    -0.7896910
  C       -1.0774430     0.0000000     0.5533100
  C       -0.2407120    -1.2715670     0.6435230
  C       -0.2407120     1.2715670     0.6435240
  C        0.9483640    -1.2633510    -0.3226430
  C        0.9483630     1.2633510    -0.3226440
  C        1.7645786     0.0413128    -0.1556921
  H       -1.8788710     0.0000000     1.2988220
  H       -0.8715790    -2.1591400     0.5029120
  H        0.1300900    -1.3254650     1.6735610
  H        0.1300910     1.3254640     1.6735620
  H       -0.8715790     2.1591400     0.5029130
  H        0.6104140    -1.3458840    -1.3672040
  H        1.5530020    -2.1580160    -0.1459610
  H        1.5530010     2.1580160    -0.1459620
  H        0.6104120     1.3458830    -1.3672040
  H        2.2390370     0.0000010     0.8520310
  H        2.6220820     0.0000000    -0.8633810
  H       -1.1366960    -0.0000120    -1.5675160
  H       -2.4051950     0.8313860    -0.8944410
  H       -2.4052130    -0.8313750    -0.8944310
units angstrom
no_reorient  #important for SAPT in psi4, default
symmetry c1  #important for SAPT in psi4, default
}

set PROPERTIES_ORIGIN ["COM"]
properties('MP2/aug-cc-pvtz', properties = ['dipole'])
--------------------------------------------------------------------------

    Molecular point group: c1
  Charge       = 1
  Multiplicity = 1
  Basis Set: AUG-CC-PVTZ
    Blend: AUG-CC-PVTZ
  Basis Set: (AUG-CC-PVTZ AUX)
    Blend: AUG-CC-PVTZ-JKFIT

    Orbital Energies [Eh]
    ---------------------

    Doubly Occupied:

       1A    -15.874654     2A    -11.466981     3A    -11.390825
       4A    -11.389972     5A    -11.372522     6A    -11.370353
       7A    -11.359221     8A     -1.492570     9A     -1.279940
      10A     -1.177057    11A     -1.169593    12A     -1.011244
      13A     -1.005889    14A     -0.951159    15A     -0.934516
      16A     -0.916845    17A     -0.815530    18A     -0.814708
      19A     -0.764334    20A     -0.756613    21A     -0.702165
      22A     -0.696471    23A     -0.687576    24A     -0.685227
      25A     -0.647188    26A     -0.610686    27A     -0.598986
      28A     -0.587623

  @DF-RHF Final Energy:  -289.70675817547743

   => Energetics <=

    Nuclear Repulsion Energy =            347.1708195366154541
    One-Electron Energy =               -1068.6942599347871692
    Two-Electron Energy =                 431.8166822226942827
    Total Energy =                       -289.7067581754774324
  Basis Set: (AUG-CC-PVTZ AUX)
    Blend: AUG-CC-PVTZ-RI
    Molecular point group: c1

    Geometry (in Angstrom), charge = 1, multiplicity = 1:

       Center              X                  Y                   Z               Mass
    ------------   -----------------  -----------------  -----------------  -----------------
         N           -1.806291268302    -0.004951938749    -0.796346761712    14.003074004430
         C           -1.075279268302    -0.004951938749     0.546654238288    12.000000000000
         C           -0.238548268302    -1.276518938749     0.636867238288    12.000000000000
         C           -0.238548268302     1.266615061251     0.636868238288    12.000000000000
         C            0.950527731698    -1.268302938749    -0.329298761712    12.000000000000
         C            0.950526731698     1.258399061251    -0.329299761712    12.000000000000
         C            1.766742331698     0.036360861251    -0.162347861712    12.000000000000
         H           -1.876707268302    -0.004951938749     1.292166238288     1.007825032230
         H           -0.869415268302    -2.164091938749     0.496256238288     1.007825032230
         H            0.132253731698    -1.330416938749     1.666905238288     1.007825032230
         H            0.132254731698     1.320512061251     1.666906238288     1.007825032230
         H           -0.869415268302     2.154188061251     0.496257238288     1.007825032230
         H            0.612577731698    -1.350835938749    -1.373859761712     1.007825032230
         H            1.555165731698    -2.162967938749    -0.152616761712     1.007825032230
         H            1.555164731698     2.153064061251    -0.152617761712     1.007825032230
         H            0.612575731698     1.340931061251    -1.373859761712     1.007825032230
         H            2.241200731698    -0.004950938749     0.845375238288     1.007825032230
         H            2.624245731698    -0.004951938749    -0.870036761712     1.007825032230
         H           -1.134532268302    -0.004963938749    -1.574171761712     1.007825032230
         H           -2.403031268302     0.826434061251    -0.901096761712     1.007825032230
         H           -2.403049268302    -0.836326938749    -0.901086761712     1.007825032230

  Basis Set: AUG-CC-PVTZ
    Blend: AUG-CC-PVTZ
  Basis Set: (AUG-CC-PVTZ AUX)
    Blend: AUG-CC-PVTZ-JKFIT
	 Reference Energy          =    -289.7067581754774324 [Eh]
	 Singles Energy            =      -0.0000000000000000 [Eh]
	 Same-Spin Energy          =      -0.3079833564854201 [Eh]
	 Opposite-Spin Energy      =      -1.0943152175514892 [Eh]
	 Correlation Energy        =      -1.4022985740369092 [Eh]
	 Total Energy              =    -291.1090567495143659 [Eh]

	 ================> DF-SCS-MP2 Energies <==================
	-----------------------------------------------------------
	 SCS Same-Spin Scale       =       0.3333333333333333 [-]
	 SCS Opposite-Spin Scale   =       1.2000000000000000 [-]
	 SCS Same-Spin Energy      =      -0.1026611188284734 [Eh]
	 SCS Opposite-Spin Energy  =      -1.3131782610617870 [Eh]
	 SCS Correlation Energy    =      -1.4158393798902604 [Eh]
	 SCS Total Energy          =    -291.1225975553676903 [Eh]
	-----------------------------------------------------------

  Dipole Moment: [D]
     X:    -5.5905      Y:    -0.0068      Z:    -2.0522     Total:     5.9552

*** Psi4 exiting successfully. Buy a developer a beer!
