                               Psi4 1.4a3.dev225

  ==> Input File <==

--------------------------------------------------------------------------
#psi4
#
memory 32 gb

molecule  {
1 1
  N       -1.8084550     0.0000000    -0.7896910
  C       -1.0774430     0.0000000     0.5533100
  C       -0.2407120    -1.2715670     0.6435230
  C       -0.2407120     1.2715670     0.6435240
  C        0.9483640    -1.2633510    -0.3226430
  C        0.9483630     1.2633510    -0.3226440
  C        1.7921720     0.0000000    -0.1500480
  H       -1.8788710     0.0000000     1.2988220
  H       -0.8715790    -2.1591400     0.5029120
  H        0.1300900    -1.3254650     1.6735610
  H        0.1300910     1.3254640     1.6735620
  H       -0.8715790     2.1591400     0.5029130
  H        0.6104140    -1.3458840    -1.3672040
  H        1.5530020    -2.1580160    -0.1459610
  H        1.5689372     2.1188922    -0.0395080
  H        0.6104120     1.3458830    -1.3672040
  H        2.2390370     0.0000010     0.8520310
  H        2.6220820     0.0000000    -0.8633810
  H       -1.1366960    -0.0000120    -1.5675160
  H       -2.4051950     0.8313860    -0.8944410
  H       -2.4052130    -0.8313750    -0.8944310
units angstrom
no_reorient  #important for SAPT in psi4, default
symmetry c1  #important for SAPT in psi4, default
}

set PROPERTIES_ORIGIN ["COM"]
properties('MP2/aug-cc-pvtz', properties = ['dipole'])
--------------------------------------------------------------------------

    Molecular point group: c1
  Charge       = 1
  Multiplicity = 1
  Basis Set: AUG-CC-PVTZ
    Blend: AUG-CC-PVTZ
  Basis Set: (AUG-CC-PVTZ AUX)
    Blend: AUG-CC-PVTZ-JKFIT

    Orbital Energies [Eh]
    ---------------------

    Doubly Occupied:

       1A    -15.874780     2A    -11.466251     3A    -11.390300
       4A    -11.389994     5A    -11.371731     6A    -11.371223
       7A    -11.357438     8A     -1.492595     9A     -1.277768
      10A     -1.172993    11A     -1.170675    12A     -1.010139
      13A     -1.005758    14A     -0.951301    15A     -0.934304
      16A     -0.916820    17A     -0.815769    18A     -0.812525
      19A     -0.768229    20A     -0.757639    21A     -0.697524
      22A     -0.695074    23A     -0.687076    24A     -0.684633
      25A     -0.648891    26A     -0.612974    27A     -0.594949
      28A     -0.591689

  @DF-RHF Final Energy:  -289.70839481310304

   => Energetics <=

    Nuclear Repulsion Energy =            346.7825369267904989
    One-Electron Energy =               -1067.9397785553003359
    Two-Electron Energy =                 431.4488468154067959
    Total Energy =                       -289.7083948131030411
  Basis Set: (AUG-CC-PVTZ AUX)
    Blend: AUG-CC-PVTZ-RI
    Molecular point group: c1

    Geometry (in Angstrom), charge = 1, multiplicity = 1:

       Center              X                  Y                   Z               Mass
    ------------   -----------------  -----------------  -----------------  -----------------
         N           -1.809759179599     0.000393876006    -0.798094954879    14.003074004430
         C           -1.078747179599     0.000393876006     0.544906045121    12.000000000000
         C           -0.242016179599    -1.271173123994     0.635119045121    12.000000000000
         C           -0.242016179599     1.271960876006     0.635120045121    12.000000000000
         C            0.947059820401    -1.262957123994    -0.331046954879    12.000000000000
         C            0.947058820401     1.263744876006    -0.331047954879    12.000000000000
         C            1.790867820401     0.000393876006    -0.158451954879    12.000000000000
         H           -1.880175179599     0.000393876006     1.290418045121     1.007825032230
         H           -0.872883179599    -2.158746123994     0.494508045121     1.007825032230
         H            0.128785820401    -1.325071123994     1.665157045121     1.007825032230
         H            0.128786820401     1.325857876006     1.665158045121     1.007825032230
         H           -0.872883179599     2.159533876006     0.494509045121     1.007825032230
         H            0.609109820401    -1.345490123994    -1.375607954879     1.007825032230
         H            1.551697820401    -2.157622123994    -0.154364954879     1.007825032230
         H            1.567633020401     2.119286076006    -0.047911954879     1.007825032230
         H            0.609107820401     1.346276876006    -1.375607954879     1.007825032230
         H            2.237732820401     0.000394876006     0.843627045121     1.007825032230
         H            2.620777820401     0.000393876006    -0.871784954879     1.007825032230
         H           -1.138000179599     0.000381876006    -1.575919954879     1.007825032230
         H           -2.406499179599     0.831779876006    -0.902844954879     1.007825032230
         H           -2.406517179599    -0.830981123994    -0.902834954879     1.007825032230

  Basis Set: AUG-CC-PVTZ
    Blend: AUG-CC-PVTZ
  Basis Set: (AUG-CC-PVTZ AUX)
    Blend: AUG-CC-PVTZ-JKFIT
	 Reference Energy          =    -289.7083948131030411 [Eh]
	 Singles Energy            =      -0.0000000000000000 [Eh]
	 Same-Spin Energy          =      -0.3076874351656725 [Eh]
	 Opposite-Spin Energy      =      -1.0940812139327227 [Eh]
	 Correlation Energy        =      -1.4017686490983952 [Eh]
	 Total Energy              =    -291.1101634622014558 [Eh]

	 ================> DF-SCS-MP2 Energies <==================
	-----------------------------------------------------------
	 SCS Same-Spin Scale       =       0.3333333333333333 [-]
	 SCS Opposite-Spin Scale   =       1.2000000000000000 [-]
	 SCS Same-Spin Energy      =      -0.1025624783885575 [Eh]
	 SCS Opposite-Spin Energy  =      -1.3128974567192673 [Eh]
	 SCS Correlation Energy    =      -1.4154599351078248 [Eh]
	 SCS Total Energy          =    -291.1238547482108743 [Eh]
	-----------------------------------------------------------

  Dipole Moment: [D]
     X:    -5.5988      Y:    -0.0122      Z:    -2.0253     Total:     5.9538

*** Psi4 exiting successfully. Buy a developer a beer!
