                               Psi4 1.4a3.dev225

  ==> Input File <==

--------------------------------------------------------------------------
#psi4
#
memory 32 gb

molecule  {
1 1
  N       -1.8084550     0.0000000    -0.7896910
  C       -1.0774430     0.0000000     0.5533100
  C       -0.2407120    -1.2715670     0.6435230
  C       -0.2853288     1.1328804     0.5764831
  C        0.9483640    -1.2633510    -0.3226430
  C        0.9483630     1.2633510    -0.3226440
  C        1.7921720     0.0000000    -0.1500480
  H       -1.8788710     0.0000000     1.2988220
  H       -0.8715790    -2.1591400     0.5029120
  H        0.1300900    -1.3254650     1.6735610
  H        0.1300910     1.3254640     1.6735620
  H       -0.8715790     2.1591400     0.5029130
  H        0.6104140    -1.3458840    -1.3672040
  H        1.5530020    -2.1580160    -0.1459610
  H        1.5530010     2.1580160    -0.1459620
  H        0.6104120     1.3458830    -1.3672040
  H        2.2390370     0.0000010     0.8520310
  H        2.6220820     0.0000000    -0.8633810
  H       -1.1366960    -0.0000120    -1.5675160
  H       -2.4051950     0.8313860    -0.8944410
  H       -2.4052130    -0.8313750    -0.8944310
units angstrom
no_reorient  #important for SAPT in psi4, default
symmetry c1  #important for SAPT in psi4, default
}

set PROPERTIES_ORIGIN ["COM"]
properties('MP2/aug-cc-pvtz', properties = ['dipole'])
--------------------------------------------------------------------------

    Molecular point group: c1
  Charge       = 1
  Multiplicity = 1
  Basis Set: AUG-CC-PVTZ
    Blend: AUG-CC-PVTZ
  Basis Set: (AUG-CC-PVTZ AUX)
    Blend: AUG-CC-PVTZ-JKFIT

    Orbital Energies [Eh]
    ---------------------

    Doubly Occupied:

       1A    -15.873391     2A    -11.463937     3A    -11.396100
       4A    -11.391312     5A    -11.374754     6A    -11.372816
       7A    -11.357129     8A     -1.496894     9A     -1.293588
      10A     -1.185140    11A     -1.170768    12A     -1.016122
      13A     -1.003186    14A     -0.951714    15A     -0.931774
      16A     -0.919466    17A     -0.824830    18A     -0.818114
      19A     -0.761456    20A     -0.754551    21A     -0.724275
      22A     -0.698506    23A     -0.685577    24A     -0.674746
      25A     -0.632216    26A     -0.608451    27A     -0.602789
      28A     -0.579975

  @DF-RHF Final Energy:  -289.67851932921411

   => Energetics <=

    Nuclear Repulsion Energy =            349.2664312690926636
    One-Electron Energy =               -1072.7627475602923823
    Two-Electron Energy =                 433.8177969619856071
    Total Energy =                       -289.6785193292141116
  Basis Set: (AUG-CC-PVTZ AUX)
    Blend: AUG-CC-PVTZ-RI
    Molecular point group: c1

    Geometry (in Angstrom), charge = 1, multiplicity = 1:

       Center              X                  Y                   Z               Mass
    ------------   -----------------  -----------------  -----------------  -----------------
         N           -1.804250758415     0.016623689816    -0.788987434115    14.003074004430
         C           -1.073238758415     0.016623689816     0.554013565885    12.000000000000
         C           -0.236507758415    -1.254943310184     0.644226565885    12.000000000000
         C           -0.281124558415     1.149504089816     0.577186665885    12.000000000000
         C            0.952568241585    -1.246727310184    -0.321939434115    12.000000000000
         C            0.952567241585     1.279974689816    -0.321940434115    12.000000000000
         C            1.796376241585     0.016623689816    -0.149344434115    12.000000000000
         H           -1.874666758415     0.016623689816     1.299525565885     1.007825032230
         H           -0.867374758415    -2.142516310184     0.503615565885     1.007825032230
         H            0.134294241585    -1.308841310184     1.674264565885     1.007825032230
         H            0.134295241585     1.342087689816     1.674265565885     1.007825032230
         H           -0.867374758415     2.175763689816     0.503616565885     1.007825032230
         H            0.614618241585    -1.329260310184    -1.366500434115     1.007825032230
         H            1.557206241585    -2.141392310184    -0.145257434115     1.007825032230
         H            1.557205241585     2.174639689816    -0.145258434115     1.007825032230
         H            0.614616241585     1.362506689816    -1.366500434115     1.007825032230
         H            2.243241241585     0.016624689816     0.852734565885     1.007825032230
         H            2.626286241585     0.016623689816    -0.862677434115     1.007825032230
         H           -1.132491758415     0.016611689816    -1.566812434115     1.007825032230
         H           -2.400990758415     0.848009689816    -0.893737434115     1.007825032230
         H           -2.401008758415    -0.814751310184    -0.893727434115     1.007825032230

  Basis Set: AUG-CC-PVTZ
    Blend: AUG-CC-PVTZ
  Basis Set: (AUG-CC-PVTZ AUX)
    Blend: AUG-CC-PVTZ-JKFIT
	 Reference Energy          =    -289.6785193292141116 [Eh]
	 Singles Energy            =      -0.0000000000000000 [Eh]
	 Same-Spin Energy          =      -0.3099942797328616 [Eh]
	 Opposite-Spin Energy      =      -1.0971942429940846 [Eh]
	 Correlation Energy        =      -1.4071885227269463 [Eh]
	 Total Energy              =    -291.0857078519410379 [Eh]

	 ================> DF-SCS-MP2 Energies <==================
	-----------------------------------------------------------
	 SCS Same-Spin Scale       =       0.3333333333333333 [-]
	 SCS Opposite-Spin Scale   =       1.2000000000000000 [-]
	 SCS Same-Spin Energy      =      -0.1033314265776205 [Eh]
	 SCS Opposite-Spin Energy  =      -1.3166330915929014 [Eh]
	 SCS Correlation Energy    =      -1.4199645181705220 [Eh]
	 SCS Total Energy          =    -291.0984838473846139 [Eh]
	-----------------------------------------------------------

  Dipole Moment: [D]
     X:    -5.5084      Y:     0.0532      Z:    -1.9817     Total:     5.8542

*** Psi4 exiting successfully. Buy a developer a beer!
