                               Psi4 1.4a3.dev225

  ==> Input File <==

--------------------------------------------------------------------------
#psi4
#
memory 32 gb

molecule  {
1 1
  N       -1.8084550     0.0000000    -0.7896910
  C       -1.0774430     0.0000000     0.5533100
  C       -0.2407120    -1.2715670     0.6435230
  C       -0.2407120     1.2715670     0.6435240
  C        0.8236091    -1.1664021    -0.3481608
  C        0.9483630     1.2633510    -0.3226440
  C        1.7921720     0.0000000    -0.1500480
  H       -1.8788710     0.0000000     1.2988220
  H       -0.8715790    -2.1591400     0.5029120
  H        0.1300900    -1.3254650     1.6735610
  H        0.1300910     1.3254640     1.6735620
  H       -0.8715790     2.1591400     0.5029130
  H        0.6104140    -1.3458840    -1.3672040
  H        1.5530020    -2.1580160    -0.1459610
  H        1.5530010     2.1580160    -0.1459620
  H        0.6104120     1.3458830    -1.3672040
  H        2.2390370     0.0000010     0.8520310
  H        2.6220820     0.0000000    -0.8633810
  H       -1.1366960    -0.0000120    -1.5675160
  H       -2.4051950     0.8313860    -0.8944410
  H       -2.4052130    -0.8313750    -0.8944310
units angstrom
no_reorient  #important for SAPT in psi4, default
symmetry c1  #important for SAPT in psi4, default
}

set PROPERTIES_ORIGIN ["COM"]
properties('MP2/aug-cc-pvtz', properties = ['dipole'])
--------------------------------------------------------------------------

    Molecular point group: c1
  Charge       = 1
  Multiplicity = 1
  Basis Set: AUG-CC-PVTZ
    Blend: AUG-CC-PVTZ
  Basis Set: (AUG-CC-PVTZ AUX)
    Blend: AUG-CC-PVTZ-JKFIT

    Orbital Energies [Eh]
    ---------------------

    Doubly Occupied:

       1A    -15.874763     2A    -11.464625     3A    -11.391139
       4A    -11.390502     5A    -11.376396     6A    -11.369129
       7A    -11.360193     8A     -1.493237     9A     -1.286779
      10A     -1.179623    11A     -1.170314    12A     -1.013357
      13A     -1.000937    14A     -0.952856    15A     -0.934948
      16A     -0.920237    17A     -0.821038    18A     -0.818470
      19A     -0.760937    20A     -0.756387    21A     -0.705589
      22A     -0.697705    23A     -0.692725    24A     -0.680880
      25A     -0.648134    26A     -0.617759    27A     -0.602775
      28A     -0.560155

  @DF-RHF Final Energy:  -289.68302708443400

   => Energetics <=

    Nuclear Repulsion Energy =            348.7568227426795033
    One-Electron Energy =               -1071.7965248024988796
    Two-Electron Energy =                 433.3566749753853173
    Total Energy =                       -289.6830270844340021
  Basis Set: (AUG-CC-PVTZ AUX)
    Blend: AUG-CC-PVTZ-RI
    Molecular point group: c1

    Geometry (in Angstrom), charge = 1, multiplicity = 1:

       Center              X                  Y                   Z               Mass
    ------------   -----------------  -----------------  -----------------  -----------------
         N           -1.794645004843    -0.011620760026    -0.793964600608    14.003074004430
         C           -1.063633004843    -0.011620760026     0.549036399392    12.000000000000
         C           -0.226902004843    -1.283187760026     0.639249399392    12.000000000000
         C           -0.226902004843     1.259946239974     0.639250399392    12.000000000000
         C            0.837419095157    -1.178022860026    -0.352434400608    12.000000000000
         C            0.962172995157     1.251730239974    -0.326917600608    12.000000000000
         C            1.805981995157    -0.011620760026    -0.154321600608    12.000000000000
         H           -1.865061004843    -0.011620760026     1.294548399392     1.007825032230
         H           -0.857769004843    -2.170760760026     0.498638399392     1.007825032230
         H            0.143899995157    -1.337085760026     1.669287399392     1.007825032230
         H            0.143900995157     1.313843239974     1.669288399392     1.007825032230
         H           -0.857769004843     2.147519239974     0.498639399392     1.007825032230
         H            0.624223995157    -1.357504760026    -1.371477600608     1.007825032230
         H            1.566811995157    -2.169636760026    -0.150234600608     1.007825032230
         H            1.566810995157     2.146395239974    -0.150235600608     1.007825032230
         H            0.624221995157     1.334262239974    -1.371477600608     1.007825032230
         H            2.252846995157    -0.011619760026     0.847757399392     1.007825032230
         H            2.635891995157    -0.011620760026    -0.867654600608     1.007825032230
         H           -1.122886004843    -0.011632760026    -1.571789600608     1.007825032230
         H           -2.391385004843     0.819765239974    -0.898714600608     1.007825032230
         H           -2.391403004843    -0.842995760026    -0.898704600608     1.007825032230

  Basis Set: AUG-CC-PVTZ
    Blend: AUG-CC-PVTZ
  Basis Set: (AUG-CC-PVTZ AUX)
    Blend: AUG-CC-PVTZ-JKFIT
	 Reference Energy          =    -289.6830270844340021 [Eh]
	 Singles Energy            =      -0.0000000000000000 [Eh]
	 Same-Spin Energy          =      -0.3093654050087218 [Eh]
	 Opposite-Spin Energy      =      -1.0966096107709800 [Eh]
	 Correlation Energy        =      -1.4059750157797017 [Eh]
	 Total Energy              =    -291.0890021002136905 [Eh]

	 ================> DF-SCS-MP2 Energies <==================
	-----------------------------------------------------------
	 SCS Same-Spin Scale       =       0.3333333333333333 [-]
	 SCS Opposite-Spin Scale   =       1.2000000000000000 [-]
	 SCS Same-Spin Energy      =      -0.1031218016695739 [Eh]
	 SCS Opposite-Spin Energy  =      -1.3159315329251760 [Eh]
	 SCS Correlation Energy    =      -1.4190533345947498 [Eh]
	 SCS Total Energy          =    -291.1020804190287663 [Eh]
	-----------------------------------------------------------

  Dipole Moment: [D]
     X:    -5.5373      Y:    -0.0651      Z:    -2.0414     Total:     5.9020

*** Psi4 exiting successfully. Buy a developer a beer!
