                               Psi4 1.4a3.dev225

  ==> Input File <==

--------------------------------------------------------------------------
#psi4
#
memory 32 gb

molecule  {
1 1
  N       -1.8084550     0.0000000    -0.7896910
  C       -0.9752664     0.0492519     0.4410206
  C       -0.2407120    -1.2715670     0.6435230
  C       -0.2407120     1.2715670     0.6435240
  C        0.9483640    -1.2633510    -0.3226430
  C        0.9483630     1.2633510    -0.3226440
  C        1.7921720     0.0000000    -0.1500480
  H       -1.8788710     0.0000000     1.2988220
  H       -0.8715790    -2.1591400     0.5029120
  H        0.1300900    -1.3254650     1.6735610
  H        0.1300910     1.3254640     1.6735620
  H       -0.8715790     2.1591400     0.5029130
  H        0.6104140    -1.3458840    -1.3672040
  H        1.5530020    -2.1580160    -0.1459610
  H        1.5530010     2.1580160    -0.1459620
  H        0.6104120     1.3458830    -1.3672040
  H        2.2390370     0.0000010     0.8520310
  H        2.6220820     0.0000000    -0.8633810
  H       -1.1366960    -0.0000120    -1.5675160
  H       -2.4051950     0.8313860    -0.8944410
  H       -2.4052130    -0.8313750    -0.8944310
units angstrom
no_reorient  #important for SAPT in psi4, default
symmetry c1  #important for SAPT in psi4, default
}

set PROPERTIES_ORIGIN ["COM"]
properties('MP2/aug-cc-pvtz', properties = ['dipole'])
--------------------------------------------------------------------------

    Molecular point group: c1
  Charge       = 1
  Multiplicity = 1
  Basis Set: AUG-CC-PVTZ
    Blend: AUG-CC-PVTZ
  Basis Set: (AUG-CC-PVTZ AUX)
    Blend: AUG-CC-PVTZ-JKFIT

    Orbital Energies [Eh]
    ---------------------

    Doubly Occupied:

       1A    -15.882091     2A    -11.472142     3A    -11.391690
       4A    -11.387904     5A    -11.370829     6A    -11.369438
       7A    -11.358517     8A     -1.506906     9A     -1.288733
      10A     -1.182186    11A     -1.166482    12A     -1.010414
      13A     -1.003643    14A     -0.966328    15A     -0.941357
      16A     -0.919946    17A     -0.833004    18A     -0.791846
      19A     -0.766226    20A     -0.758262    21A     -0.714424
      22A     -0.695151    23A     -0.681600    24A     -0.674153
      25A     -0.650273    26A     -0.611578    27A     -0.599420
      28A     -0.573792

  @DF-RHF Final Energy:  -289.68024217797802

   => Energetics <=

    Nuclear Repulsion Energy =            348.8048095732086153
    One-Electron Energy =               -1071.8334358636823254
    Two-Electron Energy =                 433.3483841124957507
    Total Energy =                       -289.6802421779780161
  Basis Set: (AUG-CC-PVTZ AUX)
    Blend: AUG-CC-PVTZ-RI
    Molecular point group: c1

    Geometry (in Angstrom), charge = 1, multiplicity = 1:

       Center              X                  Y                   Z               Mass
    ------------   -----------------  -----------------  -----------------  -----------------
         N           -1.821846149702    -0.005903558992    -0.783563722541    14.003074004430
         C           -0.988657549702     0.043348341008     0.447147877459    12.000000000000
         C           -0.254103149702    -1.277470558992     0.649650277459    12.000000000000
         C           -0.254103149702     1.265663441008     0.649651277459    12.000000000000
         C            0.934972850298    -1.269254558992    -0.316515722541    12.000000000000
         C            0.934971850298     1.257447441008    -0.316516722541    12.000000000000
         C            1.778780850298    -0.005903558992    -0.143920722541    12.000000000000
         H           -1.892262149702    -0.005903558992     1.304949277459     1.007825032230
         H           -0.884970149702    -2.165043558992     0.509039277459     1.007825032230
         H            0.116698850298    -1.331368558992     1.679688277459     1.007825032230
         H            0.116699850298     1.319560441008     1.679689277459     1.007825032230
         H           -0.884970149702     2.153236441008     0.509040277459     1.007825032230
         H            0.597022850298    -1.351787558992    -1.361076722541     1.007825032230
         H            1.539610850298    -2.163919558992    -0.139833722541     1.007825032230
         H            1.539609850298     2.152112441008    -0.139834722541     1.007825032230
         H            0.597020850298     1.339979441008    -1.361076722541     1.007825032230
         H            2.225645850298    -0.005902558992     0.858158277459     1.007825032230
         H            2.608690850298    -0.005903558992    -0.857253722541     1.007825032230
         H           -1.150087149702    -0.005915558992    -1.561388722541     1.007825032230
         H           -2.418586149702     0.825482441008    -0.888313722541     1.007825032230
         H           -2.418604149702    -0.837278558992    -0.888303722541     1.007825032230

  Basis Set: AUG-CC-PVTZ
    Blend: AUG-CC-PVTZ
  Basis Set: (AUG-CC-PVTZ AUX)
    Blend: AUG-CC-PVTZ-JKFIT
	 Reference Energy          =    -289.6802421779780161 [Eh]
	 Singles Energy            =      -0.0000000000000000 [Eh]
	 Same-Spin Energy          =      -0.3096033079174976 [Eh]
	 Opposite-Spin Energy      =      -1.0968501358700529 [Eh]
	 Correlation Energy        =      -1.4064534437875504 [Eh]
	 Total Energy              =    -291.0866956217655570 [Eh]

	 ================> DF-SCS-MP2 Energies <==================
	-----------------------------------------------------------
	 SCS Same-Spin Scale       =       0.3333333333333333 [-]
	 SCS Opposite-Spin Scale   =       1.2000000000000000 [-]
	 SCS Same-Spin Energy      =      -0.1032011026391659 [Eh]
	 SCS Opposite-Spin Energy  =      -1.3162201630440633 [Eh]
	 SCS Correlation Energy    =      -1.4194212656832292 [Eh]
	 SCS Total Energy          =    -291.0996634436612567 [Eh]
	-----------------------------------------------------------

  Dipole Moment: [D]
     X:    -5.5992      Y:     0.0206      Z:    -2.1460     Total:     5.9965

*** Psi4 exiting successfully. Buy a developer a beer!
