                               Psi4 1.4a3.dev225

  ==> Input File <==

--------------------------------------------------------------------------
#psi4
#
memory 32 gb

molecule  {
1 1
  N       -1.8084550     0.0000000    -0.7896910
  C       -1.0774430     0.0000000     0.5533100
  C       -0.2407120    -1.2715670     0.6435230
  C       -0.2407120     1.2715670     0.6435240
  C        0.9483640    -1.2633510    -0.3226430
  C        0.9483630     1.2633510    -0.3226440
  C        1.7921720     0.0000000    -0.1500480
  H       -1.8788710     0.0000000     1.2988220
  H       -0.8715790    -2.1591400     0.5029120
  H        0.1300900    -1.3254650     1.6735610
  H        0.1470061     1.3279226     1.7205496
  H       -0.8715790     2.1591400     0.5029130
  H        0.6104140    -1.3458840    -1.3672040
  H        1.5530020    -2.1580160    -0.1459610
  H        1.5530010     2.1580160    -0.1459620
  H        0.6104120     1.3458830    -1.3672040
  H        2.2390370     0.0000010     0.8520310
  H        2.6220820     0.0000000    -0.8633810
  H       -1.1366960    -0.0000120    -1.5675160
  H       -2.4051950     0.8313860    -0.8944410
  H       -2.4052130    -0.8313750    -0.8944310
units angstrom
no_reorient  #important for SAPT in psi4, default
symmetry c1  #important for SAPT in psi4, default
}

set PROPERTIES_ORIGIN ["COM"]
properties('MP2/aug-cc-pvtz', properties = ['dipole'])
--------------------------------------------------------------------------

    Molecular point group: c1
  Charge       = 1
  Multiplicity = 1
  Basis Set: AUG-CC-PVTZ
    Blend: AUG-CC-PVTZ
  Basis Set: (AUG-CC-PVTZ AUX)
    Blend: AUG-CC-PVTZ-JKFIT

    Orbital Energies [Eh]
    ---------------------

    Doubly Occupied:

       1A    -15.874787     2A    -11.467046     3A    -11.396009
       4A    -11.390412     5A    -11.372033     6A    -11.371660
       7A    -11.357872     8A     -1.492675     9A     -1.276926
      10A     -1.171698    11A     -1.170243    12A     -1.009578
      13A     -1.005286    14A     -0.950521    15A     -0.933634
      16A     -0.917087    17A     -0.815599    18A     -0.813953
      19A     -0.764001    20A     -0.753528    21A     -0.698545
      22A     -0.696369    23A     -0.686395    24A     -0.683606
      25A     -0.643217    26A     -0.610656    27A     -0.595660
      28A     -0.595102

  @DF-RHF Final Energy:  -289.70756025300034

   => Energetics <=

    Nuclear Repulsion Energy =            346.4607428386614174
    One-Electron Energy =               -1067.3084108038724480
    Two-Electron Energy =                 431.1401077122106926
    Total Energy =                       -289.7075602530003380
  Basis Set: (AUG-CC-PVTZ AUX)
    Blend: AUG-CC-PVTZ-RI
    Molecular point group: c1

    Geometry (in Angstrom), charge = 1, multiplicity = 1:

       Center              X                  Y                   Z               Mass
    ------------   -----------------  -----------------  -----------------  -----------------
         N           -1.809769034099    -0.000024730377    -0.797496311833    14.003074004430
         C           -1.078757034099    -0.000024730377     0.545504688167    12.000000000000
         C           -0.242026034099    -1.271591730377     0.635717688167    12.000000000000
         C           -0.242026034099     1.271542269623     0.635718688167    12.000000000000
         C            0.947049965901    -1.263375730377    -0.330448311833    12.000000000000
         C            0.947048965901     1.263326269623    -0.330449311833    12.000000000000
         C            1.790857965901    -0.000024730377    -0.157853311833    12.000000000000
         H           -1.880185034099    -0.000024730377     1.291016688167     1.007825032230
         H           -0.872893034099    -2.159164730377     0.495106688167     1.007825032230
         H            0.128775965901    -1.325489730377     1.665755688167     1.007825032230
         H            0.145692065901     1.327897869623     1.712744288167     1.007825032230
         H           -0.872893034099     2.159115269623     0.495107688167     1.007825032230
         H            0.609099965901    -1.345908730377    -1.375009311833     1.007825032230
         H            1.551687965901    -2.158040730377    -0.153766311833     1.007825032230
         H            1.551686965901     2.157991269623    -0.153767311833     1.007825032230
         H            0.609097965901     1.345858269623    -1.375009311833     1.007825032230
         H            2.237722965901    -0.000023730377     0.844225688167     1.007825032230
         H            2.620767965901    -0.000024730377    -0.871186311833     1.007825032230
         H           -1.138010034099    -0.000036730377    -1.575321311833     1.007825032230
         H           -2.406509034099     0.831361269623    -0.902246311833     1.007825032230
         H           -2.406527034099    -0.831399730377    -0.902236311833     1.007825032230

  Basis Set: AUG-CC-PVTZ
    Blend: AUG-CC-PVTZ
  Basis Set: (AUG-CC-PVTZ AUX)
    Blend: AUG-CC-PVTZ-JKFIT
	 Reference Energy          =    -289.7075602530003380 [Eh]
	 Singles Energy            =      -0.0000000000000000 [Eh]
	 Same-Spin Energy          =      -0.3076964898514067 [Eh]
	 Opposite-Spin Energy      =      -1.0942971302253681 [Eh]
	 Correlation Energy        =      -1.4019936200767749 [Eh]
	 Total Energy              =    -291.1095538730771182 [Eh]

	 ================> DF-SCS-MP2 Energies <==================
	-----------------------------------------------------------
	 SCS Same-Spin Scale       =       0.3333333333333333 [-]
	 SCS Opposite-Spin Scale   =       1.2000000000000000 [-]
	 SCS Same-Spin Energy      =      -0.1025654966171356 [Eh]
	 SCS Opposite-Spin Energy  =      -1.3131565562704417 [Eh]
	 SCS Correlation Energy    =      -1.4157220528875774 [Eh]
	 SCS Total Energy          =    -291.1232823058879262 [Eh]
	-----------------------------------------------------------

  Dipole Moment: [D]
     X:    -5.5980      Y:     0.0022      Z:    -2.0618     Total:     5.9656

*** Psi4 exiting successfully. Buy a developer a beer!
