                               Psi4 1.4a3.dev225

  ==> Input File <==

--------------------------------------------------------------------------
#psi4
#
memory 32 gb

molecule  {
1 1
  N       -1.8084550     0.0000000    -0.7896910
  C       -1.0774430     0.0000000     0.5533100
  C       -0.2407120    -1.2715670     0.6435230
  C       -0.2407120     1.2715670     0.6435240
  C        0.9483640    -1.2633510    -0.3226430
  C        0.9483630     1.2633510    -0.3226440
  C        1.7921720     0.0000000    -0.1500480
  H       -1.8935148     0.0000000     1.3124441
  H       -0.8715790    -2.1591400     0.5029120
  H        0.1300900    -1.3254650     1.6735610
  H        0.1300910     1.3254640     1.6735620
  H       -0.8715790     2.1591400     0.5029130
  H        0.6104140    -1.3458840    -1.3672040
  H        1.5530020    -2.1580160    -0.1459610
  H        1.5530010     2.1580160    -0.1459620
  H        0.6104120     1.3458830    -1.3672040
  H        2.2390370     0.0000010     0.8520310
  H        2.6220820     0.0000000    -0.8633810
  H       -1.1366960    -0.0000120    -1.5675160
  H       -2.4051950     0.8313860    -0.8944410
  H       -2.4052130    -0.8313750    -0.8944310
units angstrom
no_reorient  #important for SAPT in psi4, default
symmetry c1  #important for SAPT in psi4, default
}

set PROPERTIES_ORIGIN ["COM"]
properties('MP2/aug-cc-pvtz', properties = ['dipole'])
--------------------------------------------------------------------------

    Molecular point group: c1
  Charge       = 1
  Multiplicity = 1
  Basis Set: AUG-CC-PVTZ
    Blend: AUG-CC-PVTZ
  Basis Set: (AUG-CC-PVTZ AUX)
    Blend: AUG-CC-PVTZ-JKFIT

    Orbital Energies [Eh]
    ---------------------

    Doubly Occupied:

       1A    -15.874638     2A    -11.468944     3A    -11.390595
       4A    -11.390583     5A    -11.371758     6A    -11.371754
       7A    -11.357941     8A     -1.492345     9A     -1.277450
      10A     -1.172752    11A     -1.169845    12A     -1.008790
      13A     -1.006365    14A     -0.950946    15A     -0.934301
      16A     -0.918356    17A     -0.815350    18A     -0.811344
      19A     -0.763744    20A     -0.756420    21A     -0.697593
      22A     -0.696260    23A     -0.687157    24A     -0.686177
      25A     -0.646616    26A     -0.611026    27A     -0.595624
      28A     -0.594549

  @DF-RHF Final Energy:  -289.70914019033881

   => Energetics <=

    Nuclear Repulsion Energy =            346.5914563494068830
    One-Electron Energy =               -1067.5627456376435021
    Two-Electron Energy =                 431.2621490978978613
    Total Energy =                       -289.7091401903388146
  Basis Set: (AUG-CC-PVTZ AUX)
    Blend: AUG-CC-PVTZ-RI
    Molecular point group: c1

    Geometry (in Angstrom), charge = 1, multiplicity = 1:

       Center              X                  Y                   Z               Mass
    ------------   -----------------  -----------------  -----------------  -----------------
         N           -1.809451333414     0.000000020134    -0.797160424263    14.003074004430
         C           -1.078439333414     0.000000020134     0.545840575737    12.000000000000
         C           -0.241708333414    -1.271566979866     0.636053575737    12.000000000000
         C           -0.241708333414     1.271567020134     0.636054575737    12.000000000000
         C            0.947367666586    -1.263350979866    -0.330112424263    12.000000000000
         C            0.947366666586     1.263351020134    -0.330113424263    12.000000000000
         C            1.791175666586     0.000000020134    -0.157517424263    12.000000000000
         H           -1.894511133414     0.000000020134     1.304974675737     1.007825032230
         H           -0.872575333414    -2.159139979866     0.495442575737     1.007825032230
         H            0.129093666586    -1.325464979866     1.666091575737     1.007825032230
         H            0.129094666586     1.325464020134     1.666092575737     1.007825032230
         H           -0.872575333414     2.159140020134     0.495443575737     1.007825032230
         H            0.609417666586    -1.345883979866    -1.374673424263     1.007825032230
         H            1.552005666586    -2.158015979866    -0.153430424263     1.007825032230
         H            1.552004666586     2.158016020134    -0.153431424263     1.007825032230
         H            0.609415666586     1.345883020134    -1.374673424263     1.007825032230
         H            2.238040666586     0.000001020134     0.844561575737     1.007825032230
         H            2.621085666586     0.000000020134    -0.870850424263     1.007825032230
         H           -1.137692333414    -0.000011979866    -1.574985424263     1.007825032230
         H           -2.406191333414     0.831386020134    -0.901910424263     1.007825032230
         H           -2.406209333414    -0.831374979866    -0.901900424263     1.007825032230

  Basis Set: AUG-CC-PVTZ
    Blend: AUG-CC-PVTZ
  Basis Set: (AUG-CC-PVTZ AUX)
    Blend: AUG-CC-PVTZ-JKFIT
	 Reference Energy          =    -289.7091401903388146 [Eh]
	 Singles Energy            =      -0.0000000000000000 [Eh]
	 Same-Spin Energy          =      -0.3076744735549338 [Eh]
	 Opposite-Spin Energy      =      -1.0940763744380555 [Eh]
	 Correlation Energy        =      -1.4017508479929892 [Eh]
	 Total Energy              =    -291.1108910383318289 [Eh]

	 ================> DF-SCS-MP2 Energies <==================
	-----------------------------------------------------------
	 SCS Same-Spin Scale       =       0.3333333333333333 [-]
	 SCS Opposite-Spin Scale   =       1.2000000000000000 [-]
	 SCS Same-Spin Energy      =      -0.1025581578516446 [Eh]
	 SCS Opposite-Spin Energy  =      -1.3128916493256666 [Eh]
	 SCS Correlation Energy    =      -1.4154498071773112 [Eh]
	 SCS Total Energy          =    -291.1245899975161251 [Eh]
	-----------------------------------------------------------

  Dipole Moment: [D]
     X:    -5.5933      Y:    -0.0000      Z:    -2.0526     Total:     5.9581

*** Psi4 exiting successfully. Buy a developer a beer!
