                               Psi4 1.4a3.dev225

  ==> Input File <==

--------------------------------------------------------------------------
#psi4
#
memory 32 gb

molecule  {
1 1
  N       -1.8084550     0.0000000    -0.7896910
  C       -1.0774430     0.0000000     0.5533100
  C       -0.2407120    -1.2715670     0.6435230
  C       -0.2407120     1.2715670     0.6435240
  C        0.9483640    -1.2633510    -0.3226430
  C        0.9483630     1.2633510    -0.3226440
  C        1.7921720     0.0000000    -0.1500480
  H       -1.8788710     0.0000000     1.2988220
  H       -0.8715790    -2.1591400     0.5029120
  H        0.1300900    -1.3254650     1.6735610
  H        0.0624308     1.3156294     1.4856115
  H       -0.8715790     2.1591400     0.5029130
  H        0.6104140    -1.3458840    -1.3672040
  H        1.5530020    -2.1580160    -0.1459610
  H        1.5530010     2.1580160    -0.1459620
  H        0.6104120     1.3458830    -1.3672040
  H        2.2390370     0.0000010     0.8520310
  H        2.6220820     0.0000000    -0.8633810
  H       -1.1366960    -0.0000120    -1.5675160
  H       -2.4051950     0.8313860    -0.8944410
  H       -2.4052130    -0.8313750    -0.8944310
units angstrom
no_reorient  #important for SAPT in psi4, default
symmetry c1  #important for SAPT in psi4, default
}

set PROPERTIES_ORIGIN ["COM"]
properties('MP2/aug-cc-pvtz', properties = ['dipole'])
--------------------------------------------------------------------------

    Molecular point group: c1
  Charge       = 1
  Multiplicity = 1
  Basis Set: AUG-CC-PVTZ
    Blend: AUG-CC-PVTZ
  Basis Set: (AUG-CC-PVTZ AUX)
    Blend: AUG-CC-PVTZ-JKFIT

    Orbital Energies [Eh]
    ---------------------

    Doubly Occupied:

       1A    -15.873982     2A    -11.466152     3A    -11.390873
       4A    -11.371762     5A    -11.370704     6A    -11.367237
       7A    -11.357992     8A     -1.491832     9A     -1.282793
      10A     -1.182200    11A     -1.170789    12A     -1.020652
      13A     -1.007711    14A     -0.955222    15A     -0.938128
      16A     -0.922328    17A     -0.815655    18A     -0.814165
      19A     -0.772694    20A     -0.763359    21A     -0.704413
      22A     -0.696447    23A     -0.695286    24A     -0.685610
      25A     -0.654204    26A     -0.611721    27A     -0.595318
      28A     -0.594604

  @DF-RHF Final Energy:  -289.67662662709461

   => Energetics <=

    Nuclear Repulsion Energy =            347.7992518546690803
    One-Electron Energy =               -1069.8040904574841079
    Two-Electron Energy =                 432.3282119757203645
    Total Energy =                       -289.6766266270946062
  Basis Set: (AUG-CC-PVTZ AUX)
    Blend: AUG-CC-PVTZ-RI
    Molecular point group: c1

    Geometry (in Angstrom), charge = 1, multiplicity = 1:

       Center              X                  Y                   Z               Mass
    ------------   -----------------  -----------------  -----------------  -----------------
         N           -1.808917621953     0.000099024192    -0.795131210533    14.003074004430
         C           -1.077905621953     0.000099024192     0.547869789467    12.000000000000
         C           -0.241174621953    -1.271467975808     0.638082789467    12.000000000000
         C           -0.241174621953     1.271666024192     0.638083789467    12.000000000000
         C            0.947901378047    -1.263251975808    -0.328083210533    12.000000000000
         C            0.947900378047     1.263450024192    -0.328084210533    12.000000000000
         C            1.791709378047     0.000099024192    -0.155488210533    12.000000000000
         H           -1.879333621953     0.000099024192     1.293381789467     1.007825032230
         H           -0.872041621953    -2.159040975808     0.497471789467     1.007825032230
         H            0.129627378047    -1.325365975808     1.668120789467     1.007825032230
         H            0.061968178047     1.315728424192     1.480171289467     1.007825032230
         H           -0.872041621953     2.159239024192     0.497472789467     1.007825032230
         H            0.609951378047    -1.345784975808    -1.372644210533     1.007825032230
         H            1.552539378047    -2.157916975808    -0.151401210533     1.007825032230
         H            1.552538378047     2.158115024192    -0.151402210533     1.007825032230
         H            0.609949378047     1.345982024192    -1.372644210533     1.007825032230
         H            2.238574378047     0.000100024192     0.846590789467     1.007825032230
         H            2.621619378047     0.000099024192    -0.868821210533     1.007825032230
         H           -1.137158621953     0.000087024192    -1.572956210533     1.007825032230
         H           -2.405657621953     0.831485024192    -0.899881210533     1.007825032230
         H           -2.405675621953    -0.831275975808    -0.899871210533     1.007825032230

  Basis Set: AUG-CC-PVTZ
    Blend: AUG-CC-PVTZ
  Basis Set: (AUG-CC-PVTZ AUX)
    Blend: AUG-CC-PVTZ-JKFIT
	 Reference Energy          =    -289.6766266270946062 [Eh]
	 Singles Energy            =      -0.0000000000000000 [Eh]
	 Same-Spin Energy          =      -0.3075239307196933 [Eh]
	 Opposite-Spin Energy      =      -1.0930931335487604 [Eh]
	 Correlation Energy        =      -1.4006170642684537 [Eh]
	 Total Energy              =    -291.0772436913630372 [Eh]

	 ================> DF-SCS-MP2 Energies <==================
	-----------------------------------------------------------
	 SCS Same-Spin Scale       =       0.3333333333333333 [-]
	 SCS Opposite-Spin Scale   =       1.2000000000000000 [-]
	 SCS Same-Spin Energy      =      -0.1025079769065644 [Eh]
	 SCS Opposite-Spin Energy  =      -1.3117117602585124 [Eh]
	 SCS Correlation Energy    =      -1.4142197371650769 [Eh]
	 SCS Total Energy          =    -291.0908463642596757 [Eh]
	-----------------------------------------------------------

  Dipole Moment: [D]
     X:    -5.6096      Y:    -0.0138      Z:    -2.0309     Total:     5.9659

*** Psi4 exiting successfully. Buy a developer a beer!
