                               Psi4 1.4a3.dev225

  ==> Input File <==

--------------------------------------------------------------------------
#psi4
#
memory 32 gb

molecule  {
1 1
  N       -1.8084550     0.0000000    -0.7896910
  C       -1.0774430     0.0000000     0.5533100
  C       -0.2407120    -1.2715670     0.6435230
  C       -0.2407120     1.2715670     0.6435240
  C        0.9483640    -1.2633510    -0.3226430
  C        0.9483630     1.2633510    -0.3226440
  C        1.7707412    -0.0148196    -0.1558129
  H       -1.8788710     0.0000000     1.2988220
  H       -0.8715790    -2.1591400     0.5029120
  H        0.1300900    -1.3254650     1.6735610
  H        0.1300910     1.3254640     1.6735620
  H       -0.8715790     2.1591400     0.5029130
  H        0.6104140    -1.3458840    -1.3672040
  H        1.5530020    -2.1580160    -0.1459610
  H        1.5530010     2.1580160    -0.1459620
  H        0.6104120     1.3458830    -1.3672040
  H        2.2390370     0.0000010     0.8520310
  H        2.6220820     0.0000000    -0.8633810
  H       -1.1366960    -0.0000120    -1.5675160
  H       -2.4051950     0.8313860    -0.8944410
  H       -2.4052130    -0.8313750    -0.8944310
units angstrom
no_reorient  #important for SAPT in psi4, default
symmetry c1  #important for SAPT in psi4, default
}

set PROPERTIES_ORIGIN ["COM"]
properties('MP2/aug-cc-pvtz', properties = ['dipole'])
--------------------------------------------------------------------------

    Molecular point group: c1
  Charge       = 1
  Multiplicity = 1
  Basis Set: AUG-CC-PVTZ
    Blend: AUG-CC-PVTZ
  Basis Set: (AUG-CC-PVTZ AUX)
    Blend: AUG-CC-PVTZ-JKFIT

    Orbital Energies [Eh]
    ---------------------

    Doubly Occupied:

       1A    -15.874628     2A    -11.466941     3A    -11.390583
       4A    -11.390276     5A    -11.371900     6A    -11.371144
       7A    -11.358782     8A     -1.492538     9A     -1.279263
      10A     -1.174359    11A     -1.171362    12A     -1.009740
      13A     -1.007296    14A     -0.951114    15A     -0.934469
      16A     -0.917147    17A     -0.815461    18A     -0.814552
      19A     -0.763984    20A     -0.756721    21A     -0.699716
      22A     -0.697589    23A     -0.686930    24A     -0.686054
      25A     -0.646945    26A     -0.607613    27A     -0.599744
      28A     -0.591826

  @DF-RHF Final Energy:  -289.70866259731173

   => Energetics <=

    Nuclear Repulsion Energy =            347.0602908558874446
    One-Electron Energy =               -1068.4805592465593236
    Two-Electron Energy =                 431.7116057933602065
    Total Energy =                       -289.7086625973117293
  Basis Set: (AUG-CC-PVTZ AUX)
    Blend: AUG-CC-PVTZ-RI
    Molecular point group: c1

    Geometry (in Angstrom), charge = 1, multiplicity = 1:

       Center              X                  Y                   Z               Mass
    ------------   -----------------  -----------------  -----------------  -----------------
         N           -1.807029948368     0.001776371528    -0.796332282020    14.003074004430
         C           -1.076017948368     0.001776371528     0.546668717980    12.000000000000
         C           -0.239286948368    -1.269790628472     0.636881717980    12.000000000000
         C           -0.239286948368     1.273343371528     0.636882717980    12.000000000000
         C            0.949789051632    -1.261574628472    -0.329284282020    12.000000000000
         C            0.949788051632     1.265127371528    -0.329285282020    12.000000000000
         C            1.772166251632    -0.013043228472    -0.162454182020    12.000000000000
         H           -1.877445948368     0.001776371528     1.292180717980     1.007825032230
         H           -0.870153948368    -2.157363628472     0.496270717980     1.007825032230
         H            0.131515051632    -1.323688628472     1.666919717980     1.007825032230
         H            0.131516051632     1.327240371528     1.666920717980     1.007825032230
         H           -0.870153948368     2.160916371528     0.496271717980     1.007825032230
         H            0.611839051632    -1.344107628472    -1.373845282020     1.007825032230
         H            1.554427051632    -2.156239628472    -0.152602282020     1.007825032230
         H            1.554426051632     2.159792371528    -0.152603282020     1.007825032230
         H            0.611837051632     1.347659371528    -1.373845282020     1.007825032230
         H            2.240462051632     0.001777371528     0.845389717980     1.007825032230
         H            2.623507051632     0.001776371528    -0.870022282020     1.007825032230
         H           -1.135270948368     0.001764371528    -1.574157282020     1.007825032230
         H           -2.403769948368     0.833162371528    -0.901082282020     1.007825032230
         H           -2.403787948368    -0.829598628472    -0.901072282020     1.007825032230

  Basis Set: AUG-CC-PVTZ
    Blend: AUG-CC-PVTZ
  Basis Set: (AUG-CC-PVTZ AUX)
    Blend: AUG-CC-PVTZ-JKFIT
	 Reference Energy          =    -289.7086625973117293 [Eh]
	 Singles Energy            =      -0.0000000000000000 [Eh]
	 Same-Spin Energy          =      -0.3078531491699809 [Eh]
	 Opposite-Spin Energy      =      -1.0941291029774289 [Eh]
	 Correlation Energy        =      -1.4019822521474099 [Eh]
	 Total Energy              =    -291.1106448494591632 [Eh]

	 ================> DF-SCS-MP2 Energies <==================
	-----------------------------------------------------------
	 SCS Same-Spin Scale       =       0.3333333333333333 [-]
	 SCS Opposite-Spin Scale   =       1.2000000000000000 [-]
	 SCS Same-Spin Energy      =      -0.1026177163899936 [Eh]
	 SCS Opposite-Spin Energy  =      -1.3129549235729148 [Eh]
	 SCS Correlation Energy    =      -1.4155726399629083 [Eh]
	 SCS Total Energy          =    -291.1242352372746609 [Eh]
	-----------------------------------------------------------

  Dipole Moment: [D]
     X:    -5.5925      Y:     0.0024      Z:    -2.0515     Total:     5.9569

*** Psi4 exiting successfully. Buy a developer a beer!
