                               Psi4 1.4a3.dev225

  ==> Input File <==

--------------------------------------------------------------------------
#psi4
#
memory 32 gb

molecule  {
1 1
  N       -1.8084550     0.0000000    -0.7896910
  C       -1.0774430     0.0000000     0.5533100
  C       -0.2407120    -1.2715670     0.6435230
  C       -0.2407120     1.2715670     0.6435240
  C        0.9483640    -1.2633510    -0.3226430
  C        0.9483630     1.2633510    -0.3226440
  C        1.7921720     0.0000000    -0.1500480
  H       -1.8788710     0.0000000     1.2988220
  H       -0.8715790    -2.1591400     0.5029120
  H        0.1300900    -1.3254650     1.6735610
  H        0.1300910     1.3254640     1.6735620
  H       -0.8715790     2.1591400     0.5029130
  H        0.6104140    -1.3458840    -1.3672040
  H        1.5530020    -2.1580160    -0.1459610
  H        1.5590593     2.1460449    -0.1102041
  H        0.6104120     1.3458830    -1.3672040
  H        2.2390370     0.0000010     0.8520310
  H        2.6220820     0.0000000    -0.8633810
  H       -1.1366960    -0.0000120    -1.5675160
  H       -2.4051950     0.8313860    -0.8944410
  H       -2.4052130    -0.8313750    -0.8944310
units angstrom
no_reorient  #important for SAPT in psi4, default
symmetry c1  #important for SAPT in psi4, default
}

set PROPERTIES_ORIGIN ["COM"]
properties('MP2/aug-cc-pvtz', properties = ['dipole'])
--------------------------------------------------------------------------

    Molecular point group: c1
  Charge       = 1
  Multiplicity = 1
  Basis Set: AUG-CC-PVTZ
    Blend: AUG-CC-PVTZ
  Basis Set: (AUG-CC-PVTZ AUX)
    Blend: AUG-CC-PVTZ-JKFIT

    Orbital Energies [Eh]
    ---------------------

    Doubly Occupied:

       1A    -15.874623     2A    -11.466610     3A    -11.390430
       4A    -11.390311     5A    -11.371680     6A    -11.371523
       7A    -11.357717     8A     -1.492485     9A     -1.277664
      10A     -1.172752    11A     -1.170674    12A     -1.010129
      13A     -1.006113    14A     -0.951080    15A     -0.934286
      16A     -0.917845    17A     -0.815584    18A     -0.813454
      19A     -0.765195    20A     -0.756969    21A     -0.698213
      22A     -0.695861    23A     -0.687088    24A     -0.685720
      25A     -0.647336    26A     -0.611691    27A     -0.595065
      28A     -0.594287

  @DF-RHF Final Energy:  -289.70960215373606

   => Energetics <=

    Nuclear Repulsion Energy =            346.7241171836708418
    One-Electron Energy =               -1067.8226641551264038
    Two-Electron Energy =                 431.3889448177195050
    Total Energy =                       -289.7096021537360571
  Basis Set: (AUG-CC-PVTZ AUX)
    Blend: AUG-CC-PVTZ-RI
    Molecular point group: c1

    Geometry (in Angstrom), charge = 1, multiplicity = 1:

       Center              X                  Y                   Z               Mass
    ------------   -----------------  -----------------  -----------------  -----------------
         N           -1.809659739644     0.000120532150    -0.797383263425    14.003074004430
         C           -1.078647739644     0.000120532150     0.545617736575    12.000000000000
         C           -0.241916739644    -1.271446467850     0.635830736575    12.000000000000
         C           -0.241916739644     1.271687532150     0.635831736575    12.000000000000
         C            0.947159260356    -1.263230467850    -0.330335263425    12.000000000000
         C            0.947158260356     1.263471532150    -0.330336263425    12.000000000000
         C            1.790967260356     0.000120532150    -0.157740263425    12.000000000000
         H           -1.880075739644     0.000120532150     1.291129736575     1.007825032230
         H           -0.872783739644    -2.159019467850     0.495219736575     1.007825032230
         H            0.128885260356    -1.325344467850     1.665868736575     1.007825032230
         H            0.128886260356     1.325584532150     1.665869736575     1.007825032230
         H           -0.872783739644     2.159260532150     0.495220736575     1.007825032230
         H            0.609209260356    -1.345763467850    -1.374896263425     1.007825032230
         H            1.551797260356    -2.157895467850    -0.153653263425     1.007825032230
         H            1.557854560356     2.146165432150    -0.117896363425     1.007825032230
         H            0.609207260356     1.346003532150    -1.374896263425     1.007825032230
         H            2.237832260356     0.000121532150     0.844338736575     1.007825032230
         H            2.620877260356     0.000120532150    -0.871073263425     1.007825032230
         H           -1.137900739644     0.000108532150    -1.575208263425     1.007825032230
         H           -2.406399739644     0.831506532150    -0.902133263425     1.007825032230
         H           -2.406417739644    -0.831254467850    -0.902123263425     1.007825032230

  Basis Set: AUG-CC-PVTZ
    Blend: AUG-CC-PVTZ
  Basis Set: (AUG-CC-PVTZ AUX)
    Blend: AUG-CC-PVTZ-JKFIT
	 Reference Energy          =    -289.7096021537360571 [Eh]
	 Singles Energy            =      -0.0000000000000000 [Eh]
	 Same-Spin Energy          =      -0.3076383172403392 [Eh]
	 Opposite-Spin Energy      =      -1.0939351473545589 [Eh]
	 Correlation Energy        =      -1.4015734645948981 [Eh]
	 Total Energy              =    -291.1111756183309467 [Eh]

	 ================> DF-SCS-MP2 Energies <==================
	-----------------------------------------------------------
	 SCS Same-Spin Scale       =       0.3333333333333333 [-]
	 SCS Opposite-Spin Scale   =       1.2000000000000000 [-]
	 SCS Same-Spin Energy      =      -0.1025461057467797 [Eh]
	 SCS Opposite-Spin Energy  =      -1.3127221768254707 [Eh]
	 SCS Correlation Energy    =      -1.4152682825722505 [Eh]
	 SCS Total Energy          =    -291.1248704363082993 [Eh]
	-----------------------------------------------------------

  Dipole Moment: [D]
     X:    -5.5988      Y:    -0.0038      Z:    -2.0418     Total:     5.9595

*** Psi4 exiting successfully. Buy a developer a beer!
