                               Psi4 1.4a3.dev225

  ==> Input File <==

--------------------------------------------------------------------------
#psi4
#
memory 32 gb

molecule  {
1 1
  N       -1.8084550     0.0000000    -0.7896910
  C       -1.0774430     0.0000000     0.5533100
  C       -0.2407120    -1.2715670     0.6435230
  C       -0.2407120     1.2715670     0.6435240
  C        0.9483640    -1.2633510    -0.3226430
  C        0.9483630     1.2633510    -0.3226440
  C        1.7921720     0.0000000    -0.1500480
  H       -1.8422616     0.0000000     1.2647669
  H       -0.8715790    -2.1591400     0.5029120
  H        0.1300900    -1.3254650     1.6735610
  H        0.1300910     1.3254640     1.6735620
  H       -0.8715790     2.1591400     0.5029130
  H        0.6104140    -1.3458840    -1.3672040
  H        1.5530020    -2.1580160    -0.1459610
  H        1.5530010     2.1580160    -0.1459620
  H        0.6104120     1.3458830    -1.3672040
  H        2.2390370     0.0000010     0.8520310
  H        2.6220820     0.0000000    -0.8633810
  H       -1.1366960    -0.0000120    -1.5675160
  H       -2.4051950     0.8313860    -0.8944410
  H       -2.4052130    -0.8313750    -0.8944310
units angstrom
no_reorient  #important for SAPT in psi4, default
symmetry c1  #important for SAPT in psi4, default
}

set PROPERTIES_ORIGIN ["COM"]
properties('MP2/aug-cc-pvtz', properties = ['dipole'])
--------------------------------------------------------------------------

    Molecular point group: c1
  Charge       = 1
  Multiplicity = 1
  Basis Set: AUG-CC-PVTZ
    Blend: AUG-CC-PVTZ
  Basis Set: (AUG-CC-PVTZ AUX)
    Blend: AUG-CC-PVTZ-JKFIT

    Orbital Energies [Eh]
    ---------------------

    Doubly Occupied:

       1A    -15.874329     2A    -11.461225     3A    -11.390284
       4A    -11.390272     5A    -11.371464     6A    -11.371461
       7A    -11.357742     8A     -1.492690     9A     -1.278204
      10A     -1.173057    11A     -1.172498    12A     -1.013898
      13A     -1.006228    14A     -0.951035    15A     -0.934257
      16A     -0.918503    17A     -0.821822    18A     -0.814870
      19A     -0.764737    20A     -0.756212    21A     -0.701270
      22A     -0.695927    23A     -0.686955    24A     -0.686106
      25A     -0.646435    26A     -0.610997    27A     -0.595815
      28A     -0.595353

  @DF-RHF Final Energy:  -289.70902923502115

   => Energetics <=

    Nuclear Repulsion Energy =            346.9753610487309174
    One-Electron Energy =               -1068.3014881035990129
    Two-Electron Energy =                 431.6170978198468902
    Total Energy =                       -289.7090292350211485
  Basis Set: (AUG-CC-PVTZ AUX)
    Blend: AUG-CC-PVTZ-RI
    Molecular point group: c1

    Geometry (in Angstrom), charge = 1, multiplicity = 1:

       Center              X                  Y                   Z               Mass
    ------------   -----------------  -----------------  -----------------  -----------------
         N           -1.809967294895     0.000000020134    -0.796680462062    14.003074004430
         C           -1.078955294895     0.000000020134     0.546320537938    12.000000000000
         C           -0.242224294895    -1.271566979866     0.636533537938    12.000000000000
         C           -0.242224294895     1.271567020134     0.636534537938    12.000000000000
         C            0.946851705105    -1.263350979866    -0.329632462062    12.000000000000
         C            0.946850705105     1.263351020134    -0.329633462062    12.000000000000
         C            1.790659705105     0.000000020134    -0.157037462062    12.000000000000
         H           -1.843773894895     0.000000020134     1.257777437938     1.007825032230
         H           -0.873091294895    -2.159139979866     0.495922537938     1.007825032230
         H            0.128577705105    -1.325464979866     1.666571537938     1.007825032230
         H            0.128578705105     1.325464020134     1.666572537938     1.007825032230
         H           -0.873091294895     2.159140020134     0.495923537938     1.007825032230
         H            0.608901705105    -1.345883979866    -1.374193462062     1.007825032230
         H            1.551489705105    -2.158015979866    -0.152950462062     1.007825032230
         H            1.551488705105     2.158016020134    -0.152951462062     1.007825032230
         H            0.608899705105     1.345883020134    -1.374193462062     1.007825032230
         H            2.237524705105     0.000001020134     0.845041537938     1.007825032230
         H            2.620569705105     0.000000020134    -0.870370462062     1.007825032230
         H           -1.138208294895    -0.000011979866    -1.574505462062     1.007825032230
         H           -2.406707294895     0.831386020134    -0.901430462062     1.007825032230
         H           -2.406725294895    -0.831374979866    -0.901420462062     1.007825032230

  Basis Set: AUG-CC-PVTZ
    Blend: AUG-CC-PVTZ
  Basis Set: (AUG-CC-PVTZ AUX)
    Blend: AUG-CC-PVTZ-JKFIT
	 Reference Energy          =    -289.7090292350211485 [Eh]
	 Singles Energy            =      -0.0000000000000000 [Eh]
	 Same-Spin Energy          =      -0.3075486593054630 [Eh]
	 Opposite-Spin Energy      =      -1.0935037767180971 [Eh]
	 Correlation Energy        =      -1.4010524360235601 [Eh]
	 Total Energy              =    -291.1100816710447248 [Eh]

	 ================> DF-SCS-MP2 Energies <==================
	-----------------------------------------------------------
	 SCS Same-Spin Scale       =       0.3333333333333333 [-]
	 SCS Opposite-Spin Scale   =       1.2000000000000000 [-]
	 SCS Same-Spin Energy      =      -0.1025162197684877 [Eh]
	 SCS Opposite-Spin Energy  =      -1.3122045320617164 [Eh]
	 SCS Correlation Energy    =      -1.4147207518302041 [Eh]
	 SCS Total Energy          =    -291.1237499868513510 [Eh]
	-----------------------------------------------------------

  Dipole Moment: [D]
     X:    -5.6122      Y:    -0.0000      Z:    -2.0489     Total:     5.9745

*** Psi4 exiting successfully. Buy a developer a beer!
