                               Psi4 1.4a3.dev225

  ==> Input File <==

--------------------------------------------------------------------------
#psi4
#
memory 32 gb

molecule  {
1 1
  N       -1.8084550     0.0000000    -0.7896910
  C       -1.0774430     0.0000000     0.5533100
  C       -0.2407120    -1.2715670     0.6435230
  C       -0.2407120     1.2715670     0.6435240
  C        0.9483640    -1.2633510    -0.3226430
  C        0.9483630     1.2633510    -0.3226440
  C        1.7921720     0.0000000    -0.1500480
  H       -1.8788710     0.0000000     1.2988220
  H       -0.8715790    -2.1591400     0.5029120
  H        0.1300900    -1.3254650     1.6735610
  H        0.1300910     1.3254640     1.6735620
  H       -0.8715790     2.1591400     0.5029130
  H        0.6104140    -1.3458840    -1.3672040
  H        1.5530020    -2.1580160    -0.1459610
  H        1.5253713     2.1171331    -0.1540357
  H        0.6104120     1.3458830    -1.3672040
  H        2.2390370     0.0000010     0.8520310
  H        2.6220820     0.0000000    -0.8633810
  H       -1.1366960    -0.0000120    -1.5675160
  H       -2.4051950     0.8313860    -0.8944410
  H       -2.4052130    -0.8313750    -0.8944310
units angstrom
no_reorient  #important for SAPT in psi4, default
symmetry c1  #important for SAPT in psi4, default
}

set PROPERTIES_ORIGIN ["COM"]
properties('MP2/aug-cc-pvtz', properties = ['dipole'])
--------------------------------------------------------------------------

    Molecular point group: c1
  Charge       = 1
  Multiplicity = 1
  Basis Set: AUG-CC-PVTZ
    Blend: AUG-CC-PVTZ
  Basis Set: (AUG-CC-PVTZ AUX)
    Blend: AUG-CC-PVTZ-JKFIT

    Orbital Energies [Eh]
    ---------------------

    Doubly Occupied:

       1A    -15.874375     2A    -11.466573     3A    -11.390315
       4A    -11.390241     5A    -11.371403     6A    -11.365925
       7A    -11.357600     8A     -1.492245     9A     -1.277878
      10A     -1.174134    11A     -1.170839    12A     -1.010467
      13A     -1.008494    14A     -0.950848    15A     -0.934288
      16A     -0.919722    17A     -0.815539    18A     -0.814772
      19A     -0.766938    20A     -0.756549    21A     -0.700352
      22A     -0.696528    23A     -0.687726    24A     -0.686493
      25A     -0.646740    26A     -0.611312    27A     -0.597862
      28A     -0.594771

  @DF-RHF Final Energy:  -289.70890083025154

   => Energetics <=

    Nuclear Repulsion Energy =            346.9580057072917612
    One-Electron Energy =               -1068.2719564461081063
    Two-Electron Energy =                 431.6050499085648653
    Total Energy =                       -289.7089008302515367
  Basis Set: (AUG-CC-PVTZ AUX)
    Blend: AUG-CC-PVTZ-RI
    Molecular point group: c1

    Geometry (in Angstrom), charge = 1, multiplicity = 1:

       Center              X                  Y                   Z               Mass
    ------------   -----------------  -----------------  -----------------  -----------------
         N           -1.809320605495     0.000411584712    -0.796942014542    14.003074004430
         C           -1.078308605495     0.000411584712     0.546058985458    12.000000000000
         C           -0.241577605495    -1.271155415288     0.636271985458    12.000000000000
         C           -0.241577605495     1.271978584712     0.636272985458    12.000000000000
         C            0.947498394505    -1.262939415288    -0.329894014542    12.000000000000
         C            0.947497394505     1.263762584712    -0.329895014542    12.000000000000
         C            1.791306394505     0.000411584712    -0.157299014542    12.000000000000
         H           -1.879736605495     0.000411584712     1.291570985458     1.007825032230
         H           -0.872444605495    -2.158728415288     0.495660985458     1.007825032230
         H            0.129224394505    -1.325053415288     1.666309985458     1.007825032230
         H            0.129225394505     1.325875584712     1.666310985458     1.007825032230
         H           -0.872444605495     2.159551584712     0.495661985458     1.007825032230
         H            0.609548394505    -1.345472415288    -1.374455014542     1.007825032230
         H            1.552136394505    -2.157604415288    -0.153212014542     1.007825032230
         H            1.524505694505     2.117544684712    -0.161286714542     1.007825032230
         H            0.609546394505     1.346294584712    -1.374455014542     1.007825032230
         H            2.238171394505     0.000412584712     0.844779985458     1.007825032230
         H            2.621216394505     0.000411584712    -0.870632014542     1.007825032230
         H           -1.137561605495     0.000399584712    -1.574767014542     1.007825032230
         H           -2.406060605495     0.831797584712    -0.901692014542     1.007825032230
         H           -2.406078605495    -0.830963415288    -0.901682014542     1.007825032230

  Basis Set: AUG-CC-PVTZ
    Blend: AUG-CC-PVTZ
  Basis Set: (AUG-CC-PVTZ AUX)
    Blend: AUG-CC-PVTZ-JKFIT
	 Reference Energy          =    -289.7089008302515367 [Eh]
	 Singles Energy            =      -0.0000000000000000 [Eh]
	 Same-Spin Energy          =      -0.3076000697509778 [Eh]
	 Opposite-Spin Energy      =      -1.0935675104006219 [Eh]
	 Correlation Energy        =      -1.4011675801515997 [Eh]
	 Total Energy              =    -291.1100684104031302 [Eh]

	 ================> DF-SCS-MP2 Energies <==================
	-----------------------------------------------------------
	 SCS Same-Spin Scale       =       0.3333333333333333 [-]
	 SCS Opposite-Spin Scale   =       1.2000000000000000 [-]
	 SCS Same-Spin Energy      =      -0.1025333565836593 [Eh]
	 SCS Opposite-Spin Energy  =      -1.3122810124807462 [Eh]
	 SCS Correlation Energy    =      -1.4148143690644055 [Eh]
	 SCS Total Energy          =    -291.1237151993159387 [Eh]
	-----------------------------------------------------------

  Dipole Moment: [D]
     X:    -5.5940      Y:     0.0149      Z:    -2.0533     Total:     5.9590

*** Psi4 exiting successfully. Buy a developer a beer!
