                               Psi4 1.4a3.dev225

  ==> Input File <==

--------------------------------------------------------------------------
#psi4
#
memory 32 gb

molecule  {
1 1
  N       -1.8084550     0.0000000    -0.7896910
  C       -1.0774430     0.0000000     0.5533100
  C       -0.2407120    -1.2715670     0.6435230
  C       -0.2407120     1.2715670     0.6435240
  C        0.9483640    -1.2633510    -0.3226430
  C        0.9483630     1.2633510    -0.3226440
  C        1.9025456    -0.1652513    -0.1274718
  H       -1.8788710     0.0000000     1.2988220
  H       -0.8715790    -2.1591400     0.5029120
  H        0.1300900    -1.3254650     1.6735610
  H        0.1300910     1.3254640     1.6735620
  H       -0.8715790     2.1591400     0.5029130
  H        0.6104140    -1.3458840    -1.3672040
  H        1.5530020    -2.1580160    -0.1459610
  H        1.5530010     2.1580160    -0.1459620
  H        0.6104120     1.3458830    -1.3672040
  H        2.2390370     0.0000010     0.8520310
  H        2.6220820     0.0000000    -0.8633810
  H       -1.1366960    -0.0000120    -1.5675160
  H       -2.4051950     0.8313860    -0.8944410
  H       -2.4052130    -0.8313750    -0.8944310
units angstrom
no_reorient  #important for SAPT in psi4, default
symmetry c1  #important for SAPT in psi4, default
}

set PROPERTIES_ORIGIN ["COM"]
properties('MP2/aug-cc-pvtz', properties = ['dipole'])
--------------------------------------------------------------------------

    Molecular point group: c1
  Charge       = 1
  Multiplicity = 1
  Basis Set: AUG-CC-PVTZ
    Blend: AUG-CC-PVTZ
  Basis Set: (AUG-CC-PVTZ AUX)
    Blend: AUG-CC-PVTZ-JKFIT

    Orbital Energies [Eh]
    ---------------------

    Doubly Occupied:

       1A    -15.874170     2A    -11.466108     3A    -11.393060
       4A    -11.389268     5A    -11.373006     6A    -11.371017
       7A    -11.359883     8A     -1.491965     9A     -1.272883
      10A     -1.180384    11A     -1.156796    12A     -1.018378
      13A     -0.996782    14A     -0.950382    15A     -0.933572
      16A     -0.923469    17A     -0.816459    18A     -0.811343
      19A     -0.772178    20A     -0.752435    21A     -0.705782
      22A     -0.699994    23A     -0.686862    24A     -0.677435
      25A     -0.646891    26A     -0.628050    27A     -0.614453
      28A     -0.541499

  @DF-RHF Final Energy:  -289.68097247028982

   => Energetics <=

    Nuclear Repulsion Energy =            344.8803703715605025
    One-Electron Energy =               -1064.1136768528001539
    Two-Electron Energy =                 429.5523340109498349
    Total Energy =                       -289.6809724702898166
  Basis Set: (AUG-CC-PVTZ AUX)
    Blend: AUG-CC-PVTZ-RI
    Molecular point group: c1

    Geometry (in Angstrom), charge = 1, multiplicity = 1:

       Center              X                  Y                   Z               Mass
    ------------   -----------------  -----------------  -----------------  -----------------
         N           -1.822828683129     0.019807867653    -0.799729388048    14.003074004430
         C           -1.091816683129     0.019807867653     0.543271611952    12.000000000000
         C           -0.255085683129    -1.251759132347     0.633484611952    12.000000000000
         C           -0.255085683129     1.291374867653     0.633485611952    12.000000000000
         C            0.933990316871    -1.243543132347    -0.332681388048    12.000000000000
         C            0.933989316871     1.283158867653    -0.332682388048    12.000000000000
         C            1.888171916871    -0.145443432347    -0.137510188048    12.000000000000
         H           -1.893244683129     0.019807867653     1.288783611952     1.007825032230
         H           -0.885952683129    -2.139332132347     0.492873611952     1.007825032230
         H            0.115716316871    -1.305657132347     1.663522611952     1.007825032230
         H            0.115717316871     1.345271867653     1.663523611952     1.007825032230
         H           -0.885952683129     2.178947867653     0.492874611952     1.007825032230
         H            0.596040316871    -1.326076132347    -1.377242388048     1.007825032230
         H            1.538628316871    -2.138208132347    -0.155999388048     1.007825032230
         H            1.538627316871     2.177823867653    -0.156000388048     1.007825032230
         H            0.596038316871     1.365690867653    -1.377242388048     1.007825032230
         H            2.224663316871     0.019808867653     0.841992611952     1.007825032230
         H            2.607708316871     0.019807867653    -0.873419388048     1.007825032230
         H           -1.151069683129     0.019795867653    -1.577554388048     1.007825032230
         H           -2.419568683129     0.851193867653    -0.904479388048     1.007825032230
         H           -2.419586683129    -0.811567132347    -0.904469388048     1.007825032230

  Basis Set: AUG-CC-PVTZ
    Blend: AUG-CC-PVTZ
  Basis Set: (AUG-CC-PVTZ AUX)
    Blend: AUG-CC-PVTZ-JKFIT
	 Reference Energy          =    -289.6809724702898166 [Eh]
	 Singles Energy            =      -0.0000000000000000 [Eh]
	 Same-Spin Energy          =      -0.3080706669735724 [Eh]
	 Opposite-Spin Energy      =      -1.0957065695932375 [Eh]
	 Correlation Energy        =      -1.4037772365668100 [Eh]
	 Total Energy              =    -291.0847497068565986 [Eh]

	 ================> DF-SCS-MP2 Energies <==================
	-----------------------------------------------------------
	 SCS Same-Spin Scale       =       0.3333333333333333 [-]
	 SCS Opposite-Spin Scale   =       1.2000000000000000 [-]
	 SCS Same-Spin Energy      =      -0.1026902223245241 [Eh]
	 SCS Opposite-Spin Energy  =      -1.3148478835118851 [Eh]
	 SCS Correlation Energy    =      -1.4175381058364092 [Eh]
	 SCS Total Energy          =    -291.0985105761262162 [Eh]
	-----------------------------------------------------------

  Dipole Moment: [D]
     X:    -5.6462      Y:     0.0083      Z:    -2.0455     Total:     6.0053

*** Psi4 exiting successfully. Buy a developer a beer!
