                               Psi4 1.4a3.dev225

  ==> Input File <==

--------------------------------------------------------------------------
#psi4
#
memory 32 gb

molecule  {
1 1
  N       -1.8548797     0.0000000    -0.7633609
  C       -1.0774430     0.0000000     0.5533100
  C       -0.2407120    -1.2715670     0.6435230
  C       -0.2407120     1.2715670     0.6435240
  C        0.9483640    -1.2633510    -0.3226430
  C        0.9483630     1.2633510    -0.3226440
  C        1.7921720     0.0000000    -0.1500480
  H       -1.8788710     0.0000000     1.2988220
  H       -0.8715790    -2.1591400     0.5029120
  H        0.1300900    -1.3254650     1.6735610
  H        0.1300910     1.3254640     1.6735620
  H       -0.8715790     2.1591400     0.5029130
  H        0.6104140    -1.3458840    -1.3672040
  H        1.5530020    -2.1580160    -0.1459610
  H        1.5530010     2.1580160    -0.1459620
  H        0.6104120     1.3458830    -1.3672040
  H        2.2390370     0.0000010     0.8520310
  H        2.6220820     0.0000000    -0.8633810
  H       -1.1366960    -0.0000120    -1.5675160
  H       -2.4051950     0.8313860    -0.8944410
  H       -2.4052130    -0.8313750    -0.8944310
units angstrom
no_reorient  #important for SAPT in psi4, default
symmetry c1  #important for SAPT in psi4, default
}

set PROPERTIES_ORIGIN ["COM"]
properties('MP2/aug-cc-pvtz', properties = ['dipole'])
--------------------------------------------------------------------------

    Molecular point group: c1
  Charge       = 1
  Multiplicity = 1
  Basis Set: AUG-CC-PVTZ
    Blend: AUG-CC-PVTZ
  Basis Set: (AUG-CC-PVTZ AUX)
    Blend: AUG-CC-PVTZ-JKFIT

    Orbital Energies [Eh]
    ---------------------

    Doubly Occupied:

       1A    -15.874240     2A    -11.466637     3A    -11.391157
       4A    -11.391146     5A    -11.371945     6A    -11.371942
       7A    -11.358116     8A     -1.492067     9A     -1.278233
      10A     -1.172964    11A     -1.170668    12A     -1.008981
      13A     -1.008336    14A     -0.948366    15A     -0.942763
      16A     -0.913760    17A     -0.817239    18A     -0.806691
      19A     -0.764344    20A     -0.757764    21A     -0.697587
      22A     -0.696677    23A     -0.688690    24A     -0.686480
      25A     -0.646940    26A     -0.611053    27A     -0.595842
      28A     -0.595058

  @DF-RHF Final Energy:  -289.70622007102764

   => Energetics <=

    Nuclear Repulsion Energy =            346.2870533499004182
    One-Electron Energy =               -1066.9351793388218539
    Two-Electron Energy =                 430.9419059178938483
    Total Energy =                       -289.7062200710276443
  Basis Set: (AUG-CC-PVTZ AUX)
    Blend: AUG-CC-PVTZ-RI
    Molecular point group: c1

    Geometry (in Angstrom), charge = 1, multiplicity = 1:

       Center              X                  Y                   Z               Mass
    ------------   -----------------  -----------------  -----------------  -----------------
         N           -1.849529879520     0.000000020134    -0.774376067344    14.003074004430
         C           -1.072093179520     0.000000020134     0.542294832656    12.000000000000
         C           -0.235362179520    -1.271566979866     0.632507832656    12.000000000000
         C           -0.235362179520     1.271567020134     0.632508832656    12.000000000000
         C            0.953713820480    -1.263350979866    -0.333658167344    12.000000000000
         C            0.953712820480     1.263351020134    -0.333659167344    12.000000000000
         C            1.797521820480     0.000000020134    -0.161063167344    12.000000000000
         H           -1.873521179520     0.000000020134     1.287806832656     1.007825032230
         H           -0.866229179520    -2.159139979866     0.491896832656     1.007825032230
         H            0.135439820480    -1.325464979866     1.662545832656     1.007825032230
         H            0.135440820480     1.325464020134     1.662546832656     1.007825032230
         H           -0.866229179520     2.159140020134     0.491897832656     1.007825032230
         H            0.615763820480    -1.345883979866    -1.378219167344     1.007825032230
         H            1.558351820480    -2.158015979866    -0.156976167344     1.007825032230
         H            1.558350820480     2.158016020134    -0.156977167344     1.007825032230
         H            0.615761820480     1.345883020134    -1.378219167344     1.007825032230
         H            2.244386820480     0.000001020134     0.841015832656     1.007825032230
         H            2.627431820480     0.000000020134    -0.874396167344     1.007825032230
         H           -1.131346179520    -0.000011979866    -1.578531167344     1.007825032230
         H           -2.399845179520     0.831386020134    -0.905456167344     1.007825032230
         H           -2.399863179520    -0.831374979866    -0.905446167344     1.007825032230

  Basis Set: AUG-CC-PVTZ
    Blend: AUG-CC-PVTZ
  Basis Set: (AUG-CC-PVTZ AUX)
    Blend: AUG-CC-PVTZ-JKFIT
	 Reference Energy          =    -289.7062200710276443 [Eh]
	 Singles Energy            =      -0.0000000000000000 [Eh]
	 Same-Spin Energy          =      -0.3077056331928513 [Eh]
	 Opposite-Spin Energy      =      -1.0940547000999470 [Eh]
	 Correlation Energy        =      -1.4017603332927981 [Eh]
	 Total Energy              =    -291.1079804043204149 [Eh]

	 ================> DF-SCS-MP2 Energies <==================
	-----------------------------------------------------------
	 SCS Same-Spin Scale       =       0.3333333333333333 [-]
	 SCS Opposite-Spin Scale   =       1.2000000000000000 [-]
	 SCS Same-Spin Energy      =      -0.1025685443976171 [Eh]
	 SCS Opposite-Spin Energy  =      -1.3128656401199363 [Eh]
	 SCS Correlation Energy    =      -1.4154341845175533 [Eh]
	 SCS Total Energy          =    -291.1216542555451952 [Eh]
	-----------------------------------------------------------

  Dipole Moment: [D]
     X:    -5.5210      Y:    -0.0000      Z:    -2.0746     Total:     5.8980

*** Psi4 exiting successfully. Buy a developer a beer!
