                               Psi4 1.4a3.dev225

  ==> Input File <==

--------------------------------------------------------------------------
#psi4
#
memory 32 gb

molecule  {
1 1
  N       -1.9448323     0.0000000    -0.7059223
  C       -1.0774430     0.0000000     0.5533100
  C       -0.2407120    -1.2715670     0.6435230
  C       -0.2407120     1.2715670     0.6435240
  C        0.9483640    -1.2633510    -0.3226430
  C        0.9483630     1.2633510    -0.3226440
  C        1.7921720     0.0000000    -0.1500480
  H       -1.8788710     0.0000000     1.2988220
  H       -0.8715790    -2.1591400     0.5029120
  H        0.1300900    -1.3254650     1.6735610
  H        0.1300910     1.3254640     1.6735620
  H       -0.8715790     2.1591400     0.5029130
  H        0.6104140    -1.3458840    -1.3672040
  H        1.5530020    -2.1580160    -0.1459610
  H        1.5530010     2.1580160    -0.1459620
  H        0.6104120     1.3458830    -1.3672040
  H        2.2390370     0.0000010     0.8520310
  H        2.6220820     0.0000000    -0.8633810
  H       -1.1366960    -0.0000120    -1.5675160
  H       -2.4051950     0.8313860    -0.8944410
  H       -2.4052130    -0.8313750    -0.8944310
units angstrom
no_reorient  #important for SAPT in psi4, default
symmetry c1  #important for SAPT in psi4, default
}

set PROPERTIES_ORIGIN ["COM"]
properties('MP2/aug-cc-pvtz', properties = ['dipole'])
--------------------------------------------------------------------------

    Molecular point group: c1
  Charge       = 1
  Multiplicity = 1
  Basis Set: AUG-CC-PVTZ
    Blend: AUG-CC-PVTZ
  Basis Set: (AUG-CC-PVTZ AUX)
    Blend: AUG-CC-PVTZ-JKFIT

    Orbital Energies [Eh]
    ---------------------

    Doubly Occupied:

       1A    -15.873830     2A    -11.466974     3A    -11.392502
       4A    -11.392490     5A    -11.372567     6A    -11.372564
       7A    -11.358641     8A     -1.492207     9A     -1.279600
      10A     -1.173631    11A     -1.171401    12A     -1.014790
      13A     -1.010532    14A     -0.970460    15A     -0.932986
      16A     -0.895822    17A     -0.820454    18A     -0.792210
      19A     -0.762875    20A     -0.759916    21A     -0.697670
      22A     -0.696721    23A     -0.689050    24A     -0.687171
      25A     -0.647689    26A     -0.611157    27A     -0.596505
      28A     -0.595116

  @DF-RHF Final Energy:  -289.68121206840561

   => Energetics <=

    Nuclear Repulsion Energy =            345.5063863579785561
    One-Electron Energy =               -1065.3201352339608547
    Two-Electron Energy =                 430.1325368075767415
    Total Energy =                       -289.6812120684056140
  Basis Set: (AUG-CC-PVTZ AUX)
    Blend: AUG-CC-PVTZ-RI
    Molecular point group: c1

    Geometry (in Angstrom), charge = 1, multiplicity = 1:

       Center              X                  Y                   Z               Mass
    ------------   -----------------  -----------------  -----------------  -----------------
         N           -1.926900520736     0.000000020134    -0.724971588624    14.003074004430
         C           -1.059511220736     0.000000020134     0.534260711376    12.000000000000
         C           -0.222780220736    -1.271566979866     0.624473711376    12.000000000000
         C           -0.222780220736     1.271567020134     0.624474711376    12.000000000000
         C            0.966295779264    -1.263350979866    -0.341692288624    12.000000000000
         C            0.966294779264     1.263351020134    -0.341693288624    12.000000000000
         C            1.810103779264     0.000000020134    -0.169097288624    12.000000000000
         H           -1.860939220736     0.000000020134     1.279772711376     1.007825032230
         H           -0.853647220736    -2.159139979866     0.483862711376     1.007825032230
         H            0.148021779264    -1.325464979866     1.654511711376     1.007825032230
         H            0.148022779264     1.325464020134     1.654512711376     1.007825032230
         H           -0.853647220736     2.159140020134     0.483863711376     1.007825032230
         H            0.628345779264    -1.345883979866    -1.386253288624     1.007825032230
         H            1.570933779264    -2.158015979866    -0.165010288624     1.007825032230
         H            1.570932779264     2.158016020134    -0.165011288624     1.007825032230
         H            0.628343779264     1.345883020134    -1.386253288624     1.007825032230
         H            2.256968779264     0.000001020134     0.832981711376     1.007825032230
         H            2.640013779264     0.000000020134    -0.882430288624     1.007825032230
         H           -1.118764220736    -0.000011979866    -1.586565288624     1.007825032230
         H           -2.387263220736     0.831386020134    -0.913490288624     1.007825032230
         H           -2.387281220736    -0.831374979866    -0.913480288624     1.007825032230

  Basis Set: AUG-CC-PVTZ
    Blend: AUG-CC-PVTZ
  Basis Set: (AUG-CC-PVTZ AUX)
    Blend: AUG-CC-PVTZ-JKFIT
	 Reference Energy          =    -289.6812120684056140 [Eh]
	 Singles Energy            =      -0.0000000000000000 [Eh]
	 Same-Spin Energy          =      -0.3083552761638945 [Eh]
	 Opposite-Spin Energy      =      -1.0956660526625905 [Eh]
	 Correlation Energy        =      -1.4040213288264849 [Eh]
	 Total Energy              =    -291.0852333972321162 [Eh]

	 ================> DF-SCS-MP2 Energies <==================
	-----------------------------------------------------------
	 SCS Same-Spin Scale       =       0.3333333333333333 [-]
	 SCS Opposite-Spin Scale   =       1.2000000000000000 [-]
	 SCS Same-Spin Energy      =      -0.1027850920546315 [Eh]
	 SCS Opposite-Spin Energy  =      -1.3147992631951086 [Eh]
	 SCS Correlation Energy    =      -1.4175843552497400 [Eh]
	 SCS Total Energy          =    -291.0987964236553580 [Eh]
	-----------------------------------------------------------

  Dipole Moment: [D]
     X:    -5.3641      Y:    -0.0000      Z:    -2.1135     Total:     5.7654

*** Psi4 exiting successfully. Buy a developer a beer!
