                               Psi4 1.4a3.dev225

  ==> Input File <==

--------------------------------------------------------------------------
#psi4
#
memory 32 gb

molecule  {
1 1
  N       -1.8084550     0.0000000    -0.7896910
  C       -1.1730588     0.0000000     0.3776466
  C       -0.2407120    -1.2715670     0.6435230
  C       -0.2407120     1.2715670     0.6435240
  C        0.9483640    -1.2633510    -0.3226430
  C        0.9483630     1.2633510    -0.3226440
  C        1.7921720     0.0000000    -0.1500480
  H       -1.8788710     0.0000000     1.2988220
  H       -0.8715790    -2.1591400     0.5029120
  H        0.1300900    -1.3254650     1.6735610
  H        0.1300910     1.3254640     1.6735620
  H       -0.8715790     2.1591400     0.5029130
  H        0.6104140    -1.3458840    -1.3672040
  H        1.5530020    -2.1580160    -0.1459610
  H        1.5530010     2.1580160    -0.1459620
  H        0.6104120     1.3458830    -1.3672040
  H        2.2390370     0.0000010     0.8520310
  H        2.6220820     0.0000000    -0.8633810
  H       -1.1366960    -0.0000120    -1.5675160
  H       -2.4051950     0.8313860    -0.8944410
  H       -2.4052130    -0.8313750    -0.8944310
units angstrom
no_reorient  #important for SAPT in psi4, default
symmetry c1  #important for SAPT in psi4, default
}

set PROPERTIES_ORIGIN ["COM"]
properties('MP2/aug-cc-pvtz', properties = ['dipole'])
--------------------------------------------------------------------------

    Molecular point group: c1
  Charge       = 1
  Multiplicity = 1
  Basis Set: AUG-CC-PVTZ
    Blend: AUG-CC-PVTZ
  Basis Set: (AUG-CC-PVTZ AUX)
    Blend: AUG-CC-PVTZ-JKFIT

    Orbital Energies [Eh]
    ---------------------

    Doubly Occupied:

       1A    -15.895392     2A    -11.456870     3A    -11.392305
       4A    -11.392296     5A    -11.368904     6A    -11.368900
       7A    -11.355590     8A     -1.556223     9A     -1.263812
      10A     -1.165720    11A     -1.161473    12A     -1.034737
      13A     -1.008833    14A     -0.988133    15A     -0.954398
      16A     -0.927125    17A     -0.833820    18A     -0.795946
      19A     -0.757827    20A     -0.754883    21A     -0.701028
      22A     -0.684835    23A     -0.672155    24A     -0.663573
      25A     -0.646130    26A     -0.610022    27A     -0.584735
      28A     -0.578364

  @DF-RHF Final Energy:  -289.67049407668759

   => Energetics <=

    Nuclear Repulsion Energy =            347.4686292133879419
    One-Electron Energy =               -1069.1301935583987870
    Two-Electron Energy =                 431.9910702683233126
    Total Energy =                       -289.6704940766875893
  Basis Set: (AUG-CC-PVTZ AUX)
    Blend: AUG-CC-PVTZ-RI
    Molecular point group: c1

    Geometry (in Angstrom), charge = 1, multiplicity = 1:

       Center              X                  Y                   Z               Mass
    ------------   -----------------  -----------------  -----------------  -----------------
         N           -1.798137763143     0.000000020134    -0.775967397860    14.003074004430
         C           -1.162741563143     0.000000020134     0.391370202140    12.000000000000
         C           -0.230394763143    -1.271566979866     0.657246602140    12.000000000000
         C           -0.230394763143     1.271567020134     0.657247602140    12.000000000000
         C            0.958681236857    -1.263350979866    -0.308919397860    12.000000000000
         C            0.958680236857     1.263351020134    -0.308920397860    12.000000000000
         C            1.802489236857     0.000000020134    -0.136324397860    12.000000000000
         H           -1.868553763143     0.000000020134     1.312545602140     1.007825032230
         H           -0.861261763143    -2.159139979866     0.516635602140     1.007825032230
         H            0.140407236857    -1.325464979866     1.687284602140     1.007825032230
         H            0.140408236857     1.325464020134     1.687285602140     1.007825032230
         H           -0.861261763143     2.159140020134     0.516636602140     1.007825032230
         H            0.620731236857    -1.345883979866    -1.353480397860     1.007825032230
         H            1.563319236857    -2.158015979866    -0.132237397860     1.007825032230
         H            1.563318236857     2.158016020134    -0.132238397860     1.007825032230
         H            0.620729236857     1.345883020134    -1.353480397860     1.007825032230
         H            2.249354236857     0.000001020134     0.865754602140     1.007825032230
         H            2.632399236857     0.000000020134    -0.849657397860     1.007825032230
         H           -1.126378763143    -0.000011979866    -1.553792397860     1.007825032230
         H           -2.394877763143     0.831386020134    -0.880717397860     1.007825032230
         H           -2.394895763143    -0.831374979866    -0.880707397860     1.007825032230

  Basis Set: AUG-CC-PVTZ
    Blend: AUG-CC-PVTZ
  Basis Set: (AUG-CC-PVTZ AUX)
    Blend: AUG-CC-PVTZ-JKFIT
	 Reference Energy          =    -289.6704940766875893 [Eh]
	 Singles Energy            =      -0.0000000000000000 [Eh]
	 Same-Spin Energy          =      -0.3092436969360003 [Eh]
	 Opposite-Spin Energy      =      -1.0957410171261135 [Eh]
	 Correlation Energy        =      -1.4049847140621137 [Eh]
	 Total Energy              =    -291.0754787907496848 [Eh]

	 ================> DF-SCS-MP2 Energies <==================
	-----------------------------------------------------------
	 SCS Same-Spin Scale       =       0.3333333333333333 [-]
	 SCS Opposite-Spin Scale   =       1.2000000000000000 [-]
	 SCS Same-Spin Energy      =      -0.1030812323120001 [Eh]
	 SCS Opposite-Spin Energy  =      -1.3148892205513361 [Eh]
	 SCS Correlation Energy    =      -1.4179704528633361 [Eh]
	 SCS Total Energy          =    -291.0884645295509472 [Eh]
	-----------------------------------------------------------

  Dipole Moment: [D]
     X:    -5.8112      Y:    -0.0000      Z:    -2.3067     Total:     6.2523

*** Psi4 exiting successfully. Buy a developer a beer!
