                               Psi4 1.4a3.dev225

  ==> Input File <==

--------------------------------------------------------------------------
#psi4
#
memory 32 gb

molecule  {
1 1
  N       -1.8084550     0.0000000    -0.7896910
  C       -1.0774430     0.0000000     0.5533100
  C       -0.2407120    -1.2715670     0.6435230
  C       -0.2319940     1.2947138     0.6536865
  C        0.9483640    -1.2633510    -0.3226430
  C        0.9483630     1.2633510    -0.3226440
  C        1.7921720     0.0000000    -0.1500480
  H       -1.8788710     0.0000000     1.2988220
  H       -0.8715790    -2.1591400     0.5029120
  H        0.1300900    -1.3254650     1.6735610
  H        0.1300910     1.3254640     1.6735620
  H       -0.8715790     2.1591400     0.5029130
  H        0.6104140    -1.3458840    -1.3672040
  H        1.5530020    -2.1580160    -0.1459610
  H        1.5530010     2.1580160    -0.1459620
  H        0.6104120     1.3458830    -1.3672040
  H        2.2390370     0.0000010     0.8520310
  H        2.6220820     0.0000000    -0.8633810
  H       -1.1366960    -0.0000120    -1.5675160
  H       -2.4051950     0.8313860    -0.8944410
  H       -2.4052130    -0.8313750    -0.8944310
units angstrom
no_reorient  #important for SAPT in psi4, default
symmetry c1  #important for SAPT in psi4, default
}

set PROPERTIES_ORIGIN ["COM"]
properties('MP2/aug-cc-pvtz', properties = ['dipole'])
--------------------------------------------------------------------------

    Molecular point group: c1
  Charge       = 1
  Multiplicity = 1
  Basis Set: AUG-CC-PVTZ
    Blend: AUG-CC-PVTZ
  Basis Set: (AUG-CC-PVTZ AUX)
    Blend: AUG-CC-PVTZ-JKFIT

    Orbital Energies [Eh]
    ---------------------

    Doubly Occupied:

       1A    -15.874548     2A    -11.466824     3A    -11.390325
       4A    -11.390201     5A    -11.371526     6A    -11.371495
       7A    -11.358094     8A     -1.491734     9A     -1.275636
      10A     -1.172930    11A     -1.168731    12A     -1.010804
      13A     -1.005578    14A     -0.950713    15A     -0.934518
      16A     -0.918382    17A     -0.814938    18A     -0.812358
      19A     -0.765059    20A     -0.757486    21A     -0.697971
      22A     -0.695820    23A     -0.687806    24A     -0.684183
      25A     -0.648212    26A     -0.611492    27A     -0.597146
      28A     -0.592559

  @DF-RHF Final Energy:  -289.70945183867326

   => Energetics <=

    Nuclear Repulsion Energy =            346.2949136891503485
    One-Electron Energy =               -1066.9745960883508360
    Two-Electron Energy =                 430.9702305605272272
    Total Energy =                       -289.7094518386732602
  Basis Set: (AUG-CC-PVTZ AUX)
    Blend: AUG-CC-PVTZ-RI
    Molecular point group: c1

    Geometry (in Angstrom), charge = 1, multiplicity = 1:

       Center              X                  Y                   Z               Mass
    ------------   -----------------  -----------------  -----------------  -----------------
         N           -1.810643734361    -0.002774471111    -0.798241419864    14.003074004430
         C           -1.079631734361    -0.002774471111     0.544759580136    12.000000000000
         C           -0.242900734361    -1.274341471111     0.634972580136    12.000000000000
         C           -0.234182734361     1.291939328889     0.645136080136    12.000000000000
         C            0.946175265639    -1.266125471111    -0.331193419864    12.000000000000
         C            0.946174265639     1.260576528889    -0.331194419864    12.000000000000
         C            1.789983265639    -0.002774471111    -0.158598419864    12.000000000000
         H           -1.881059734361    -0.002774471111     1.290271580136     1.007825032230
         H           -0.873767734361    -2.161914471111     0.494361580136     1.007825032230
         H            0.127901265639    -1.328239471111     1.665010580136     1.007825032230
         H            0.127902265639     1.322689528889     1.665011580136     1.007825032230
         H           -0.873767734361     2.156365528889     0.494362580136     1.007825032230
         H            0.608225265639    -1.348658471111    -1.375754419864     1.007825032230
         H            1.550813265639    -2.160790471111    -0.154511419864     1.007825032230
         H            1.550812265639     2.155241528889    -0.154512419864     1.007825032230
         H            0.608223265639     1.343108528889    -1.375754419864     1.007825032230
         H            2.236848265639    -0.002773471111     0.843480580136     1.007825032230
         H            2.619893265639    -0.002774471111    -0.871931419864     1.007825032230
         H           -1.138884734361    -0.002786471111    -1.576066419864     1.007825032230
         H           -2.407383734361     0.828611528889    -0.902991419864     1.007825032230
         H           -2.407401734361    -0.834149471111    -0.902981419864     1.007825032230

  Basis Set: AUG-CC-PVTZ
    Blend: AUG-CC-PVTZ
  Basis Set: (AUG-CC-PVTZ AUX)
    Blend: AUG-CC-PVTZ-JKFIT
	 Reference Energy          =    -289.7094518386732602 [Eh]
	 Singles Energy            =      -0.0000000000000000 [Eh]
	 Same-Spin Energy          =      -0.3074372904619784 [Eh]
	 Opposite-Spin Energy      =      -1.0937212813098145 [Eh]
	 Correlation Energy        =      -1.4011585717717929 [Eh]
	 Total Energy              =    -291.1106104104450765 [Eh]

	 ================> DF-SCS-MP2 Energies <==================
	-----------------------------------------------------------
	 SCS Same-Spin Scale       =       0.3333333333333333 [-]
	 SCS Opposite-Spin Scale   =       1.2000000000000000 [-]
	 SCS Same-Spin Energy      =      -0.1024790968206595 [Eh]
	 SCS Opposite-Spin Energy  =      -1.3124655375717773 [Eh]
	 SCS Correlation Energy    =      -1.4149446343924368 [Eh]
	 SCS Total Energy          =    -291.1243964730657012 [Eh]
	-----------------------------------------------------------

  Dipole Moment: [D]
     X:    -5.6055      Y:    -0.0049      Z:    -2.0601     Total:     5.9721

*** Psi4 exiting successfully. Buy a developer a beer!
