                               Psi4 1.4a3.dev225

  ==> Input File <==

--------------------------------------------------------------------------
#psi4
#
memory 32 gb

molecule  {
1 1
  N       -1.8084550     0.0000000    -0.7896910
  C       -1.0774430     0.0000000     0.5533100
  C       -0.2407120    -1.2715670     0.6435230
  C       -0.2407120     1.2715670     0.6435240
  C        1.0367588    -1.3203533    -0.3045624
  C        0.9483630     1.2633510    -0.3226440
  C        1.7921720     0.0000000    -0.1500480
  H       -1.8788710     0.0000000     1.2988220
  H       -0.8715790    -2.1591400     0.5029120
  H        0.1300900    -1.3254650     1.6735610
  H        0.1300910     1.3254640     1.6735620
  H       -0.8715790     2.1591400     0.5029130
  H        0.6104140    -1.3458840    -1.3672040
  H        1.5530020    -2.1580160    -0.1459610
  H        1.5530010     2.1580160    -0.1459620
  H        0.6104120     1.3458830    -1.3672040
  H        2.2390370     0.0000010     0.8520310
  H        2.6220820     0.0000000    -0.8633810
  H       -1.1366960    -0.0000120    -1.5675160
  H       -2.4051950     0.8313860    -0.8944410
  H       -2.4052130    -0.8313750    -0.8944310
units angstrom
no_reorient  #important for SAPT in psi4, default
symmetry c1  #important for SAPT in psi4, default
}

set PROPERTIES_ORIGIN ["COM"]
properties('MP2/aug-cc-pvtz', properties = ['dipole'])
--------------------------------------------------------------------------

    Molecular point group: c1
  Charge       = 1
  Multiplicity = 1
  Basis Set: AUG-CC-PVTZ
    Blend: AUG-CC-PVTZ
  Basis Set: (AUG-CC-PVTZ AUX)
    Blend: AUG-CC-PVTZ-JKFIT

    Orbital Energies [Eh]
    ---------------------

    Doubly Occupied:

       1A    -15.874442     2A    -11.468393     3A    -11.391060
       4A    -11.390904     5A    -11.374243     6A    -11.372543
       7A    -11.358363     8A     -1.492158     9A     -1.273388
      10A     -1.172171    11A     -1.168598    12A     -1.012329
      13A     -1.008202    14A     -0.950287    15A     -0.934106
      16A     -0.919817    17A     -0.814467    18A     -0.812948
      19A     -0.771707    20A     -0.752683    21A     -0.707060
      22A     -0.697536    23A     -0.689797    24A     -0.678553
      25A     -0.641260    26A     -0.613276    27A     -0.601398
      28A     -0.585015

  @DF-RHF Final Energy:  -289.69726064208146

   => Energetics <=

    Nuclear Repulsion Energy =            345.3787827229371032
    One-Electron Energy =               -1065.0986762277698290
    Two-Electron Energy =                 430.0226328627512657
    Total Energy =                       -289.6972606420814600
  Basis Set: (AUG-CC-PVTZ AUX)
    Blend: AUG-CC-PVTZ-RI
    Molecular point group: c1

    Geometry (in Angstrom), charge = 1, multiplicity = 1:

       Center              X                  Y                   Z               Mass
    ------------   -----------------  -----------------  -----------------  -----------------
         N           -1.820194194208     0.006832600977    -0.799190522942    14.003074004430
         C           -1.089182194208     0.006832600977     0.543810477058    12.000000000000
         C           -0.252451194208    -1.264734399023     0.634023477058    12.000000000000
         C           -0.252451194208     1.278399600977     0.634024477058    12.000000000000
         C            1.025019605792    -1.313520699023    -0.314061922942    12.000000000000
         C            0.936623805792     1.270183600977    -0.332143522942    12.000000000000
         C            1.780432805792     0.006832600977    -0.159547522942    12.000000000000
         H           -1.890610194208     0.006832600977     1.289322477058     1.007825032230
         H           -0.883318194208    -2.152307399023     0.493412477058     1.007825032230
         H            0.118350805792    -1.318632399023     1.664061477058     1.007825032230
         H            0.118351805792     1.332296600977     1.664062477058     1.007825032230
         H           -0.883318194208     2.165972600977     0.493413477058     1.007825032230
         H            0.598674805792    -1.339051399023    -1.376703522942     1.007825032230
         H            1.541262805792    -2.151183399023    -0.155460522942     1.007825032230
         H            1.541261805792     2.164848600977    -0.155461522942     1.007825032230
         H            0.598672805792     1.352715600977    -1.376703522942     1.007825032230
         H            2.227297805792     0.006833600977     0.842531477058     1.007825032230
         H            2.610342805792     0.006832600977    -0.872880522942     1.007825032230
         H           -1.148435194208     0.006820600977    -1.577015522942     1.007825032230
         H           -2.416934194208     0.838218600977    -0.903940522942     1.007825032230
         H           -2.416952194208    -0.824542399023    -0.903930522942     1.007825032230

  Basis Set: AUG-CC-PVTZ
    Blend: AUG-CC-PVTZ
  Basis Set: (AUG-CC-PVTZ AUX)
    Blend: AUG-CC-PVTZ-JKFIT
	 Reference Energy          =    -289.6972606420814600 [Eh]
	 Singles Energy            =      -0.0000000000000000 [Eh]
	 Same-Spin Energy          =      -0.3072532160077479 [Eh]
	 Opposite-Spin Energy      =      -1.0940086608830077 [Eh]
	 Correlation Energy        =      -1.4012618768907557 [Eh]
	 Total Energy              =    -291.0985225189722314 [Eh]

	 ================> DF-SCS-MP2 Energies <==================
	-----------------------------------------------------------
	 SCS Same-Spin Scale       =       0.3333333333333333 [-]
	 SCS Opposite-Spin Scale   =       1.2000000000000000 [-]
	 SCS Same-Spin Energy      =      -0.1024177386692493 [Eh]
	 SCS Opposite-Spin Energy  =      -1.3128103930596093 [Eh]
	 SCS Correlation Energy    =      -1.4152281317288586 [Eh]
	 SCS Total Energy          =    -291.1124887738102984 [Eh]
	-----------------------------------------------------------

  Dipole Moment: [D]
     X:    -5.6320      Y:     0.0696      Z:    -2.0414     Total:     5.9909

*** Psi4 exiting successfully. Buy a developer a beer!
