                               Psi4 1.4a3.dev225

  ==> Input File <==

--------------------------------------------------------------------------
#psi4
#
memory 32 gb

molecule  {
1 1
  N       -1.8084550     0.0000000    -0.7896910
  C       -1.0774430     0.0000000     0.5533100
  C       -0.2407120    -1.2715670     0.6435230
  C       -0.2407120     1.2715670     0.6435240
  C        0.9483640    -1.2633510    -0.3226430
  C        0.9483630     1.2633510    -0.3226440
  C        1.8133458     0.0152045    -0.1443357
  H       -1.8788710     0.0000000     1.2988220
  H       -0.8715790    -2.1591400     0.5029120
  H        0.1300900    -1.3254650     1.6735610
  H        0.1300910     1.3254640     1.6735620
  H       -0.8715790     2.1591400     0.5029130
  H        0.6104140    -1.3458840    -1.3672040
  H        1.5530020    -2.1580160    -0.1459610
  H        1.5530010     2.1580160    -0.1459620
  H        0.6104120     1.3458830    -1.3672040
  H        2.2390370     0.0000010     0.8520310
  H        2.6220820     0.0000000    -0.8633810
  H       -1.1366960    -0.0000120    -1.5675160
  H       -2.4051950     0.8313860    -0.8944410
  H       -2.4052130    -0.8313750    -0.8944310
units angstrom
no_reorient  #important for SAPT in psi4, default
symmetry c1  #important for SAPT in psi4, default
}

set PROPERTIES_ORIGIN ["COM"]
properties('MP2/aug-cc-pvtz', properties = ['dipole'])
--------------------------------------------------------------------------

    Molecular point group: c1
  Charge       = 1
  Multiplicity = 1
  Basis Set: AUG-CC-PVTZ
    Blend: AUG-CC-PVTZ
  Basis Set: (AUG-CC-PVTZ AUX)
    Blend: AUG-CC-PVTZ-JKFIT

    Orbital Energies [Eh]
    ---------------------

    Doubly Occupied:

       1A    -15.874459     2A    -11.466625     3A    -11.390724
       4A    -11.390402     5A    -11.372116     6A    -11.371526
       7A    -11.357173     8A     -1.492322     9A     -1.276155
      10A     -1.172352    11A     -1.168802    12A     -1.011144
      13A     -1.004841    14A     -0.950835    15A     -0.934106
      16A     -0.919600    17A     -0.815672    18A     -0.813237
      19A     -0.764463    20A     -0.755927    21A     -0.699039
      22A     -0.694441    23A     -0.687398    24A     -0.685568
      25A     -0.646214    26A     -0.615095    27A     -0.597836
      28A     -0.589824

  @DF-RHF Final Energy:  -289.70940173353119

   => Energetics <=

    Nuclear Repulsion Energy =            346.3429328376098510
    One-Electron Energy =               -1067.0688719686736476
    Two-Electron Energy =                 431.0165373975326020
    Total Energy =                       -289.7094017335311946
  Basis Set: (AUG-CC-PVTZ AUX)
    Blend: AUG-CC-PVTZ-RI
    Molecular point group: c1

    Geometry (in Angstrom), charge = 1, multiplicity = 1:

       Center              X                  Y                   Z               Mass
    ------------   -----------------  -----------------  -----------------  -----------------
         N           -1.812136748862    -0.001822467300    -0.797707996629    14.003074004430
         C           -1.081124748862    -0.001822467300     0.545293003371    12.000000000000
         C           -0.244393748862    -1.273389467300     0.635506003371    12.000000000000
         C           -0.244393748862     1.269744532700     0.635507003371    12.000000000000
         C            0.944682251138    -1.265173467300    -0.330659996629    12.000000000000
         C            0.944681251138     1.261528532700    -0.330660996629    12.000000000000
         C            1.809664051138     0.013382032700    -0.152352696629    12.000000000000
         H           -1.882552748862    -0.001822467300     1.290805003371     1.007825032230
         H           -0.875260748862    -2.160962467300     0.494895003371     1.007825032230
         H            0.126408251138    -1.327287467300     1.665544003371     1.007825032230
         H            0.126409251138     1.323641532700     1.665545003371     1.007825032230
         H           -0.875260748862     2.157317532700     0.494896003371     1.007825032230
         H            0.606732251138    -1.347706467300    -1.375220996629     1.007825032230
         H            1.549320251138    -2.159838467300    -0.153977996629     1.007825032230
         H            1.549319251138     2.156193532700    -0.153978996629     1.007825032230
         H            0.606730251138     1.344060532700    -1.375220996629     1.007825032230
         H            2.235355251138    -0.001821467300     0.844014003371     1.007825032230
         H            2.618400251138    -0.001822467300    -0.871397996629     1.007825032230
         H           -1.140377748862    -0.001834467300    -1.575532996629     1.007825032230
         H           -2.408876748862     0.829563532700    -0.902457996629     1.007825032230
         H           -2.408894748862    -0.833197467300    -0.902447996629     1.007825032230

  Basis Set: AUG-CC-PVTZ
    Blend: AUG-CC-PVTZ
  Basis Set: (AUG-CC-PVTZ AUX)
    Blend: AUG-CC-PVTZ-JKFIT
	 Reference Energy          =    -289.7094017335311946 [Eh]
	 Singles Energy            =      -0.0000000000000000 [Eh]
	 Same-Spin Energy          =      -0.3074695503165640 [Eh]
	 Opposite-Spin Energy      =      -1.0937685037014466 [Eh]
	 Correlation Energy        =      -1.4012380540180107 [Eh]
	 Total Energy              =    -291.1106397875491894 [Eh]

	 ================> DF-SCS-MP2 Energies <==================
	-----------------------------------------------------------
	 SCS Same-Spin Scale       =       0.3333333333333333 [-]
	 SCS Opposite-Spin Scale   =       1.2000000000000000 [-]
	 SCS Same-Spin Energy      =      -0.1024898501055213 [Eh]
	 SCS Opposite-Spin Energy  =      -1.3125222044417360 [Eh]
	 SCS Correlation Energy    =      -1.4150120545472573 [Eh]
	 SCS Total Energy          =    -291.1244137880784706 [Eh]
	-----------------------------------------------------------

  Dipole Moment: [D]
     X:    -5.6066      Y:    -0.0019      Z:    -2.0506     Total:     5.9698

*** Psi4 exiting successfully. Buy a developer a beer!
