                               Psi4 1.4a3.dev225

  ==> Input File <==

--------------------------------------------------------------------------
#psi4
#
memory 32 gb

molecule  {
1 1
  N       -1.8084550     0.0000000    -0.7896910
  C       -1.0774430     0.0000000     0.5533100
  C       -0.2407120    -1.2715670     0.6435230
  C       -0.2407120     1.2715670     0.6435240
  C        0.9483640    -1.2633510    -0.3226430
  C        0.9483630     1.2633510    -0.3226440
  C        1.7921720     0.0000000    -0.1500480
  H       -1.8788710     0.0000000     1.2988220
  H       -0.8715790    -2.1591400     0.5029120
  H        0.1300900    -1.3254650     1.6735610
  H        0.1131759     1.3230054     1.6265744
  H       -0.8715790     2.1591400     0.5029130
  H        0.6104140    -1.3458840    -1.3672040
  H        1.5530020    -2.1580160    -0.1459610
  H        1.5530010     2.1580160    -0.1459620
  H        0.6104120     1.3458830    -1.3672040
  H        2.2390370     0.0000010     0.8520310
  H        2.6220820     0.0000000    -0.8633810
  H       -1.1366960    -0.0000120    -1.5675160
  H       -2.4051950     0.8313860    -0.8944410
  H       -2.4052130    -0.8313750    -0.8944310
units angstrom
no_reorient  #important for SAPT in psi4, default
symmetry c1  #important for SAPT in psi4, default
}

set PROPERTIES_ORIGIN ["COM"]
properties('MP2/aug-cc-pvtz', properties = ['dipole'])
--------------------------------------------------------------------------

    Molecular point group: c1
  Charge       = 1
  Multiplicity = 1
  Basis Set: AUG-CC-PVTZ
    Blend: AUG-CC-PVTZ
  Basis Set: (AUG-CC-PVTZ AUX)
    Blend: AUG-CC-PVTZ-JKFIT

    Orbital Energies [Eh]
    ---------------------

    Doubly Occupied:

       1A    -15.874335     2A    -11.466553     3A    -11.390580
       4A    -11.384783     5A    -11.371677     6A    -11.371341
       7A    -11.357895     8A     -1.492215     9A     -1.278521
      10A     -1.174349    11A     -1.170762    12A     -1.011461
      13A     -1.007066    14A     -0.951637    15A     -0.935112
      16A     -0.919604    17A     -0.815470    18A     -0.813928
      19A     -0.764284    20A     -0.759470    21A     -0.699157
      22A     -0.695998    23A     -0.690504    24A     -0.685949
      25A     -0.649212    26A     -0.611264    27A     -0.595443
      28A     -0.594800

  @DF-RHF Final Energy:  -289.70890248839851

   => Energetics <=

    Nuclear Repulsion Energy =            346.9487924523742208
    One-Electron Energy =               -1068.2486493913309005
    Two-Electron Energy =                 431.5909544505582289
    Total Energy =                       -289.7089024883985076
  Basis Set: (AUG-CC-PVTZ AUX)
    Blend: AUG-CC-PVTZ-RI
    Molecular point group: c1

    Geometry (in Angstrom), charge = 1, multiplicity = 1:

       Center              X                  Y                   Z               Mass
    ------------   -----------------  -----------------  -----------------  -----------------
         N           -1.809428468436     0.000024770645    -0.796550271715    14.003074004430
         C           -1.078416468436     0.000024770645     0.546450728285    12.000000000000
         C           -0.241685468436    -1.271542229355     0.636663728285    12.000000000000
         C           -0.241685468436     1.271591770645     0.636664728285    12.000000000000
         C            0.947390531564    -1.263326229355    -0.329502271715    12.000000000000
         C            0.947389531564     1.263375770645    -0.329503271715    12.000000000000
         C            1.791198531564     0.000024770645    -0.156907271715    12.000000000000
         H           -1.879844468436     0.000024770645     1.291962728285     1.007825032230
         H           -0.872552468436    -2.159115229355     0.496052728285     1.007825032230
         H            0.129116531564    -1.325440229355     1.666701728285     1.007825032230
         H            0.112202431564     1.323030170645     1.619715128285     1.007825032230
         H           -0.872552468436     2.159164770645     0.496053728285     1.007825032230
         H            0.609440531564    -1.345859229355    -1.374063271715     1.007825032230
         H            1.552028531564    -2.157991229355    -0.152820271715     1.007825032230
         H            1.552027531564     2.158040770645    -0.152821271715     1.007825032230
         H            0.609438531564     1.345907770645    -1.374063271715     1.007825032230
         H            2.238063531564     0.000025770645     0.845171728285     1.007825032230
         H            2.621108531564     0.000024770645    -0.870240271715     1.007825032230
         H           -1.137669468436     0.000012770645    -1.574375271715     1.007825032230
         H           -2.406168468436     0.831410770645    -0.901300271715     1.007825032230
         H           -2.406186468436    -0.831350229355    -0.901290271715     1.007825032230

  Basis Set: AUG-CC-PVTZ
    Blend: AUG-CC-PVTZ
  Basis Set: (AUG-CC-PVTZ AUX)
    Blend: AUG-CC-PVTZ-JKFIT
	 Reference Energy          =    -289.7089024883985076 [Eh]
	 Singles Energy            =      -0.0000000000000000 [Eh]
	 Same-Spin Energy          =      -0.3075839403973273 [Eh]
	 Opposite-Spin Energy      =      -1.0935623918735968 [Eh]
	 Correlation Energy        =      -1.4011463322709241 [Eh]
	 Total Energy              =    -291.1100488206694195 [Eh]

	 ================> DF-SCS-MP2 Energies <==================
	-----------------------------------------------------------
	 SCS Same-Spin Scale       =       0.3333333333333333 [-]
	 SCS Opposite-Spin Scale   =       1.2000000000000000 [-]
	 SCS Same-Spin Energy      =      -0.1025279801324424 [Eh]
	 SCS Opposite-Spin Energy  =      -1.3122748702483162 [Eh]
	 SCS Correlation Energy    =      -1.4148028503807586 [Eh]
	 SCS Total Energy          =    -291.1237053387792457 [Eh]
	-----------------------------------------------------------

  Dipole Moment: [D]
     X:    -5.6011      Y:    -0.0027      Z:    -2.0425     Total:     5.9619

*** Psi4 exiting successfully. Buy a developer a beer!
