                               Psi4 1.4a3.dev225

  ==> Input File <==

--------------------------------------------------------------------------
#psi4
#
memory 32 gb

molecule  {
1 1
  N       -1.8195449     0.0234413    -0.7833895
  C       -1.0774430     0.0000000     0.5533100
  C       -0.2407120    -1.2715670     0.6435230
  C       -0.2407120     1.2715670     0.6435240
  C        0.9483640    -1.2633510    -0.3226430
  C        0.9483630     1.2633510    -0.3226440
  C        1.7921720     0.0000000    -0.1500480
  H       -1.8788710     0.0000000     1.2988220
  H       -0.8715790    -2.1591400     0.5029120
  H        0.1300900    -1.3254650     1.6735610
  H        0.1300910     1.3254640     1.6735620
  H       -0.8715790     2.1591400     0.5029130
  H        0.6104140    -1.3458840    -1.3672040
  H        1.5530020    -2.1580160    -0.1459610
  H        1.5530010     2.1580160    -0.1459620
  H        0.6104120     1.3458830    -1.3672040
  H        2.2390370     0.0000010     0.8520310
  H        2.6220820     0.0000000    -0.8633810
  H       -1.1366960    -0.0000120    -1.5675160
  H       -2.4051950     0.8313860    -0.8944410
  H       -2.4052130    -0.8313750    -0.8944310
units angstrom
no_reorient  #important for SAPT in psi4, default
symmetry c1  #important for SAPT in psi4, default
}

set PROPERTIES_ORIGIN ["COM"]
properties('MP2/aug-cc-pvtz', properties = ['dipole'])
--------------------------------------------------------------------------

    Molecular point group: c1
  Charge       = 1
  Multiplicity = 1
  Basis Set: AUG-CC-PVTZ
    Blend: AUG-CC-PVTZ
  Basis Set: (AUG-CC-PVTZ AUX)
    Blend: AUG-CC-PVTZ-JKFIT

    Orbital Energies [Eh]
    ---------------------

    Doubly Occupied:

       1A    -15.874461     2A    -11.466747     3A    -11.391271
       4A    -11.390043     5A    -11.371957     6A    -11.371513
       7A    -11.357939     8A     -1.492358     9A     -1.277798
      10A     -1.172751    11A     -1.170667    12A     -1.009676
      13A     -1.006815    14A     -0.952662    15A     -0.933925
      16A     -0.917485    17A     -0.815849    18A     -0.812305
      19A     -0.764245    20A     -0.756582    21A     -0.698439
      22A     -0.696338    23A     -0.687625    24A     -0.686053
      25A     -0.646640    26A     -0.611023    27A     -0.595610
      28A     -0.594973

  @DF-RHF Final Energy:  -289.70877918416824

   => Energetics <=

    Nuclear Repulsion Energy =            346.6000838951970309
    One-Electron Energy =               -1067.5702291327065723
    Two-Electron Energy =                 431.2613660533413054
    Total Energy =                       -289.7087791841682360
  Basis Set: (AUG-CC-PVTZ AUX)
    Blend: AUG-CC-PVTZ-RI
    Molecular point group: c1

    Geometry (in Angstrom), charge = 1, multiplicity = 1:

       Center              X                  Y                   Z               Mass
    ------------   -----------------  -----------------  -----------------  -----------------
         N           -1.819137471371     0.020162510289    -0.791603202798    14.003074004430
         C           -1.077035571371    -0.003278789711     0.545096297202    12.000000000000
         C           -0.240304571371    -1.274845789711     0.635309297202    12.000000000000
         C           -0.240304571371     1.268288210289     0.635310297202    12.000000000000
         C            0.948771428629    -1.266629789711    -0.330856702798    12.000000000000
         C            0.948770428629     1.260072210289    -0.330857702798    12.000000000000
         C            1.792579428629    -0.003278789711    -0.158261702798    12.000000000000
         H           -1.878463571371    -0.003278789711     1.290608297202     1.007825032230
         H           -0.871171571371    -2.162418789711     0.494698297202     1.007825032230
         H            0.130497428629    -1.328743789711     1.665347297202     1.007825032230
         H            0.130498428629     1.322185210289     1.665348297202     1.007825032230
         H           -0.871171571371     2.155861210289     0.494699297202     1.007825032230
         H            0.610821428629    -1.349162789711    -1.375417702798     1.007825032230
         H            1.553409428629    -2.161294789711    -0.154174702798     1.007825032230
         H            1.553408428629     2.154737210289    -0.154175702798     1.007825032230
         H            0.610819428629     1.342604210289    -1.375417702798     1.007825032230
         H            2.239444428629    -0.003277789711     0.843817297202     1.007825032230
         H            2.622489428629    -0.003278789711    -0.871594702798     1.007825032230
         H           -1.136288571371    -0.003290789711    -1.575729702798     1.007825032230
         H           -2.404787571371     0.828107210289    -0.902654702798     1.007825032230
         H           -2.404805571371    -0.834653789711    -0.902644702798     1.007825032230

  Basis Set: AUG-CC-PVTZ
    Blend: AUG-CC-PVTZ
  Basis Set: (AUG-CC-PVTZ AUX)
    Blend: AUG-CC-PVTZ-JKFIT
	 Reference Energy          =    -289.7087791841682360 [Eh]
	 Singles Energy            =      -0.0000000000000000 [Eh]
	 Same-Spin Energy          =      -0.3076533445593132 [Eh]
	 Opposite-Spin Energy      =      -1.0939403438582276 [Eh]
	 Correlation Energy        =      -1.4015936884175408 [Eh]
	 Total Energy              =    -291.1103728725857991 [Eh]

	 ================> DF-SCS-MP2 Energies <==================
	-----------------------------------------------------------
	 SCS Same-Spin Scale       =       0.3333333333333333 [-]
	 SCS Opposite-Spin Scale   =       1.2000000000000000 [-]
	 SCS Same-Spin Energy      =      -0.1025511148531044 [Eh]
	 SCS Opposite-Spin Energy  =      -1.3127284126298731 [Eh]
	 SCS Correlation Energy    =      -1.4152795274829775 [Eh]
	 SCS Total Energy          =    -291.1240587116512302 [Eh]
	-----------------------------------------------------------

  Dipole Moment: [D]
     X:    -5.5797      Y:    -0.0383      Z:    -2.0568     Total:     5.9469

*** Psi4 exiting successfully. Buy a developer a beer!
