                               Psi4 1.4a3.dev225

  ==> Input File <==

--------------------------------------------------------------------------
#psi4
#
memory 32 gb

molecule  {
1 1
  N       -1.8084550     0.0000000    -0.7896910
  C       -1.0774430     0.0000000     0.5533100
  C       -0.2407120    -1.2715670     0.6435230
  C       -0.2407120     1.2715670     0.6435240
  C        0.9483640    -1.2633510    -0.3226430
  C        0.9483630     1.2633510    -0.3226440
  C        1.7921720     0.0000000    -0.1500480
  H       -1.8788710     0.0000000     1.2988220
  H       -0.8715790    -2.1591400     0.5029120
  H        0.1300900    -1.3254650     1.6735610
  H        0.1300910     1.3254640     1.6735620
  H       -0.8715790     2.1591400     0.5029130
  H        0.6104140    -1.3458840    -1.3672040
  H        1.5530020    -2.1580160    -0.1459610
  H        1.4977415     2.0762502    -0.1621094
  H        0.6104120     1.3458830    -1.3672040
  H        2.2390370     0.0000010     0.8520310
  H        2.6220820     0.0000000    -0.8633810
  H       -1.1366960    -0.0000120    -1.5675160
  H       -2.4051950     0.8313860    -0.8944410
  H       -2.4052130    -0.8313750    -0.8944310
units angstrom
no_reorient  #important for SAPT in psi4, default
symmetry c1  #important for SAPT in psi4, default
}

set PROPERTIES_ORIGIN ["COM"]
properties('MP2/aug-cc-pvtz', properties = ['dipole'])
--------------------------------------------------------------------------

    Molecular point group: c1
  Charge       = 1
  Multiplicity = 1
  Basis Set: AUG-CC-PVTZ
    Blend: AUG-CC-PVTZ
  Basis Set: (AUG-CC-PVTZ AUX)
    Blend: AUG-CC-PVTZ-JKFIT

    Orbital Energies [Eh]
    ---------------------

    Doubly Occupied:

       1A    -15.874242     2A    -11.466415     3A    -11.390171
       4A    -11.390039     5A    -11.371190     6A    -11.360080
       7A    -11.357351     8A     -1.492100     9A     -1.278288
      10A     -1.176287    11A     -1.170785    12A     -1.012738
      13A     -1.009315    14A     -0.950768    15A     -0.934381
      16A     -0.921214    17A     -0.816521    18A     -0.815001
      19A     -0.770242    20A     -0.756613    21A     -0.702563
      22A     -0.696623    23A     -0.688428    24A     -0.686351
      25A     -0.646929    26A     -0.611764    27A     -0.599790
      28A     -0.594560

  @DF-RHF Final Energy:  -289.70397757086772

   => Energetics <=

    Nuclear Repulsion Energy =            347.2341282872058628
    One-Electron Energy =               -1068.7947140888607009
    Two-Electron Energy =                 431.8566082307871170
    Total Energy =                       -289.7039775708677212
  Basis Set: (AUG-CC-PVTZ AUX)
    Blend: AUG-CC-PVTZ-RI
    Molecular point group: c1

    Geometry (in Angstrom), charge = 1, multiplicity = 1:

       Center              X                  Y                   Z               Mass
    ------------   -----------------  -----------------  -----------------  -----------------
         N           -1.809042458715     0.000823149289    -0.796860737311    14.003074004430
         C           -1.078030458715     0.000823149289     0.546140262689    12.000000000000
         C           -0.241299458715    -1.270743850711     0.636353262689    12.000000000000
         C           -0.241299458715     1.272390149289     0.636354262689    12.000000000000
         C            0.947776541285    -1.262527850711    -0.329812737311    12.000000000000
         C            0.947775541285     1.264174149289    -0.329813737311    12.000000000000
         C            1.791584541285     0.000823149289    -0.157217737311    12.000000000000
         H           -1.879458458715     0.000823149289     1.291652262689     1.007825032230
         H           -0.872166458715    -2.158316850711     0.495742262689     1.007825032230
         H            0.129502541285    -1.324641850711     1.666391262689     1.007825032230
         H            0.129503541285     1.326287149289     1.666392262689     1.007825032230
         H           -0.872166458715     2.159963149289     0.495743262689     1.007825032230
         H            0.609826541285    -1.345060850711    -1.374373737311     1.007825032230
         H            1.552414541285    -2.157192850711    -0.153130737311     1.007825032230
         H            1.497154041285     2.077073349289    -0.169279137311     1.007825032230
         H            0.609824541285     1.346706149289    -1.374373737311     1.007825032230
         H            2.238449541285     0.000824149289     0.844861262689     1.007825032230
         H            2.621494541285     0.000823149289    -0.870550737311     1.007825032230
         H           -1.137283458715     0.000811149289    -1.574685737311     1.007825032230
         H           -2.405782458715     0.832209149289    -0.901610737311     1.007825032230
         H           -2.405800458715    -0.830551850711    -0.901600737311     1.007825032230

  Basis Set: AUG-CC-PVTZ
    Blend: AUG-CC-PVTZ
  Basis Set: (AUG-CC-PVTZ AUX)
    Blend: AUG-CC-PVTZ-JKFIT
	 Reference Energy          =    -289.7039775708677212 [Eh]
	 Singles Energy            =      -0.0000000000000000 [Eh]
	 Same-Spin Energy          =      -0.3075776604107646 [Eh]
	 Opposite-Spin Energy      =      -1.0933162795080207 [Eh]
	 Correlation Energy        =      -1.4008939399187854 [Eh]
	 Total Energy              =    -291.1048715107864950 [Eh]

	 ================> DF-SCS-MP2 Energies <==================
	-----------------------------------------------------------
	 SCS Same-Spin Scale       =       0.3333333333333333 [-]
	 SCS Opposite-Spin Scale   =       1.2000000000000000 [-]
	 SCS Same-Spin Energy      =      -0.1025258868035882 [Eh]
	 SCS Opposite-Spin Energy  =      -1.3119795354096249 [Eh]
	 SCS Correlation Energy    =      -1.4145054222132130 [Eh]
	 SCS Total Energy          =    -291.1184829930809315 [Eh]
	-----------------------------------------------------------

  Dipole Moment: [D]
     X:    -5.5907      Y:     0.0266      Z:    -2.0557     Total:     5.9567

*** Psi4 exiting successfully. Buy a developer a beer!
