                               Psi4 1.4a3.dev225

  ==> Input File <==

--------------------------------------------------------------------------
#psi4
#
memory 32 gb

molecule  {
1 1
  N       -1.7373626    -0.1403978    -0.8188507
  C       -1.0774430     0.0000000     0.5533100
  C       -0.2407120    -1.2715670     0.6435230
  C       -0.2407120     1.2715670     0.6435240
  C        0.9483640    -1.2633510    -0.3226430
  C        0.9483630     1.2633510    -0.3226440
  C        1.7921720     0.0000000    -0.1500480
  H       -1.8788710     0.0000000     1.2988220
  H       -0.8715790    -2.1591400     0.5029120
  H        0.1300900    -1.3254650     1.6735610
  H        0.1300910     1.3254640     1.6735620
  H       -0.8715790     2.1591400     0.5029130
  H        0.6104140    -1.3458840    -1.3672040
  H        1.5530020    -2.1580160    -0.1459610
  H        1.5530010     2.1580160    -0.1459620
  H        0.6104120     1.3458830    -1.3672040
  H        2.2390370     0.0000010     0.8520310
  H        2.6220820     0.0000000    -0.8633810
  H       -1.1366960    -0.0000120    -1.5675160
  H       -2.4051950     0.8313860    -0.8944410
  H       -2.4052130    -0.8313750    -0.8944310
units angstrom
no_reorient  #important for SAPT in psi4, default
symmetry c1  #important for SAPT in psi4, default
}

set PROPERTIES_ORIGIN ["COM"]
properties('MP2/aug-cc-pvtz', properties = ['dipole'])
--------------------------------------------------------------------------

    Molecular point group: c1
  Charge       = 1
  Multiplicity = 1
  Basis Set: AUG-CC-PVTZ
    Blend: AUG-CC-PVTZ
  Basis Set: (AUG-CC-PVTZ AUX)
    Blend: AUG-CC-PVTZ-JKFIT

    Orbital Energies [Eh]
    ---------------------

    Doubly Occupied:

       1A    -15.875087     2A    -11.468161     3A    -11.393282
       4A    -11.386513     5A    -11.372673     6A    -11.370256
       7A    -11.357722     8A     -1.494998     9A     -1.277921
      10A     -1.172618    11A     -1.171916    12A     -1.016508
      13A     -1.005683    14A     -0.984314    15A     -0.921394
      16A     -0.885002    17A     -0.823971    18A     -0.812476
      19A     -0.765149    20A     -0.749728    21A     -0.700389
      22A     -0.696854    23A     -0.687345    24A     -0.680302
      25A     -0.645503    26A     -0.610979    27A     -0.595245
      28A     -0.594736

  @DF-RHF Final Energy:  -289.67995991259937

   => Energetics <=

    Nuclear Repulsion Energy =            347.3667685019015039
    One-Electron Energy =               -1069.0600081572677027
    Two-Electron Energy =                 432.0132797427667697
    Total Energy =                       -289.6799599125993723
  Basis Set: (AUG-CC-PVTZ AUX)
    Blend: AUG-CC-PVTZ-RI
    Molecular point group: c1

    Geometry (in Angstrom), charge = 1, multiplicity = 1:

       Center              X                  Y                   Z               Mass
    ------------   -----------------  -----------------  -----------------  -----------------
         N           -1.748450273363    -0.120759889099    -0.822104330973    14.003074004430
         C           -1.088530673363     0.019637910901     0.550056369027    12.000000000000
         C           -0.251799673363    -1.251929089099     0.640269369027    12.000000000000
         C           -0.251799673363     1.291204910901     0.640270369027    12.000000000000
         C            0.937276326637    -1.243713089099    -0.325896630973    12.000000000000
         C            0.937275326637     1.282988910901    -0.325897630973    12.000000000000
         C            1.781084326637     0.019637910901    -0.153301630973    12.000000000000
         H           -1.889958673363     0.019637910901     1.295568369027     1.007825032230
         H           -0.882666673363    -2.139502089099     0.499658369027     1.007825032230
         H            0.119002326637    -1.305827089099     1.670307369027     1.007825032230
         H            0.119003326637     1.345101910901     1.670308369027     1.007825032230
         H           -0.882666673363     2.178777910901     0.499659369027     1.007825032230
         H            0.599326326637    -1.326246089099    -1.370457630973     1.007825032230
         H            1.541914326637    -2.138378089099    -0.149214630973     1.007825032230
         H            1.541913326637     2.177653910901    -0.149215630973     1.007825032230
         H            0.599324326637     1.365520910901    -1.370457630973     1.007825032230
         H            2.227949326637     0.019638910901     0.848777369027     1.007825032230
         H            2.610994326637     0.019637910901    -0.866634630973     1.007825032230
         H           -1.147783673363     0.019625910901    -1.570769630973     1.007825032230
         H           -2.416282673363     0.851023910901    -0.897694630973     1.007825032230
         H           -2.416300673363    -0.811737089099    -0.897684630973     1.007825032230

  Basis Set: AUG-CC-PVTZ
    Blend: AUG-CC-PVTZ
  Basis Set: (AUG-CC-PVTZ AUX)
    Blend: AUG-CC-PVTZ-JKFIT
	 Reference Energy          =    -289.6799599125993723 [Eh]
	 Singles Energy            =      -0.0000000000000000 [Eh]
	 Same-Spin Energy          =      -0.3084383990734795 [Eh]
	 Opposite-Spin Energy      =      -1.0960447757963383 [Eh]
	 Correlation Energy        =      -1.4044831748698179 [Eh]
	 Total Energy              =    -291.0844430874691966 [Eh]

	 ================> DF-SCS-MP2 Energies <==================
	-----------------------------------------------------------
	 SCS Same-Spin Scale       =       0.3333333333333333 [-]
	 SCS Opposite-Spin Scale   =       1.2000000000000000 [-]
	 SCS Same-Spin Energy      =      -0.1028127996911598 [Eh]
	 SCS Opposite-Spin Energy  =      -1.3152537309556058 [Eh]
	 SCS Correlation Energy    =      -1.4180665306467657 [Eh]
	 SCS Total Energy          =    -291.0980264432461126 [Eh]
	-----------------------------------------------------------

  Dipole Moment: [D]
     X:    -5.6846      Y:     0.2085      Z:    -2.0083     Total:     6.0325

*** Psi4 exiting successfully. Buy a developer a beer!
