                               Psi4 1.4a3.dev225

  ==> Input File <==

--------------------------------------------------------------------------
#psi4
#
memory 32 gb

molecule  {
1 1
  N       -1.8084550     0.0000000    -0.7896910
  C       -1.0774430     0.0000000     0.5533100
  C       -0.2407120    -1.2715670     0.6435230
  C       -0.2407120     1.2715670     0.6435240
  C        0.9483640    -1.2633510    -0.3226430
  C        0.9483630     1.2633510    -0.3226440
  C        1.8342560     0.0307892    -0.1386777
  H       -1.8788710     0.0000000     1.2988220
  H       -0.8715790    -2.1591400     0.5029120
  H        0.1300900    -1.3254650     1.6735610
  H        0.1300910     1.3254640     1.6735620
  H       -0.8715790     2.1591400     0.5029130
  H        0.6104140    -1.3458840    -1.3672040
  H        1.5530020    -2.1580160    -0.1459610
  H        1.5530010     2.1580160    -0.1459620
  H        0.6104120     1.3458830    -1.3672040
  H        2.2390370     0.0000010     0.8520310
  H        2.6220820     0.0000000    -0.8633810
  H       -1.1366960    -0.0000120    -1.5675160
  H       -2.4051950     0.8313860    -0.8944410
  H       -2.4052130    -0.8313750    -0.8944310
units angstrom
no_reorient  #important for SAPT in psi4, default
symmetry c1  #important for SAPT in psi4, default
}

set PROPERTIES_ORIGIN ["COM"]
properties('MP2/aug-cc-pvtz', properties = ['dipole'])
--------------------------------------------------------------------------

    Molecular point group: c1
  Charge       = 1
  Multiplicity = 1
  Basis Set: AUG-CC-PVTZ
    Blend: AUG-CC-PVTZ
  Basis Set: (AUG-CC-PVTZ AUX)
    Blend: AUG-CC-PVTZ-JKFIT

    Orbital Energies [Eh]
    ---------------------

    Doubly Occupied:

       1A    -15.874386     2A    -11.466481     3A    -11.390972
       4A    -11.390312     5A    -11.372495     6A    -11.371486
       7A    -11.356678     8A     -1.492228     9A     -1.274832
      10A     -1.172442    11A     -1.166706    12A     -1.012284
      13A     -1.003344    14A     -0.950713    15A     -0.933940
      16A     -0.920775    17A     -0.815849    18A     -0.812594
      19A     -0.765192    20A     -0.755459    21A     -0.699939
      22A     -0.693481    23A     -0.687093    24A     -0.684720
      25A     -0.645920    26A     -0.618987    27A     -0.600380
      28A     -0.583636

  @DF-RHF Final Energy:  -289.70769261883459

   => Energetics <=

    Nuclear Repulsion Energy =            345.9942514323219029
    One-Electron Energy =               -1066.3772459711069587
    Two-Electron Energy =                 430.6753019199504706
    Total Energy =                       -289.7076926188345851
  Basis Set: (AUG-CC-PVTZ AUX)
    Blend: AUG-CC-PVTZ-RI
    Molecular point group: c1

    Geometry (in Angstrom), charge = 1, multiplicity = 1:

       Center              X                  Y                   Z               Mass
    ------------   -----------------  -----------------  -----------------  -----------------
         N           -1.814643150041    -0.003690527407    -0.798386192814    14.003074004430
         C           -1.083631150041    -0.003690527407     0.544614807186    12.000000000000
         C           -0.246900150041    -1.275257527407     0.634827807186    12.000000000000
         C           -0.246900150041     1.267876472593     0.634828807186    12.000000000000
         C            0.942175849959    -1.267041527407    -0.331338192814    12.000000000000
         C            0.942174849959     1.259660472593    -0.331339192814    12.000000000000
         C            1.828067849959     0.027098672593    -0.147372892814    12.000000000000
         H           -1.885059150041    -0.003690527407     1.290126807186     1.007825032230
         H           -0.877767150041    -2.162830527407     0.494216807186     1.007825032230
         H            0.123901849959    -1.329155527407     1.664865807186     1.007825032230
         H            0.123902849959     1.321773472593     1.664866807186     1.007825032230
         H           -0.877767150041     2.155449472593     0.494217807186     1.007825032230
         H            0.604225849959    -1.349574527407    -1.375899192814     1.007825032230
         H            1.546813849959    -2.161706527407    -0.154656192814     1.007825032230
         H            1.546812849959     2.154325472593    -0.154657192814     1.007825032230
         H            0.604223849959     1.342192472593    -1.375899192814     1.007825032230
         H            2.232848849959    -0.003689527407     0.843335807186     1.007825032230
         H            2.615893849959    -0.003690527407    -0.872076192814     1.007825032230
         H           -1.142884150041    -0.003702527407    -1.576211192814     1.007825032230
         H           -2.411383150041     0.827695472593    -0.903136192814     1.007825032230
         H           -2.411401150041    -0.835065527407    -0.903126192814     1.007825032230

  Basis Set: AUG-CC-PVTZ
    Blend: AUG-CC-PVTZ
  Basis Set: (AUG-CC-PVTZ AUX)
    Blend: AUG-CC-PVTZ-JKFIT
	 Reference Energy          =    -289.7076926188345851 [Eh]
	 Singles Energy            =      -0.0000000000000000 [Eh]
	 Same-Spin Energy          =      -0.3073534613704214 [Eh]
	 Opposite-Spin Energy      =      -1.0937385289378603 [Eh]
	 Correlation Energy        =      -1.4010919903082817 [Eh]
	 Total Energy              =    -291.1087846091428446 [Eh]

	 ================> DF-SCS-MP2 Energies <==================
	-----------------------------------------------------------
	 SCS Same-Spin Scale       =       0.3333333333333333 [-]
	 SCS Opposite-Spin Scale   =       1.2000000000000000 [-]
	 SCS Same-Spin Energy      =      -0.1024511537901404 [Eh]
	 SCS Opposite-Spin Energy  =      -1.3124862347254322 [Eh]
	 SCS Correlation Energy    =      -1.4149373885155727 [Eh]
	 SCS Total Energy          =    -291.1226300073501534 [Eh]
	-----------------------------------------------------------

  Dipole Moment: [D]
     X:    -5.6142      Y:    -0.0034      Z:    -2.0503     Total:     5.9769

*** Psi4 exiting successfully. Buy a developer a beer!
