                               Psi4 1.4a3.dev225

  ==> Input File <==

--------------------------------------------------------------------------
#psi4
#
memory 32 gb

molecule  {
1 1
  N       -1.8084550     0.0000000    -0.7896910
  C       -1.0102767     0.0344190     0.4782643
  C       -0.2407120    -1.2715670     0.6435230
  C       -0.2407120     1.2715670     0.6435240
  C        0.9483640    -1.2633510    -0.3226430
  C        0.9483630     1.2633510    -0.3226440
  C        1.7921720     0.0000000    -0.1500480
  H       -1.8788710     0.0000000     1.2988220
  H       -0.8715790    -2.1591400     0.5029120
  H        0.1300900    -1.3254650     1.6735610
  H        0.1300910     1.3254640     1.6735620
  H       -0.8715790     2.1591400     0.5029130
  H        0.6104140    -1.3458840    -1.3672040
  H        1.5530020    -2.1580160    -0.1459610
  H        1.5530010     2.1580160    -0.1459620
  H        0.6104120     1.3458830    -1.3672040
  H        2.2390370     0.0000010     0.8520310
  H        2.6220820     0.0000000    -0.8633810
  H       -1.1366960    -0.0000120    -1.5675160
  H       -2.4051950     0.8313860    -0.8944410
  H       -2.4052130    -0.8313750    -0.8944310
units angstrom
no_reorient  #important for SAPT in psi4, default
symmetry c1  #important for SAPT in psi4, default
}

set PROPERTIES_ORIGIN ["COM"]
properties('MP2/aug-cc-pvtz', properties = ['dipole'])
--------------------------------------------------------------------------

    Molecular point group: c1
  Charge       = 1
  Multiplicity = 1
  Basis Set: AUG-CC-PVTZ
    Blend: AUG-CC-PVTZ
  Basis Set: (AUG-CC-PVTZ AUX)
    Blend: AUG-CC-PVTZ-JKFIT

    Orbital Energies [Eh]
    ---------------------

    Doubly Occupied:

       1A    -15.879655     2A    -11.469600     3A    -11.390880
       4A    -11.388440     5A    -11.370910     6A    -11.369970
       7A    -11.358140     8A     -1.502449     9A     -1.284493
      10A     -1.178683    11A     -1.167662    12A     -1.009133
      13A     -1.004983    14A     -0.961589    15A     -0.939147
      16A     -0.919639    17A     -0.826709    18A     -0.797414
      19A     -0.763659    20A     -0.759054    21A     -0.708352
      22A     -0.692960    23A     -0.683476    24A     -0.681929
      25A     -0.649019    26A     -0.611207    27A     -0.598389
      28A     -0.582453

  @DF-RHF Final Energy:  -289.69572173325355

   => Energetics <=

    Nuclear Repulsion Energy =            348.1141928681051354
    One-Electron Energy =               -1070.5198405685812304
    Two-Electron Energy =                 432.7099259672224889
    Total Energy =                       -289.6957217332535492
  Basis Set: (AUG-CC-PVTZ AUX)
    Blend: AUG-CC-PVTZ-RI
    Molecular point group: c1

    Geometry (in Angstrom), charge = 1, multiplicity = 1:

       Center              X                  Y                   Z               Mass
    ------------   -----------------  -----------------  -----------------  -----------------
         N           -1.817649639998    -0.004125613394    -0.788027938741    14.003074004430
         C           -1.019471339998     0.030293386606     0.479927361259    12.000000000000
         C           -0.249906639998    -1.275692613394     0.645186061259    12.000000000000
         C           -0.249906639998     1.267441386606     0.645187061259    12.000000000000
         C            0.939169360002    -1.267476613394    -0.320979938741    12.000000000000
         C            0.939168360002     1.259225386606    -0.320980938741    12.000000000000
         C            1.782977360002    -0.004125613394    -0.148384938741    12.000000000000
         H           -1.888065639998    -0.004125613394     1.300485061259     1.007825032230
         H           -0.880773639998    -2.163265613394     0.504575061259     1.007825032230
         H            0.120895360002    -1.329590613394     1.675224061259     1.007825032230
         H            0.120896360002     1.321338386606     1.675225061259     1.007825032230
         H           -0.880773639998     2.155014386606     0.504576061259     1.007825032230
         H            0.601219360002    -1.350009613394    -1.365540938741     1.007825032230
         H            1.543807360002    -2.162141613394    -0.144297938741     1.007825032230
         H            1.543806360002     2.153890386606    -0.144298938741     1.007825032230
         H            0.601217360002     1.341757386606    -1.365540938741     1.007825032230
         H            2.229842360002    -0.004124613394     0.853694061259     1.007825032230
         H            2.612887360002    -0.004125613394    -0.861717938741     1.007825032230
         H           -1.145890639998    -0.004137613394    -1.565852938741     1.007825032230
         H           -2.414389639998     0.827260386606    -0.892777938741     1.007825032230
         H           -2.414407639998    -0.835500613394    -0.892767938741     1.007825032230

  Basis Set: AUG-CC-PVTZ
    Blend: AUG-CC-PVTZ
  Basis Set: (AUG-CC-PVTZ AUX)
    Blend: AUG-CC-PVTZ-JKFIT
	 Reference Energy          =    -289.6957217332535492 [Eh]
	 Singles Energy            =      -0.0000000000000000 [Eh]
	 Same-Spin Energy          =      -0.3088017959898562 [Eh]
	 Opposite-Spin Energy      =      -1.0954757107285311 [Eh]
	 Correlation Energy        =      -1.4042775067183872 [Eh]
	 Total Energy              =    -291.0999992399719645 [Eh]

	 ================> DF-SCS-MP2 Energies <==================
	-----------------------------------------------------------
	 SCS Same-Spin Scale       =       0.3333333333333333 [-]
	 SCS Opposite-Spin Scale   =       1.2000000000000000 [-]
	 SCS Same-Spin Energy      =      -0.1029339319966187 [Eh]
	 SCS Opposite-Spin Energy  =      -1.3145708528742373 [Eh]
	 SCS Correlation Energy    =      -1.4175047848708560 [Eh]
	 SCS Total Energy          =    -291.1132265181244065 [Eh]
	-----------------------------------------------------------

  Dipole Moment: [D]
     X:    -5.6140      Y:     0.0130      Z:    -2.1114     Total:     5.9979

*** Psi4 exiting successfully. Buy a developer a beer!
