                               Psi4 1.4a3.dev225

  ==> Input File <==

--------------------------------------------------------------------------
#psi4
#
memory 32 gb

molecule  {
1 1
  N       -1.7611396     0.0000000    -0.8143848
  C       -1.0774430     0.0000000     0.5533100
  C       -0.2407120    -1.2715670     0.6435230
  C       -0.2407120     1.2715670     0.6435240
  C        0.9483640    -1.2633510    -0.3226430
  C        0.9483630     1.2633510    -0.3226440
  C        1.7921720     0.0000000    -0.1500480
  H       -1.8788710     0.0000000     1.2988220
  H       -0.8715790    -2.1591400     0.5029120
  H        0.1300900    -1.3254650     1.6735610
  H        0.1300910     1.3254640     1.6735620
  H       -0.8715790     2.1591400     0.5029130
  H        0.6104140    -1.3458840    -1.3672040
  H        1.5530020    -2.1580160    -0.1459610
  H        1.5530010     2.1580160    -0.1459620
  H        0.6104120     1.3458830    -1.3672040
  H        2.2390370     0.0000010     0.8520310
  H        2.6220820     0.0000000    -0.8633810
  H       -1.1366960    -0.0000120    -1.5675160
  H       -2.4051950     0.8313860    -0.8944410
  H       -2.4052130    -0.8313750    -0.8944310
units angstrom
no_reorient  #important for SAPT in psi4, default
symmetry c1  #important for SAPT in psi4, default
}

set PROPERTIES_ORIGIN ["COM"]
properties('MP2/aug-cc-pvtz', properties = ['dipole'])
--------------------------------------------------------------------------

    Molecular point group: c1
  Charge       = 1
  Multiplicity = 1
  Basis Set: AUG-CC-PVTZ
    Blend: AUG-CC-PVTZ
  Basis Set: (AUG-CC-PVTZ AUX)
    Blend: AUG-CC-PVTZ-JKFIT

    Orbital Energies [Eh]
    ---------------------

    Doubly Occupied:

       1A    -15.874772     2A    -11.467188     3A    -11.389862
       4A    -11.389851     5A    -11.371401     6A    -11.371397
       7A    -11.357655     8A     -1.493408     9A     -1.277207
      10A     -1.172419    11A     -1.171136    12A     -1.013817
      13A     -1.004859    14A     -0.958379    15A     -0.920833
      16A     -0.919198    17A     -0.821518    18A     -0.812978
      19A     -0.763439    20A     -0.754649    21A     -0.699904
      22A     -0.695612    23A     -0.685839    24A     -0.685095
      25A     -0.646173    26A     -0.610972    27A     -0.595255
      28A     -0.594785

  @DF-RHF Final Energy:  -289.70550819221580

   => Energetics <=

    Nuclear Repulsion Energy =            347.1302538865879797
    One-Electron Energy =               -1068.6323219960070219
    Two-Electron Energy =                 431.7965599172032398
    Total Energy =                       -289.7055081922158024
  Basis Set: (AUG-CC-PVTZ AUX)
    Blend: AUG-CC-PVTZ-RI
    Molecular point group: c1

    Geometry (in Angstrom), charge = 1, multiplicity = 1:

       Center              X                  Y                   Z               Mass
    ------------   -----------------  -----------------  -----------------  -----------------
         N           -1.768901508082     0.000000020134    -0.818263090735    14.003074004430
         C           -1.085204908082     0.000000020134     0.549431709265    12.000000000000
         C           -0.248473908082    -1.271566979866     0.639644709265    12.000000000000
         C           -0.248473908082     1.271567020134     0.639645709265    12.000000000000
         C            0.940602091918    -1.263350979866    -0.326521290735    12.000000000000
         C            0.940601091918     1.263351020134    -0.326522290735    12.000000000000
         C            1.784410091918     0.000000020134    -0.153926290735    12.000000000000
         H           -1.886632908082     0.000000020134     1.294943709265     1.007825032230
         H           -0.879340908082    -2.159139979866     0.499033709265     1.007825032230
         H            0.122328091918    -1.325464979866     1.669682709265     1.007825032230
         H            0.122329091918     1.325464020134     1.669683709265     1.007825032230
         H           -0.879340908082     2.159140020134     0.499034709265     1.007825032230
         H            0.602652091918    -1.345883979866    -1.371082290735     1.007825032230
         H            1.545240091918    -2.158015979866    -0.149839290735     1.007825032230
         H            1.545239091918     2.158016020134    -0.149840290735     1.007825032230
         H            0.602650091918     1.345883020134    -1.371082290735     1.007825032230
         H            2.231275091918     0.000001020134     0.848152709265     1.007825032230
         H            2.614320091918     0.000000020134    -0.867259290735     1.007825032230
         H           -1.144457908082    -0.000011979866    -1.571394290735     1.007825032230
         H           -2.412956908082     0.831386020134    -0.898319290735     1.007825032230
         H           -2.412974908082    -0.831374979866    -0.898309290735     1.007825032230

  Basis Set: AUG-CC-PVTZ
    Blend: AUG-CC-PVTZ
  Basis Set: (AUG-CC-PVTZ AUX)
    Blend: AUG-CC-PVTZ-JKFIT
	 Reference Energy          =    -289.7055081922158024 [Eh]
	 Singles Energy            =      -0.0000000000000000 [Eh]
	 Same-Spin Energy          =      -0.3077395608214292 [Eh]
	 Opposite-Spin Energy      =      -1.0942020602296714 [Eh]
	 Correlation Energy        =      -1.4019416210511007 [Eh]
	 Total Energy              =    -291.1074498132668964 [Eh]

	 ================> DF-SCS-MP2 Energies <==================
	-----------------------------------------------------------
	 SCS Same-Spin Scale       =       0.3333333333333333 [-]
	 SCS Opposite-Spin Scale   =       1.2000000000000000 [-]
	 SCS Same-Spin Energy      =      -0.1025798536071431 [Eh]
	 SCS Opposite-Spin Energy  =      -1.3130424722756056 [Eh]
	 SCS Correlation Energy    =      -1.4156223258827485 [Eh]
	 SCS Total Energy          =    -291.1211305180985391 [Eh]
	-----------------------------------------------------------

  Dipole Moment: [D]
     X:    -5.6775      Y:    -0.0000      Z:    -2.0236     Total:     6.0273

*** Psi4 exiting successfully. Buy a developer a beer!
