                               Psi4 1.4a3.dev225

  ==> Input File <==

--------------------------------------------------------------------------
#psi4
#
memory 32 gb

molecule  {
1 1
  N       -1.8084550     0.0000000    -0.7896910
  C       -1.0774430     0.0000000     0.5533100
  C       -0.2407120    -1.2715670     0.6435230
  C       -0.2407120     1.2715670     0.6435240
  C        0.9700938    -1.2781900    -0.3181983
  C        0.9483630     1.2633510    -0.3226440
  C        1.7921720     0.0000000    -0.1500480
  H       -1.8788710     0.0000000     1.2988220
  H       -0.8715790    -2.1591400     0.5029120
  H        0.1300900    -1.3254650     1.6735610
  H        0.1300910     1.3254640     1.6735620
  H       -0.8715790     2.1591400     0.5029130
  H        0.6104140    -1.3458840    -1.3672040
  H        1.5530020    -2.1580160    -0.1459610
  H        1.5530010     2.1580160    -0.1459620
  H        0.6104120     1.3458830    -1.3672040
  H        2.2390370     0.0000010     0.8520310
  H        2.6220820     0.0000000    -0.8633810
  H       -1.1366960    -0.0000120    -1.5675160
  H       -2.4051950     0.8313860    -0.8944410
  H       -2.4052130    -0.8313750    -0.8944310
units angstrom
no_reorient  #important for SAPT in psi4, default
symmetry c1  #important for SAPT in psi4, default
}

set PROPERTIES_ORIGIN ["COM"]
properties('MP2/aug-cc-pvtz', properties = ['dipole'])
--------------------------------------------------------------------------

    Molecular point group: c1
  Charge       = 1
  Multiplicity = 1
  Basis Set: AUG-CC-PVTZ
    Blend: AUG-CC-PVTZ
  Basis Set: (AUG-CC-PVTZ AUX)
    Blend: AUG-CC-PVTZ-JKFIT

    Orbital Energies [Eh]
    ---------------------

    Doubly Occupied:

       1A    -15.874514     2A    -11.467179     3A    -11.390576
       4A    -11.390562     5A    -11.372244     6A    -11.371581
       7A    -11.357834     8A     -1.492343     9A     -1.276429
      10A     -1.171748    11A     -1.170784    12A     -1.009629
      13A     -1.007592    14A     -0.950761    15A     -0.934218
      16A     -0.918435    17A     -0.814950    18A     -0.813606
      19A     -0.765778    20A     -0.755506    21A     -0.700146
      22A     -0.696660    23A     -0.687824    24A     -0.684210
      25A     -0.645261    26A     -0.609506    27A     -0.599893
      28A     -0.592939

  @DF-RHF Final Energy:  -289.70927160317035

   => Energetics <=

    Nuclear Repulsion Energy =            346.3625886886925400
    One-Electron Energy =               -1067.0983061114166048
    Two-Electron Energy =                 431.0264458195537145
    Total Energy =                       -289.7092716031703503
  Basis Set: (AUG-CC-PVTZ AUX)
    Blend: AUG-CC-PVTZ-RI
    Molecular point group: c1

    Geometry (in Angstrom), charge = 1, multiplicity = 1:

       Center              X                  Y                   Z               Mass
    ------------   -----------------  -----------------  -----------------  -----------------
         N           -1.812203393803     0.001778696909    -0.797556055751    14.003074004430
         C           -1.081191393803     0.001778696909     0.545444944249    12.000000000000
         C           -0.244460393803    -1.269788303091     0.635657944249    12.000000000000
         C           -0.244460393803     1.273345696909     0.635658944249    12.000000000000
         C            0.966345406197    -1.276411303091    -0.326063355751    12.000000000000
         C            0.944614606197     1.265129696909    -0.330509055751    12.000000000000
         C            1.788423606197     0.001778696909    -0.157913055751    12.000000000000
         H           -1.882619393803     0.001778696909     1.290956944249     1.007825032230
         H           -0.875327393803    -2.157361303091     0.495046944249     1.007825032230
         H            0.126341606197    -1.323686303091     1.665695944249     1.007825032230
         H            0.126342606197     1.327242696909     1.665696944249     1.007825032230
         H           -0.875327393803     2.160918696909     0.495047944249     1.007825032230
         H            0.606665606197    -1.344105303091    -1.375069055751     1.007825032230
         H            1.549253606197    -2.156237303091    -0.153826055751     1.007825032230
         H            1.549252606197     2.159794696909    -0.153827055751     1.007825032230
         H            0.606663606197     1.347661696909    -1.375069055751     1.007825032230
         H            2.235288606197     0.001779696909     0.844165944249     1.007825032230
         H            2.618333606197     0.001778696909    -0.871246055751     1.007825032230
         H           -1.140444393803     0.001766696909    -1.575381055751     1.007825032230
         H           -2.408943393803     0.833164696909    -0.902306055751     1.007825032230
         H           -2.408961393803    -0.829596303091    -0.902296055751     1.007825032230

  Basis Set: AUG-CC-PVTZ
    Blend: AUG-CC-PVTZ
  Basis Set: (AUG-CC-PVTZ AUX)
    Blend: AUG-CC-PVTZ-JKFIT
	 Reference Energy          =    -289.7092716031703503 [Eh]
	 Singles Energy            =      -0.0000000000000000 [Eh]
	 Same-Spin Energy          =      -0.3074815967039000 [Eh]
	 Opposite-Spin Energy      =      -1.0937773799779797 [Eh]
	 Correlation Energy        =      -1.4012589766818797 [Eh]
	 Total Energy              =    -291.1105305798522522 [Eh]

	 ================> DF-SCS-MP2 Energies <==================
	-----------------------------------------------------------
	 SCS Same-Spin Scale       =       0.3333333333333333 [-]
	 SCS Opposite-Spin Scale   =       1.2000000000000000 [-]
	 SCS Same-Spin Energy      =      -0.1024938655679666 [Eh]
	 SCS Opposite-Spin Energy  =      -1.3125328559735756 [Eh]
	 SCS Correlation Energy    =      -1.4150267215415422 [Eh]
	 SCS Total Energy          =    -291.1242983247119014 [Eh]
	-----------------------------------------------------------

  Dipole Moment: [D]
     X:    -5.6081      Y:     0.0151      Z:    -2.0500     Total:     5.9711

*** Psi4 exiting successfully. Buy a developer a beer!
