                               Psi4 1.4a3.dev225

  ==> Input File <==

--------------------------------------------------------------------------
#psi4
#
memory 32 gb

molecule  {
1 1
  N       -1.8084550     0.0000000    -0.7896910
  C       -1.0774430     0.0000000     0.5533100
  C       -0.2407120    -1.2715670     0.6435230
  C       -0.2407120     1.2715670     0.6435240
  C        0.9483640    -1.2633510    -0.3226430
  C        0.9483630     1.2633510    -0.3226440
  C        1.7921720     0.0000000    -0.1500480
  H       -1.8788710     0.0000000     1.2988220
  H       -0.8715790    -2.1591400     0.5029120
  H        0.1300900    -1.3254650     1.6735610
  H        0.1300910     1.3254640     1.6735620
  H       -0.8715790     2.1591400     0.5029130
  H        0.5918175    -1.3125033    -1.3631180
  H        1.5530020    -2.1580160    -0.1459610
  H        1.5530010     2.1580160    -0.1459620
  H        0.6104120     1.3458830    -1.3672040
  H        2.2390370     0.0000010     0.8520310
  H        2.6220820     0.0000000    -0.8633810
  H       -1.1366960    -0.0000120    -1.5675160
  H       -2.4051950     0.8313860    -0.8944410
  H       -2.4052130    -0.8313750    -0.8944310
units angstrom
no_reorient  #important for SAPT in psi4, default
symmetry c1  #important for SAPT in psi4, default
}

set PROPERTIES_ORIGIN ["COM"]
properties('MP2/aug-cc-pvtz', properties = ['dipole'])
--------------------------------------------------------------------------

    Molecular point group: c1
  Charge       = 1
  Multiplicity = 1
  Basis Set: AUG-CC-PVTZ
    Blend: AUG-CC-PVTZ
  Basis Set: (AUG-CC-PVTZ AUX)
    Blend: AUG-CC-PVTZ-JKFIT

    Orbital Energies [Eh]
    ---------------------

    Doubly Occupied:

       1A    -15.874632     2A    -11.466848     3A    -11.390547
       4A    -11.390284     5A    -11.372113     6A    -11.371762
       7A    -11.357742     8A     -1.492554     9A     -1.277839
      10A     -1.172800    11A     -1.170825    12A     -1.010200
      13A     -1.006110    14A     -0.951253    15A     -0.934363
      16A     -0.918125    17A     -0.815843    18A     -0.813606
      19A     -0.764888    20A     -0.756735    21A     -0.698647
      22A     -0.696272    23A     -0.687264    24A     -0.686247
      25A     -0.646476    26A     -0.611170    27A     -0.595606
      28A     -0.595012

  @DF-RHF Final Energy:  -289.70959776053081

   => Energetics <=

    Nuclear Repulsion Energy =            346.7722313647514625
    One-Electron Energy =               -1067.9121314191570491
    Two-Electron Energy =                 431.4303022938748313
    Total Energy =                       -289.7095977605308121
  Basis Set: (AUG-CC-PVTZ AUX)
    Blend: AUG-CC-PVTZ-RI
    Molecular point group: c1

    Geometry (in Angstrom), charge = 1, multiplicity = 1:

       Center              X                  Y                   Z               Mass
    ------------   -----------------  -----------------  -----------------  -----------------
         N           -1.809411541929    -0.000336020453    -0.797064425179    14.003074004430
         C           -1.078399541929    -0.000336020453     0.545936574821    12.000000000000
         C           -0.241668541929    -1.271903020453     0.636149574821    12.000000000000
         C           -0.241668541929     1.271230979547     0.636150574821    12.000000000000
         C            0.947407458071    -1.263687020453    -0.330016425179    12.000000000000
         C            0.947406458071     1.263014979547    -0.330017425179    12.000000000000
         C            1.791215458071    -0.000336020453    -0.157421425179    12.000000000000
         H           -1.879827541929    -0.000336020453     1.291448574821     1.007825032230
         H           -0.872535541929    -2.159476020453     0.495538574821     1.007825032230
         H            0.129133458071    -1.325801020453     1.666187574821     1.007825032230
         H            0.129134458071     1.325127979547     1.666188574821     1.007825032230
         H           -0.872535541929     2.158803979547     0.495539574821     1.007825032230
         H            0.590860958071    -1.312839320453    -1.370491425179     1.007825032230
         H            1.552045458071    -2.158352020453    -0.153334425179     1.007825032230
         H            1.552044458071     2.157679979547    -0.153335425179     1.007825032230
         H            0.609455458071     1.345546979547    -1.374577425179     1.007825032230
         H            2.238080458071    -0.000335020453     0.844657574821     1.007825032230
         H            2.621125458071    -0.000336020453    -0.870754425179     1.007825032230
         H           -1.137652541929    -0.000348020453    -1.574889425179     1.007825032230
         H           -2.406151541929     0.831049979547    -0.901814425179     1.007825032230
         H           -2.406169541929    -0.831711020453    -0.901804425179     1.007825032230

  Basis Set: AUG-CC-PVTZ
    Blend: AUG-CC-PVTZ
  Basis Set: (AUG-CC-PVTZ AUX)
    Blend: AUG-CC-PVTZ-JKFIT
	 Reference Energy          =    -289.7095977605308121 [Eh]
	 Singles Energy            =      -0.0000000000000000 [Eh]
	 Same-Spin Energy          =      -0.3076594805723358 [Eh]
	 Opposite-Spin Energy      =      -1.0939641120075043 [Eh]
	 Correlation Energy        =      -1.4016235925798401 [Eh]
	 Total Energy              =    -291.1112213531106363 [Eh]

	 ================> DF-SCS-MP2 Energies <==================
	-----------------------------------------------------------
	 SCS Same-Spin Scale       =       0.3333333333333333 [-]
	 SCS Opposite-Spin Scale   =       1.2000000000000000 [-]
	 SCS Same-Spin Energy      =      -0.1025531601907786 [Eh]
	 SCS Opposite-Spin Energy  =      -1.3127569344090051 [Eh]
	 SCS Correlation Energy    =      -1.4153100945997836 [Eh]
	 SCS Total Energy          =    -291.1249078551305729 [Eh]
	-----------------------------------------------------------

  Dipole Moment: [D]
     X:    -5.6004      Y:     0.0092      Z:    -2.0419     Total:     5.9610

*** Psi4 exiting successfully. Buy a developer a beer!
