                               Psi4 1.4a3.dev225

  ==> Input File <==

--------------------------------------------------------------------------
#psi4
#
memory 32 gb

molecule  {
1 1
  N       -1.8084550     0.0000000    -0.7896910
  C       -1.0774430     0.0000000     0.5533100
  C       -0.2407120    -1.2715670     0.6435230
  C       -0.2407120     1.2715670     0.6435240
  C        0.9483640    -1.2633510    -0.3226430
  C        0.9483630     1.2633510    -0.3226440
  C        1.6817984     0.1652513    -0.1726242
  H       -1.8788710     0.0000000     1.2988220
  H       -0.8715790    -2.1591400     0.5029120
  H        0.1300900    -1.3254650     1.6735610
  H        0.1300910     1.3254640     1.6735620
  H       -0.8715790     2.1591400     0.5029130
  H        0.6104140    -1.3458840    -1.3672040
  H        1.5530020    -2.1580160    -0.1459610
  H        1.5530010     2.1580160    -0.1459620
  H        0.6104120     1.3458830    -1.3672040
  H        2.2390370     0.0000010     0.8520310
  H        2.6220820     0.0000000    -0.8633810
  H       -1.1366960    -0.0000120    -1.5675160
  H       -2.4051950     0.8313860    -0.8944410
  H       -2.4052130    -0.8313750    -0.8944310
units angstrom
no_reorient  #important for SAPT in psi4, default
symmetry c1  #important for SAPT in psi4, default
}

set PROPERTIES_ORIGIN ["COM"]
properties('MP2/aug-cc-pvtz', properties = ['dipole'])
--------------------------------------------------------------------------

    Molecular point group: c1
  Charge       = 1
  Multiplicity = 1
  Basis Set: AUG-CC-PVTZ
    Blend: AUG-CC-PVTZ
  Basis Set: (AUG-CC-PVTZ AUX)
    Blend: AUG-CC-PVTZ-JKFIT

    Orbital Energies [Eh]
    ---------------------

    Doubly Occupied:

       1A    -15.875135     2A    -11.467783     3A    -11.392276
       4A    -11.388755     5A    -11.376213     6A    -11.366711
       7A    -11.364149     8A     -1.493175     9A     -1.292559
      10A     -1.197181    11A     -1.164073    12A     -1.022255
      13A     -0.997485    14A     -0.951946    15A     -0.935328
      16A     -0.911588    17A     -0.819461    18A     -0.814896
      19A     -0.771300    20A     -0.756522    21A     -0.724241
      22A     -0.698878    23A     -0.686991    24A     -0.682222
      25A     -0.649985    26A     -0.629291    27A     -0.572883
      28A     -0.559658

  @DF-RHF Final Energy:  -289.65991469441587

   => Energetics <=

    Nuclear Repulsion Energy =            348.7157007793970251
    One-Electron Energy =               -1071.6253535615012424
    Two-Electron Energy =                 433.2497380876883426
    Total Energy =                       -289.6599146944158747
  Basis Set: (AUG-CC-PVTZ AUX)
    Blend: AUG-CC-PVTZ-RI
    Molecular point group: c1

    Geometry (in Angstrom), charge = 1, multiplicity = 1:

       Center              X                  Y                   Z               Mass
    ------------   -----------------  -----------------  -----------------  -----------------
         N           -1.796368819406    -0.019807827386    -0.794317195500    14.003074004430
         C           -1.065356819406    -0.019807827386     0.548683804500    12.000000000000
         C           -0.228625819406    -1.291374827386     0.638896804500    12.000000000000
         C           -0.228625819406     1.251759172614     0.638897804500    12.000000000000
         C            0.960450180594    -1.283158827386    -0.327269195500    12.000000000000
         C            0.960449180594     1.243543172614    -0.327270195500    12.000000000000
         C            1.693884580594     0.145443472614    -0.177250395500    12.000000000000
         H           -1.866784819406    -0.019807827386     1.294195804500     1.007825032230
         H           -0.859492819406    -2.178947827386     0.498285804500     1.007825032230
         H            0.142176180594    -1.345272827386     1.668934804500     1.007825032230
         H            0.142177180594     1.305656172614     1.668935804500     1.007825032230
         H           -0.859492819406     2.139332172614     0.498286804500     1.007825032230
         H            0.622500180594    -1.365691827386    -1.371830195500     1.007825032230
         H            1.565088180594    -2.177823827386    -0.150587195500     1.007825032230
         H            1.565087180594     2.138208172614    -0.150588195500     1.007825032230
         H            0.622498180594     1.326075172614    -1.371830195500     1.007825032230
         H            2.251123180594    -0.019806827386     0.847404804500     1.007825032230
         H            2.634168180594    -0.019807827386    -0.868007195500     1.007825032230
         H           -1.124609819406    -0.019819827386    -1.572142195500     1.007825032230
         H           -2.393108819406     0.811578172614    -0.899067195500     1.007825032230
         H           -2.393126819406    -0.851182827386    -0.899057195500     1.007825032230

  Basis Set: AUG-CC-PVTZ
    Blend: AUG-CC-PVTZ
  Basis Set: (AUG-CC-PVTZ AUX)
    Blend: AUG-CC-PVTZ-JKFIT
	 Reference Energy          =    -289.6599146944158747 [Eh]
	 Singles Energy            =      -0.0000000000000000 [Eh]
	 Same-Spin Energy          =      -0.3103777812972982 [Eh]
	 Opposite-Spin Energy      =      -1.0979395820502436 [Eh]
	 Correlation Energy        =      -1.4083173633475417 [Eh]
	 Total Energy              =    -291.0682320577633959 [Eh]

	 ================> DF-SCS-MP2 Energies <==================
	-----------------------------------------------------------
	 SCS Same-Spin Scale       =       0.3333333333333333 [-]
	 SCS Opposite-Spin Scale   =       1.2000000000000000 [-]
	 SCS Same-Spin Energy      =      -0.1034592604324327 [Eh]
	 SCS Opposite-Spin Energy  =      -1.3175274984602923 [Eh]
	 SCS Correlation Energy    =      -1.4209867588927250 [Eh]
	 SCS Total Energy          =    -291.0809014533086270 [Eh]
	-----------------------------------------------------------

  Dipole Moment: [D]
     X:    -5.5800      Y:    -0.0272      Z:    -2.0554     Total:     5.9466

*** Psi4 exiting successfully. Buy a developer a beer!
