                               Psi4 1.4a3.dev225

  ==> Input File <==

--------------------------------------------------------------------------
#psi4
#
memory 32 gb

molecule  {
1 1
  N       -1.8084550     0.0000000    -0.7896910
  C       -1.0774430     0.0000000     0.5533100
  C       -0.2407120    -1.2715670     0.6435230
  C       -0.2407120     1.2715670     0.6435240
  C        0.9483640    -1.2633510    -0.3226430
  C        0.9483630     1.2633510    -0.3226440
  C        1.7921720     0.0000000    -0.1500480
  H       -1.8788710     0.0000000     1.2988220
  H       -0.8715790    -2.1591400     0.5029120
  H        0.1300900    -1.3254650     1.6735610
  H        0.1300910     1.3254640     1.6735620
  H       -0.8715790     2.1591400     0.5029130
  H        0.6104140    -1.3458840    -1.3672040
  H        1.5530020    -2.1580160    -0.1459610
  H        1.5496951     2.1635937    -0.1639244
  H        0.6104120     1.3458830    -1.3672040
  H        2.2390370     0.0000010     0.8520310
  H        2.6220820     0.0000000    -0.8633810
  H       -1.1366960    -0.0000120    -1.5675160
  H       -2.4051950     0.8313860    -0.8944410
  H       -2.4052130    -0.8313750    -0.8944310
units angstrom
no_reorient  #important for SAPT in psi4, default
symmetry c1  #important for SAPT in psi4, default
}

set PROPERTIES_ORIGIN ["COM"]
properties('MP2/aug-cc-pvtz', properties = ['dipole'])
--------------------------------------------------------------------------

    Molecular point group: c1
  Charge       = 1
  Multiplicity = 1
  Basis Set: AUG-CC-PVTZ
    Blend: AUG-CC-PVTZ
  Basis Set: (AUG-CC-PVTZ AUX)
    Blend: AUG-CC-PVTZ-JKFIT

    Orbital Energies [Eh]
    ---------------------

    Doubly Occupied:

       1A    -15.874496     2A    -11.466859     3A    -11.390587
       4A    -11.390521     5A    -11.371731     6A    -11.371658
       7A    -11.357964     8A     -1.492393     9A     -1.277612
      10A     -1.172642    11A     -1.170672    12A     -1.010140
      13A     -1.006429    14A     -0.950913    15A     -0.934282
      16A     -0.918666    17A     -0.815484    18A     -0.814151
      19A     -0.763597    20A     -0.755961    21A     -0.699006
      22A     -0.696274    23A     -0.687105    24A     -0.686340
      25A     -0.646172    26A     -0.610675    27A     -0.595962
      28A     -0.594997

  @DF-RHF Final Energy:  -289.70972045318894

   => Energetics <=

    Nuclear Repulsion Energy =            346.6860107099100219
    One-Electron Energy =               -1067.7448814678823510
    Two-Electron Energy =                 431.3491503047833362
    Total Energy =                       -289.7097204531889361
  Basis Set: (AUG-CC-PVTZ AUX)
    Blend: AUG-CC-PVTZ-RI
    Molecular point group: c1

    Geometry (in Angstrom), charge = 1, multiplicity = 1:

       Center              X                  Y                   Z               Mass
    ------------   -----------------  -----------------  -----------------  -----------------
         N           -1.809565471061    -0.000056130084    -0.796842465865    14.003074004430
         C           -1.078553471061    -0.000056130084     0.546158534135    12.000000000000
         C           -0.241822471061    -1.271623130084     0.636371534135    12.000000000000
         C           -0.241822471061     1.271510869916     0.636372534135    12.000000000000
         C            0.947253528939    -1.263407130084    -0.329794465865    12.000000000000
         C            0.947252528939     1.263294869916    -0.329795465865    12.000000000000
         C            1.791061528939    -0.000056130084    -0.157199465865    12.000000000000
         H           -1.879981471061    -0.000056130084     1.291670534135     1.007825032230
         H           -0.872689471061    -2.159196130084     0.495760534135     1.007825032230
         H            0.128979528939    -1.325521130084     1.666409534135     1.007825032230
         H            0.128980528939     1.325407869916     1.666410534135     1.007825032230
         H           -0.872689471061     2.159083869916     0.495761534135     1.007825032230
         H            0.609303528939    -1.345940130084    -1.374355465865     1.007825032230
         H            1.551891528939    -2.158072130084    -0.153112465865     1.007825032230
         H            1.548584628939     2.163537569916    -0.171075865865     1.007825032230
         H            0.609301528939     1.345826869916    -1.374355465865     1.007825032230
         H            2.237926528939    -0.000055130084     0.844879534135     1.007825032230
         H            2.620971528939    -0.000056130084    -0.870532465865     1.007825032230
         H           -1.137806471061    -0.000068130084    -1.574667465865     1.007825032230
         H           -2.406305471061     0.831329869916    -0.901592465865     1.007825032230
         H           -2.406323471061    -0.831431130084    -0.901582465865     1.007825032230

  Basis Set: AUG-CC-PVTZ
    Blend: AUG-CC-PVTZ
  Basis Set: (AUG-CC-PVTZ AUX)
    Blend: AUG-CC-PVTZ-JKFIT
	 Reference Energy          =    -289.7097204531889361 [Eh]
	 Singles Energy            =      -0.0000000000000000 [Eh]
	 Same-Spin Energy          =      -0.3076399992437606 [Eh]
	 Opposite-Spin Energy      =      -1.0938891563756128 [Eh]
	 Correlation Energy        =      -1.4015291556193734 [Eh]
	 Total Energy              =    -291.1112496088082935 [Eh]

	 ================> DF-SCS-MP2 Energies <==================
	-----------------------------------------------------------
	 SCS Same-Spin Scale       =       0.3333333333333333 [-]
	 SCS Opposite-Spin Scale   =       1.2000000000000000 [-]
	 SCS Same-Spin Energy      =      -0.1025466664145868 [Eh]
	 SCS Opposite-Spin Energy  =      -1.3126669876507353 [Eh]
	 SCS Correlation Energy    =      -1.4152136540653222 [Eh]
	 SCS Total Energy          =    -291.1249341072542620 [Eh]
	-----------------------------------------------------------

  Dipole Moment: [D]
     X:    -5.5996      Y:     0.0018      Z:    -2.0559     Total:     5.9651

*** Psi4 exiting successfully. Buy a developer a beer!
