                               Psi4 1.4a3.dev225

  ==> Input File <==

--------------------------------------------------------------------------
#psi4
#
memory 32 gb

molecule  {
1 1
  N       -1.8084550     0.0000000    -0.7896910
  C       -1.0774430     0.0000000     0.5533100
  C       -0.2407120    -1.2715670     0.6435230
  C       -0.2407120     1.2715670     0.6435240
  C        0.9483640    -1.2633510    -0.3226430
  C        0.9483630     1.2633510    -0.3226440
  C        1.6599629    -0.0829916    -0.1853640
  H       -1.8788710     0.0000000     1.2988220
  H       -0.8715790    -2.1591400     0.5029120
  H        0.1300900    -1.3254650     1.6735610
  H        0.1300910     1.3254640     1.6735620
  H       -0.8715790     2.1591400     0.5029130
  H        0.6104140    -1.3458840    -1.3672040
  H        1.5530020    -2.1580160    -0.1459610
  H        1.5530010     2.1580160    -0.1459620
  H        0.6104120     1.3458830    -1.3672040
  H        2.2390370     0.0000010     0.8520310
  H        2.6220820     0.0000000    -0.8633810
  H       -1.1366960    -0.0000120    -1.5675160
  H       -2.4051950     0.8313860    -0.8944410
  H       -2.4052130    -0.8313750    -0.8944310
units angstrom
no_reorient  #important for SAPT in psi4, default
symmetry c1  #important for SAPT in psi4, default
}

set PROPERTIES_ORIGIN ["COM"]
properties('MP2/aug-cc-pvtz', properties = ['dipole'])
--------------------------------------------------------------------------

    Molecular point group: c1
  Charge       = 1
  Multiplicity = 1
  Basis Set: AUG-CC-PVTZ
    Blend: AUG-CC-PVTZ
  Basis Set: (AUG-CC-PVTZ AUX)
    Blend: AUG-CC-PVTZ-JKFIT

    Orbital Energies [Eh]
    ---------------------

    Doubly Occupied:

       1A    -15.875245     2A    -11.467964     3A    -11.391200
       4A    -11.389485     5A    -11.374627     6A    -11.367956
       7A    -11.365767     8A     -1.493315     9A     -1.290592
      10A     -1.188809    11A     -1.171416    12A     -1.018682
      13A     -1.003028    14A     -0.952096    15A     -0.935576
      16A     -0.910964    17A     -0.819789    18A     -0.813973
      19A     -0.767768    20A     -0.758320    21A     -0.717876
      22A     -0.699321    23A     -0.688713    24A     -0.682259
      25A     -0.649268    26A     -0.624117    27A     -0.581553
      28A     -0.567586

  @DF-RHF Final Energy:  -289.67869953900674

   => Energetics <=

    Nuclear Repulsion Energy =            348.9821656488261397
    One-Electron Energy =               -1072.1872032178634981
    Two-Electron Energy =                 433.5263380300306153
    Total Energy =                       -289.6786995390067432
  Basis Set: (AUG-CC-PVTZ AUX)
    Blend: AUG-CC-PVTZ-RI
    Molecular point group: c1

    Geometry (in Angstrom), charge = 1, multiplicity = 1:

       Center              X                  Y                   Z               Mass
    ------------   -----------------  -----------------  -----------------  -----------------
         N           -1.793751507140     0.009947808491    -0.792790139339    14.003074004430
         C           -1.062739507140     0.009947808491     0.550210860661    12.000000000000
         C           -0.226008507140    -1.261619191509     0.640423860661    12.000000000000
         C           -0.226008507140     1.281514808491     0.640424860661    12.000000000000
         C            0.963067492860    -1.253403191509    -0.325742139339    12.000000000000
         C            0.963066492860     1.273298808491    -0.325743139339    12.000000000000
         C            1.674666392860    -0.073043791509    -0.188463139339    12.000000000000
         H           -1.864167507140     0.009947808491     1.295722860661     1.007825032230
         H           -0.856875507140    -2.149192191509     0.499812860661     1.007825032230
         H            0.144793492860    -1.315517191509     1.670461860661     1.007825032230
         H            0.144794492860     1.335411808491     1.670462860661     1.007825032230
         H           -0.856875507140     2.169087808491     0.499813860661     1.007825032230
         H            0.625117492860    -1.335936191509    -1.370303139339     1.007825032230
         H            1.567705492860    -2.148068191509    -0.149060139339     1.007825032230
         H            1.567704492860     2.167963808491    -0.149061139339     1.007825032230
         H            0.625115492860     1.355830808491    -1.370303139339     1.007825032230
         H            2.253740492860     0.009948808491     0.848931860661     1.007825032230
         H            2.636785492860     0.009947808491    -0.866480139339     1.007825032230
         H           -1.121992507140     0.009935808491    -1.570615139339     1.007825032230
         H           -2.390491507140     0.841333808491    -0.897540139339     1.007825032230
         H           -2.390509507140    -0.821427191509    -0.897530139339     1.007825032230

  Basis Set: AUG-CC-PVTZ
    Blend: AUG-CC-PVTZ
  Basis Set: (AUG-CC-PVTZ AUX)
    Blend: AUG-CC-PVTZ-JKFIT
	 Reference Energy          =    -289.6786995390067432 [Eh]
	 Singles Energy            =      -0.0000000000000000 [Eh]
	 Same-Spin Energy          =      -0.3097419016960318 [Eh]
	 Opposite-Spin Energy      =      -1.0968297562901432 [Eh]
	 Correlation Energy        =      -1.4065716579861749 [Eh]
	 Total Energy              =    -291.0852711969928919 [Eh]

	 ================> DF-SCS-MP2 Energies <==================
	-----------------------------------------------------------
	 SCS Same-Spin Scale       =       0.3333333333333333 [-]
	 SCS Opposite-Spin Scale   =       1.2000000000000000 [-]
	 SCS Same-Spin Energy      =      -0.1032473005653439 [Eh]
	 SCS Opposite-Spin Energy  =      -1.3161957075481718 [Eh]
	 SCS Correlation Energy    =      -1.4194430081135156 [Eh]
	 SCS Total Energy          =    -291.0981425471202328 [Eh]
	-----------------------------------------------------------

  Dipole Moment: [D]
     X:    -5.5719      Y:     0.0191      Z:    -2.0544     Total:     5.9386

*** Psi4 exiting successfully. Buy a developer a beer!
