                               Psi4 1.4a3.dev225

  ==> Input File <==

--------------------------------------------------------------------------
#psi4
#
memory 32 gb

molecule  {
1 1
  N       -1.8084550     0.0000000    -0.7896910
  C       -1.0774430     0.0000000     0.5533100
  C       -0.2407120    -1.2715670     0.6435230
  C       -0.2407120     1.2715670     0.6435240
  C        0.9483640    -1.2633510    -0.3226430
  C        0.9483630     1.2633510    -0.3226440
  C        1.7921720     0.0000000    -0.1500480
  H       -1.8788710     0.0000000     1.2988220
  H       -0.8715790    -2.1591400     0.5029120
  H        0.1300900    -1.3254650     1.6735610
  H        0.1300910     1.3254640     1.6735620
  H       -0.8715790     2.1591400     0.5029130
  H        0.6104140    -1.3458840    -1.3672040
  H        1.5530020    -2.1580160    -0.1459610
  H        1.5530010     2.1580160    -0.1459620
  H        0.6104120     1.3458830    -1.3672040
  H        2.2390370     0.0000010     0.8520310
  H        2.6220820     0.0000000    -0.8633810
  H       -1.1366960    -0.0000120    -1.5675160
  H       -2.4051950     0.8313860    -0.8944410
  H       -2.3472035    -0.7505589    -0.8842495
units angstrom
no_reorient  #important for SAPT in psi4, default
symmetry c1  #important for SAPT in psi4, default
}

set PROPERTIES_ORIGIN ["COM"]
properties('MP2/aug-cc-pvtz', properties = ['dipole'])
--------------------------------------------------------------------------

    Molecular point group: c1
  Charge       = 1
  Multiplicity = 1
  Basis Set: AUG-CC-PVTZ
    Blend: AUG-CC-PVTZ
  Basis Set: (AUG-CC-PVTZ AUX)
    Blend: AUG-CC-PVTZ-JKFIT

    Orbital Energies [Eh]
    ---------------------

    Doubly Occupied:

       1A    -15.867346     2A    -11.467900     3A    -11.391128
       4A    -11.391073     5A    -11.372231     6A    -11.372193
       7A    -11.358340     8A     -1.510450     9A     -1.280692
      10A     -1.173723    11A     -1.172691    12A     -1.011957
      13A     -1.010135    14A     -0.969801    15A     -0.945839
      16A     -0.919559    17A     -0.817420    18A     -0.815263
      19A     -0.764835    20A     -0.758007    21A     -0.699567
      22A     -0.696988    23A     -0.688114    24A     -0.686880
      25A     -0.647273    26A     -0.611591    27A     -0.596118
      28A     -0.595527

  @DF-RHF Final Energy:  -289.70405798554503

   => Energetics <=

    Nuclear Repulsion Energy =            347.2816761087151463
    One-Electron Energy =               -1068.7861864187575520
    Two-Electron Energy =                 431.8004523244973711
    Total Energy =                       -289.7040579855450346
  Basis Set: (AUG-CC-PVTZ AUX)
    Blend: AUG-CC-PVTZ-RI
    Molecular point group: c1

    Geometry (in Angstrom), charge = 1, multiplicity = 1:

       Center              X                  Y                   Z               Mass
    ------------   -----------------  -----------------  -----------------  -----------------
         N           -1.810182727829    -0.000813548475    -0.797125788044    14.003074004430
         C           -1.079170727829    -0.000813548475     0.545875211956    12.000000000000
         C           -0.242439727829    -1.272380548475     0.636088211956    12.000000000000
         C           -0.242439727829     1.270753451525     0.636089211956    12.000000000000
         C            0.946636272171    -1.264164548475    -0.330077788044    12.000000000000
         C            0.946635272171     1.262537451525    -0.330078788044    12.000000000000
         C            1.790444272171    -0.000813548475    -0.157482788044    12.000000000000
         H           -1.880598727829    -0.000813548475     1.291387211956     1.007825032230
         H           -0.873306727829    -2.159953548475     0.495477211956     1.007825032230
         H            0.128362272171    -1.326278548475     1.666126211956     1.007825032230
         H            0.128363272171     1.324650451525     1.666127211956     1.007825032230
         H           -0.873306727829     2.158326451525     0.495478211956     1.007825032230
         H            0.608686272171    -1.346697548475    -1.374638788044     1.007825032230
         H            1.551274272171    -2.158829548475    -0.153395788044     1.007825032230
         H            1.551273272171     2.157202451525    -0.153396788044     1.007825032230
         H            0.608684272171     1.345069451525    -1.374638788044     1.007825032230
         H            2.237309272171    -0.000812548475     0.844596211956     1.007825032230
         H            2.620354272171    -0.000813548475    -0.870815788044     1.007825032230
         H           -1.138423727829    -0.000825548475    -1.574950788044     1.007825032230
         H           -2.406922727829     0.830572451525    -0.901875788044     1.007825032230
         H           -2.348931227829    -0.751372448475    -0.891684288044     1.007825032230

  Basis Set: AUG-CC-PVTZ
    Blend: AUG-CC-PVTZ
  Basis Set: (AUG-CC-PVTZ AUX)
    Blend: AUG-CC-PVTZ-JKFIT
	 Reference Energy          =    -289.7040579855450346 [Eh]
	 Singles Energy            =      -0.0000000000000000 [Eh]
	 Same-Spin Energy          =      -0.3070872137618675 [Eh]
	 Opposite-Spin Energy      =      -1.0922745026790843 [Eh]
	 Correlation Energy        =      -1.3993617164409518 [Eh]
	 Total Energy              =    -291.1034197019860130 [Eh]

	 ================> DF-SCS-MP2 Energies <==================
	-----------------------------------------------------------
	 SCS Same-Spin Scale       =       0.3333333333333333 [-]
	 SCS Opposite-Spin Scale   =       1.2000000000000000 [-]
	 SCS Same-Spin Energy      =      -0.1023624045872892 [Eh]
	 SCS Opposite-Spin Energy  =      -1.3107294032149011 [Eh]
	 SCS Correlation Energy    =      -1.4130918078021901 [Eh]
	 SCS Total Energy          =    -291.1171497933472097 [Eh]
	-----------------------------------------------------------

  Dipole Moment: [D]
     X:    -5.5131      Y:     0.0952      Z:    -2.0329     Total:     5.8767

*** Psi4 exiting successfully. Buy a developer a beer!
