                               Psi4 1.4a3.dev225

  ==> Input File <==

--------------------------------------------------------------------------
#psi4
#
memory 32 gb

molecule  {
1 1
  N       -1.8084550     0.0000000    -0.7896910
  C       -1.0774430     0.0000000     0.5533100
  C       -0.3504587    -1.1047867     0.6316906
  C       -0.2407120     1.2715670     0.6435240
  C        0.9483640    -1.2633510    -0.3226430
  C        0.9483630     1.2633510    -0.3226440
  C        1.7921720     0.0000000    -0.1500480
  H       -1.8788710     0.0000000     1.2988220
  H       -0.8715790    -2.1591400     0.5029120
  H        0.1300900    -1.3254650     1.6735610
  H        0.1300910     1.3254640     1.6735620
  H       -0.8715790     2.1591400     0.5029130
  H        0.6104140    -1.3458840    -1.3672040
  H        1.5530020    -2.1580160    -0.1459610
  H        1.5530010     2.1580160    -0.1459620
  H        0.6104120     1.3458830    -1.3672040
  H        2.2390370     0.0000010     0.8520310
  H        2.6220820     0.0000000    -0.8633810
  H       -1.1366960    -0.0000120    -1.5675160
  H       -2.4051950     0.8313860    -0.8944410
  H       -2.4052130    -0.8313750    -0.8944310
units angstrom
no_reorient  #important for SAPT in psi4, default
symmetry c1  #important for SAPT in psi4, default
}

set PROPERTIES_ORIGIN ["COM"]
properties('MP2/aug-cc-pvtz', properties = ['dipole'])
--------------------------------------------------------------------------

    Molecular point group: c1
  Charge       = 1
  Multiplicity = 1
  Basis Set: AUG-CC-PVTZ
    Blend: AUG-CC-PVTZ
  Basis Set: (AUG-CC-PVTZ AUX)
    Blend: AUG-CC-PVTZ-JKFIT

    Orbital Energies [Eh]
    ---------------------

    Doubly Occupied:

       1A    -15.874144     2A    -11.459990     3A    -11.394004
       4A    -11.391766     5A    -11.378695     6A    -11.372544
       7A    -11.356690     8A     -1.498536     9A     -1.297439
      10A     -1.192830    11A     -1.162222    12A     -1.016643
      13A     -1.000913    14A     -0.952403    15A     -0.932546
      16A     -0.920248    17A     -0.825247    18A     -0.823259
      19A     -0.761129    20A     -0.757192    21A     -0.728514
      22A     -0.700548    23A     -0.676322    24A     -0.672432
      25A     -0.635581    26A     -0.610096    27A     -0.601155
      28A     -0.569153

  @DF-RHF Final Energy:  -289.65973325399443

   => Energetics <=

    Nuclear Repulsion Energy =            349.1423754410305378
    One-Electron Energy =               -1072.4797312821608557
    Two-Electron Energy =                 433.6776225871359429
    Total Energy =                       -289.6597332539944318
  Basis Set: (AUG-CC-PVTZ AUX)
    Blend: AUG-CC-PVTZ-RI
    Molecular point group: c1

    Geometry (in Angstrom), charge = 1, multiplicity = 1:

       Center              X                  Y                   Z               Mass
    ------------   -----------------  -----------------  -----------------  -----------------
         N           -1.796443962776    -0.019991100975    -0.795605001116    14.003074004430
         C           -1.065431962776    -0.019991100975     0.547395998884    12.000000000000
         C           -0.338447662776    -1.124777800975     0.625776598884    12.000000000000
         C           -0.228700962776     1.251575899025     0.637609998884    12.000000000000
         C            0.960375037224    -1.283342100975    -0.328557001116    12.000000000000
         C            0.960374037224     1.243359899025    -0.328558001116    12.000000000000
         C            1.804183037224    -0.019991100975    -0.155962001116    12.000000000000
         H           -1.866859962776    -0.019991100975     1.292907998884     1.007825032230
         H           -0.859567962776    -2.179131100975     0.496997998884     1.007825032230
         H            0.142101037224    -1.345456100975     1.667646998884     1.007825032230
         H            0.142102037224     1.305472899025     1.667647998884     1.007825032230
         H           -0.859567962776     2.139148899025     0.496998998884     1.007825032230
         H            0.622425037224    -1.365875100975    -1.373118001116     1.007825032230
         H            1.565013037224    -2.178007100975    -0.151875001116     1.007825032230
         H            1.565012037224     2.138024899025    -0.151876001116     1.007825032230
         H            0.622423037224     1.325891899025    -1.373118001116     1.007825032230
         H            2.251048037224    -0.019990100975     0.846116998884     1.007825032230
         H            2.634093037224    -0.019991100975    -0.869295001116     1.007825032230
         H           -1.124684962776    -0.020003100975    -1.573430001116     1.007825032230
         H           -2.393183962776     0.811394899025    -0.900355001116     1.007825032230
         H           -2.393201962776    -0.851366100975    -0.900345001116     1.007825032230

  Basis Set: AUG-CC-PVTZ
    Blend: AUG-CC-PVTZ
  Basis Set: (AUG-CC-PVTZ AUX)
    Blend: AUG-CC-PVTZ-JKFIT
	 Reference Energy          =    -289.6597332539944318 [Eh]
	 Singles Energy            =      -0.0000000000000000 [Eh]
	 Same-Spin Energy          =      -0.3106579522358963 [Eh]
	 Opposite-Spin Energy      =      -1.0982900315142170 [Eh]
	 Correlation Energy        =      -1.4089479837501133 [Eh]
	 Total Energy              =    -291.0686812377445563 [Eh]

	 ================> DF-SCS-MP2 Energies <==================
	-----------------------------------------------------------
	 SCS Same-Spin Scale       =       0.3333333333333333 [-]
	 SCS Opposite-Spin Scale   =       1.2000000000000000 [-]
	 SCS Same-Spin Energy      =      -0.1035526507452988 [Eh]
	 SCS Opposite-Spin Energy  =      -1.3179480378170603 [Eh]
	 SCS Correlation Energy    =      -1.4215006885623591 [Eh]
	 SCS Total Energy          =    -291.0812339425567643 [Eh]
	-----------------------------------------------------------

  Dipole Moment: [D]
     X:    -5.4531      Y:    -0.0931      Z:    -2.0083     Total:     5.8119

*** Psi4 exiting successfully. Buy a developer a beer!
