                               Psi4 1.4a3.dev225

  ==> Input File <==

--------------------------------------------------------------------------
#psi4
#
memory 32 gb

molecule  {
1 1
  N       -1.8084550     0.0000000    -0.7896910
  C       -1.0610211     0.0091926     0.5344930
  C       -0.2407120    -1.2715670     0.6435230
  C       -0.2407120     1.2715670     0.6435240
  C        0.9483640    -1.2633510    -0.3226430
  C        0.9483630     1.2633510    -0.3226440
  C        1.7921720     0.0000000    -0.1500480
  H       -1.8788710     0.0000000     1.2988220
  H       -0.8715790    -2.1591400     0.5029120
  H        0.1300900    -1.3254650     1.6735610
  H        0.1300910     1.3254640     1.6735620
  H       -0.8715790     2.1591400     0.5029130
  H        0.6104140    -1.3458840    -1.3672040
  H        1.5530020    -2.1580160    -0.1459610
  H        1.5530010     2.1580160    -0.1459620
  H        0.6104120     1.3458830    -1.3672040
  H        2.2390370     0.0000010     0.8520310
  H        2.6220820     0.0000000    -0.8633810
  H       -1.1366960    -0.0000120    -1.5675160
  H       -2.4051950     0.8313860    -0.8944410
  H       -2.4052130    -0.8313750    -0.8944310
units angstrom
no_reorient  #important for SAPT in psi4, default
symmetry c1  #important for SAPT in psi4, default
}

set PROPERTIES_ORIGIN ["COM"]
properties('MP2/aug-cc-pvtz', properties = ['dipole'])
--------------------------------------------------------------------------

    Molecular point group: c1
  Charge       = 1
  Multiplicity = 1
  Basis Set: AUG-CC-PVTZ
    Blend: AUG-CC-PVTZ
  Basis Set: (AUG-CC-PVTZ AUX)
    Blend: AUG-CC-PVTZ-JKFIT

    Orbital Energies [Eh]
    ---------------------

    Doubly Occupied:

       1A    -15.875861     2A    -11.467218     3A    -11.390432
       4A    -11.389866     5A    -11.371414     6A    -11.371167
       7A    -11.357887     8A     -1.495059     9A     -1.279141
      10A     -1.173935    11A     -1.169932    12A     -1.008625
      13A     -1.006961    14A     -0.953699    15A     -0.935549
      16A     -0.918770    17A     -0.817961    18A     -0.809368
      19A     -0.763590    20A     -0.757250    21A     -0.699059
      22A     -0.694847    23A     -0.688724    24A     -0.685413
      25A     -0.647174    26A     -0.610994    27A     -0.596370
      28A     -0.592357

  @DF-RHF Final Energy:  -289.70856616638008

   => Energetics <=

    Nuclear Repulsion Energy =            347.0548052467120783
    One-Electron Energy =               -1068.4694909978152282
    Two-Electron Energy =                 431.7061195847231261
    Total Energy =                       -289.7085661663800806
  Basis Set: (AUG-CC-PVTZ AUX)
    Blend: AUG-CC-PVTZ-RI
    Molecular point group: c1

    Geometry (in Angstrom), charge = 1, multiplicity = 1:

       Center              X                  Y                   Z               Mass
    ------------   -----------------  -----------------  -----------------  -----------------
         N           -1.811567162355    -0.001101850890    -0.794767792018    14.003074004430
         C           -1.064133262355     0.008090749110     0.529416207982    12.000000000000
         C           -0.243824162355    -1.272668850890     0.638446207982    12.000000000000
         C           -0.243824162355     1.270465149110     0.638447207982    12.000000000000
         C            0.945251837645    -1.264452850890    -0.327719792018    12.000000000000
         C            0.945250837645     1.262249149110    -0.327720792018    12.000000000000
         C            1.789059837645    -0.001101850890    -0.155124792018    12.000000000000
         H           -1.881983162355    -0.001101850890     1.293745207982     1.007825032230
         H           -0.874691162355    -2.160241850890     0.497835207982     1.007825032230
         H            0.126977837645    -1.326566850890     1.668484207982     1.007825032230
         H            0.126978837645     1.324362149110     1.668485207982     1.007825032230
         H           -0.874691162355     2.158038149110     0.497836207982     1.007825032230
         H            0.607301837645    -1.346985850890    -1.372280792018     1.007825032230
         H            1.549889837645    -2.159117850890    -0.151037792018     1.007825032230
         H            1.549888837645     2.156914149110    -0.151038792018     1.007825032230
         H            0.607299837645     1.344781149110    -1.372280792018     1.007825032230
         H            2.235924837645    -0.001100850890     0.846954207982     1.007825032230
         H            2.618969837645    -0.001101850890    -0.868457792018     1.007825032230
         H           -1.139808162355    -0.001113850890    -1.572592792018     1.007825032230
         H           -2.408307162355     0.830284149110    -0.899517792018     1.007825032230
         H           -2.408325162355    -0.832476850890    -0.899507792018     1.007825032230

  Basis Set: AUG-CC-PVTZ
    Blend: AUG-CC-PVTZ
  Basis Set: (AUG-CC-PVTZ AUX)
    Blend: AUG-CC-PVTZ-JKFIT
	 Reference Energy          =    -289.7085661663800806 [Eh]
	 Singles Energy            =      -0.0000000000000000 [Eh]
	 Same-Spin Energy          =      -0.3078720128789417 [Eh]
	 Opposite-Spin Energy      =      -1.0941451201025680 [Eh]
	 Correlation Energy        =      -1.4020171329815097 [Eh]
	 Total Energy              =    -291.1105832993615650 [Eh]

	 ================> DF-SCS-MP2 Energies <==================
	-----------------------------------------------------------
	 SCS Same-Spin Scale       =       0.3333333333333333 [-]
	 SCS Opposite-Spin Scale   =       1.2000000000000000 [-]
	 SCS Same-Spin Energy      =      -0.1026240042929806 [Eh]
	 SCS Opposite-Spin Energy  =      -1.3129741441230816 [Eh]
	 SCS Correlation Energy    =      -1.4155981484160620 [Eh]
	 SCS Total Energy          =    -291.1241643147961327 [Eh]
	-----------------------------------------------------------

  Dipole Moment: [D]
     X:    -5.6082      Y:     0.0031      Z:    -2.0653     Total:     5.9764

*** Psi4 exiting successfully. Buy a developer a beer!
