                               Psi4 1.4a3.dev225

  ==> Input File <==

--------------------------------------------------------------------------
#psi4
#
memory 32 gb

molecule  {
1 1
  N       -1.8084550     0.0000000    -0.7896910
  C       -1.0774430     0.0000000     0.5533100
  C       -0.2407120    -1.2715670     0.6435230
  C       -0.2407120     1.2715670     0.6435240
  C        0.9483640    -1.2633510    -0.3226430
  C        0.9483630     1.2633510    -0.3226440
  C        1.7921720     0.0000000    -0.1500480
  H       -1.8788710     0.0000000     1.2988220
  H       -0.8715790    -2.1591400     0.5029120
  H        0.1300900    -1.3254650     1.6735610
  H        0.1300910     1.3254640     1.6735620
  H       -0.8715790     2.1591400     0.5029130
  H        0.6104140    -1.3458840    -1.3672040
  H        1.5530020    -2.1580160    -0.1459610
  H        1.5530010     2.1580160    -0.1459620
  H        0.6104120     1.3458830    -1.3672040
  H        2.2390370     0.0000010     0.8520310
  H        2.6220820     0.0000000    -0.8633810
  H       -1.1366960    -0.0000120    -1.5675160
  H       -2.4051950     0.8313860    -0.8944410
  H       -2.4052130    -0.8313750    -0.8944310
units angstrom
no_reorient  #important for SAPT in psi4, default
symmetry c1  #important for SAPT in psi4, default
}

set PROPERTIES_ORIGIN ["COM"]
properties('MP2/aug-cc-pvtz', properties = ['dipole'])
--------------------------------------------------------------------------

    Molecular point group: c1
  Charge       = 1
  Multiplicity = 1
  Basis Set: AUG-CC-PVTZ
    Blend: AUG-CC-PVTZ
  Basis Set: (AUG-CC-PVTZ AUX)
    Blend: AUG-CC-PVTZ-JKFIT

    Orbital Energies [Eh]
    ---------------------

    Doubly Occupied:

       1A    -15.874540     2A    -11.466778     3A    -11.390498
       4A    -11.390486     5A    -11.371665     6A    -11.371662
       7A    -11.357878     8A     -1.492425     9A     -1.277627
      10A     -1.172672    11A     -1.170672    12A     -1.010135
      13A     -1.006318    14A     -0.950969    15A     -0.934282
      16A     -0.918388    17A     -0.815513    18A     -0.813921
      19A     -0.764055    20A     -0.756354    21A     -0.698718
      22A     -0.696154    23A     -0.687098    24A     -0.686150
      25A     -0.646559    26A     -0.611012    27A     -0.595538
      28A     -0.594936

  @DF-RHF Final Energy:  -289.70975570365169

   => Energetics <=

    Nuclear Repulsion Energy =            346.6981719550715866
    One-Electron Energy =               -1067.7698528436560537
    Two-Electron Energy =                 431.3619251849328293
    Total Energy =                       -289.7097557036516946
  Basis Set: (AUG-CC-PVTZ AUX)
    Blend: AUG-CC-PVTZ-RI
    Molecular point group: c1

    Geometry (in Angstrom), charge = 1, multiplicity = 1:

       Center              X                  Y                   Z               Mass
    ------------   -----------------  -----------------  -----------------  -----------------
         N           -1.809598751268     0.000000020134    -0.797023291774    14.003074004430
         C           -1.078586751268     0.000000020134     0.545977708226    12.000000000000
         C           -0.241855751268    -1.271566979866     0.636190708226    12.000000000000
         C           -0.241855751268     1.271567020134     0.636191708226    12.000000000000
         C            0.947220248732    -1.263350979866    -0.329975291774    12.000000000000
         C            0.947219248732     1.263351020134    -0.329976291774    12.000000000000
         C            1.791028248732     0.000000020134    -0.157380291774    12.000000000000
         H           -1.880014751268     0.000000020134     1.291489708226     1.007825032230
         H           -0.872722751268    -2.159139979866     0.495579708226     1.007825032230
         H            0.128946248732    -1.325464979866     1.666228708226     1.007825032230
         H            0.128947248732     1.325464020134     1.666229708226     1.007825032230
         H           -0.872722751268     2.159140020134     0.495580708226     1.007825032230
         H            0.609270248732    -1.345883979866    -1.374536291774     1.007825032230
         H            1.551858248732    -2.158015979866    -0.153293291774     1.007825032230
         H            1.551857248732     2.158016020134    -0.153294291774     1.007825032230
         H            0.609268248732     1.345883020134    -1.374536291774     1.007825032230
         H            2.237893248732     0.000001020134     0.844698708226     1.007825032230
         H            2.620938248732     0.000000020134    -0.870713291774     1.007825032230
         H           -1.137839751268    -0.000011979866    -1.574848291774     1.007825032230
         H           -2.406338751268     0.831386020134    -0.901773291774     1.007825032230
         H           -2.406356751268    -0.831374979866    -0.901763291774     1.007825032230

  Basis Set: AUG-CC-PVTZ
    Blend: AUG-CC-PVTZ
  Basis Set: (AUG-CC-PVTZ AUX)
    Blend: AUG-CC-PVTZ-JKFIT
	 Reference Energy          =    -289.7097557036516946 [Eh]
	 Singles Energy            =      -0.0000000000000000 [Eh]
	 Same-Spin Energy          =      -0.3076357605505635 [Eh]
	 Opposite-Spin Energy      =      -1.0938982985431769 [Eh]
	 Correlation Energy        =      -1.4015340590937404 [Eh]
	 Total Energy              =    -291.1112897627454572 [Eh]

	 ================> DF-SCS-MP2 Energies <==================
	-----------------------------------------------------------
	 SCS Same-Spin Scale       =       0.3333333333333333 [-]
	 SCS Opposite-Spin Scale   =       1.2000000000000000 [-]
	 SCS Same-Spin Energy      =      -0.1025452535168545 [Eh]
	 SCS Opposite-Spin Energy  =      -1.3126779582518122 [Eh]
	 SCS Correlation Energy    =      -1.4152232117686667 [Eh]
	 SCS Total Energy          =    -291.1249789154203427 [Eh]
	-----------------------------------------------------------

  Dipole Moment: [D]
     X:    -5.5993      Y:    -0.0000      Z:    -2.0510     Total:     5.9631

*** Psi4 exiting successfully. Buy a developer a beer!
