                               Psi4 1.4a2.dev612

  ==> Input File <==

--------------------------------------------------------------------------
#psi4
#
memory 32 gb

molecule  {
-1 1
  O        0.5632720    -1.1719080    -0.3765930
  O       -2.2370500    -0.5589400     1.0879600
  O       -2.5032960     0.1554020    -1.0563790
  C        1.9927080     0.6815170     0.1510220
  C        0.6435570     0.0091630    -0.0366810
  C       -0.4505187     0.6824795     0.0865395
  C        3.1729130    -0.2631210    -0.0329300
  C       -1.9010600     0.0931950     0.0560670
  H        2.0429660     1.5133360    -0.5640360
  H        2.0060190     1.1470430     1.1438410
  H       -0.4967450     1.3515110     1.1569670
  H       -0.5352790     1.6874700    -0.5756840
  H        3.1399490    -1.0742180     0.6982180
  H        3.1613950    -0.7098910    -1.0291440
  H        4.1160350     0.2752530     0.0934100
units angstrom
no_reorient  #important for SAPT in psi4, default
symmetry c1  #important for SAPT in psi4, default
}

set PROPERTIES_ORIGIN ["COM"]
properties('MP2/aug-cc-pvtz', properties = ['dipole'])
--------------------------------------------------------------------------

    Molecular point group: c1
  Charge       = -1
  Multiplicity = 1
  Basis Set: AUG-CC-PVTZ
    Blend: AUG-CC-PVTZ
  Basis Set: (AUG-CC-PVTZ AUX)
    Blend: AUG-CC-PVTZ-JKFIT

    Orbital Energies [Eh]
    ---------------------

    Doubly Occupied:

       1A    -20.398919     2A    -20.302483     3A    -20.299997
       4A    -11.180827     5A    -11.155324     6A    -11.127825
       7A    -11.118799     8A    -11.093848     9A     -1.242147
      10A     -1.168448    11A     -1.069135    12A     -0.955862
      13A     -0.898868    14A     -0.762951    15A     -0.628359
      16A     -0.552427    17A     -0.529464    18A     -0.525285
      19A     -0.469450    20A     -0.445332    21A     -0.441624
      22A     -0.410370    23A     -0.401544    24A     -0.394628
      25A     -0.375737    26A     -0.342019    27A     -0.306112
      28A     -0.288791    29A     -0.213084    30A     -0.209640
      31A     -0.196315

  @DF-RHF Final Energy:  -418.12607504769460

   => Energetics <=

    Nuclear Repulsion Energy =            359.9738521930360093
    One-Electron Energy =               -1297.1886276569073289
    Two-Electron Energy =                 519.0887004161767209
    Total Energy =                       -418.1260750476945987
  Basis Set: (AUG-CC-PVTZ AUX)
    Blend: AUG-CC-PVTZ-RI
    Molecular point group: c1

    Geometry (in Angstrom), charge = -1, multiplicity = 1:

       Center              X                  Y                   Z               Mass
    ------------   -----------------  -----------------  -----------------  -----------------
         O            0.665682774488    -1.115083810531    -0.360081904359    15.994914619570
         O           -2.134639225512    -0.502115810531     1.104471095641    15.994914619570
         O           -2.400885225512     0.212226189469    -1.039867904359    15.994914619570
         C            2.095118774488     0.738341189469     0.167533095641    12.000000000000
         C            0.745967774488     0.065987189469    -0.020169904359    12.000000000000
         C           -0.348107925512     0.739303689469     0.103050595641    12.000000000000
         C            3.275323774488    -0.206296810531    -0.016418904359    12.000000000000
         C           -1.798649225512     0.150019189469     0.072578095641    12.000000000000
         H            2.145376774488     1.570160189469    -0.547524904359     1.007825032230
         H            2.108429774488     1.203867189469     1.160352095641     1.007825032230
         H           -0.394334225512     1.408335189469     1.173478095641     1.007825032230
         H           -0.432868225512     1.744294189469    -0.559172904359     1.007825032230
         H            3.242359774488    -1.017393810531     0.714729095641     1.007825032230
         H            3.263805774488    -0.653066810531    -1.012632904359     1.007825032230
         H            4.218445774488     0.332077189469     0.109921095641     1.007825032230

  Basis Set: AUG-CC-PVTZ
    Blend: AUG-CC-PVTZ
  Basis Set: (AUG-CC-PVTZ AUX)
    Blend: AUG-CC-PVTZ-JKFIT
	 Reference Energy          =    -418.1260750476945987 [Eh]
	 Singles Energy            =      -0.0000000000000000 [Eh]
	 Same-Spin Energy          =      -0.4203693360136175 [Eh]
	 Opposite-Spin Energy      =      -1.2989816123181945 [Eh]
	 Correlation Energy        =      -1.7193509483318121 [Eh]
	 Total Energy              =    -419.8454259960263926 [Eh]

	 ================> DF-SCS-MP2 Energies <==================
	-----------------------------------------------------------
	 SCS Same-Spin Scale       =       0.3333333333333333 [-]
	 SCS Opposite-Spin Scale   =       1.2000000000000000 [-]
	 SCS Same-Spin Energy      =      -0.1401231120045391 [Eh]
	 SCS Opposite-Spin Energy  =      -1.5587779347818334 [Eh]
	 SCS Correlation Energy    =      -1.6989010467863725 [Eh]
	 SCS Total Energy          =    -419.8249760944809736 [Eh]
	-----------------------------------------------------------

  Dipole Moment: [D]
     X:     9.5240      Y:     3.4477      Z:     0.5711     Total:    10.1449

*** Psi4 exiting successfully. Buy a developer a beer!
