                               Psi4 1.4a2.dev612

  ==> Input File <==

--------------------------------------------------------------------------
#psi4
#
memory 32 gb

molecule  {
-1 1
  O        0.5632720    -1.1719080    -0.3765930
  O       -2.2370500    -0.5589400     1.0879600
  O       -2.5032960     0.1554020    -1.0563790
  C        1.9927080     0.6815170     0.1510220
  C        0.6435570     0.0091630    -0.0366810
  C       -0.4250743     0.6426906     0.0701255
  C        3.1729130    -0.2631210    -0.0329300
  C       -1.9010600     0.0931950     0.0560670
  H        2.0429660     1.5133360    -0.5640360
  H        2.0060190     1.1470430     1.1438410
  H       -0.4967450     1.3515110     1.1569670
  H       -0.5352790     1.6874700    -0.5756840
  H        3.1399490    -1.0742180     0.6982180
  H        3.1613950    -0.7098910    -1.0291440
  H        4.1160350     0.2752530     0.0934100
units angstrom
no_reorient  #important for SAPT in psi4, default
symmetry c1  #important for SAPT in psi4, default
}

set PROPERTIES_ORIGIN ["COM"]
properties('MP2/aug-cc-pvtz', properties = ['dipole'])
--------------------------------------------------------------------------

    Molecular point group: c1
  Charge       = -1
  Multiplicity = 1
  Basis Set: AUG-CC-PVTZ
    Blend: AUG-CC-PVTZ
  Basis Set: (AUG-CC-PVTZ AUX)
    Blend: AUG-CC-PVTZ-JKFIT

    Orbital Energies [Eh]
    ---------------------

    Doubly Occupied:

       1A    -20.395903     2A    -20.304397     3A    -20.301745
       4A    -11.175099     5A    -11.158396     6A    -11.127056
       7A    -11.118092     8A    -11.096253     9A     -1.243519
      10A     -1.169825    11A     -1.070755    12A     -0.958495
      13A     -0.905461    14A     -0.762129    15A     -0.631610
      16A     -0.554607    17A     -0.528689    18A     -0.524912
      19A     -0.469064    20A     -0.445821    21A     -0.441635
      22A     -0.410003    23A     -0.401834    24A     -0.390891
      25A     -0.376147    26A     -0.342374    27A     -0.297432
      28A     -0.287612    29A     -0.214018    30A     -0.209625
      31A     -0.197506

  @DF-RHF Final Energy:  -418.09208261506160

   => Energetics <=

    Nuclear Repulsion Energy =            360.6759782674766939
    One-Electron Energy =               -1298.5143092202233674
    Two-Electron Energy =                 519.7462483376850741
    Total Energy =                       -418.0920826150615994
  Basis Set: (AUG-CC-PVTZ AUX)
    Blend: AUG-CC-PVTZ-RI
    Molecular point group: c1

    Geometry (in Angstrom), charge = -1, multiplicity = 1:

       Center              X                  Y                   Z               Mass
    ------------   -----------------  -----------------  -----------------  -----------------
         O            0.663028618747    -1.110933351595    -0.358369727522    15.994914619570
         O           -2.137293381253    -0.497965351595     1.106183272478    15.994914619570
         O           -2.403539381253     0.216376648405    -1.038155727522    15.994914619570
         C            2.092464618747     0.742491648405     0.169245272478    12.000000000000
         C            0.743313618747     0.070137648405    -0.018457727522    12.000000000000
         C           -0.325317681253     0.703665248405     0.088348772478    12.000000000000
         C            3.272669618747    -0.202146351595    -0.014706727522    12.000000000000
         C           -1.801303381253     0.154169648405     0.074290272478    12.000000000000
         H            2.142722618747     1.574310648405    -0.545812727522     1.007825032230
         H            2.105775618747     1.208017648405     1.162064272478     1.007825032230
         H           -0.396988381253     1.412485648405     1.175190272478     1.007825032230
         H           -0.435522381253     1.748444648405    -0.557460727522     1.007825032230
         H            3.239705618747    -1.013243351595     0.716441272478     1.007825032230
         H            3.261151618747    -0.648916351595    -1.010920727522     1.007825032230
         H            4.215791618747     0.336227648405     0.111633272478     1.007825032230

  Basis Set: AUG-CC-PVTZ
    Blend: AUG-CC-PVTZ
  Basis Set: (AUG-CC-PVTZ AUX)
    Blend: AUG-CC-PVTZ-JKFIT
	 Reference Energy          =    -418.0920826150615994 [Eh]
	 Singles Energy            =      -0.0000000000000000 [Eh]
	 Same-Spin Energy          =      -0.4219924962057543 [Eh]
	 Opposite-Spin Energy      =      -1.3016298454835842 [Eh]
	 Correlation Energy        =      -1.7236223416893384 [Eh]
	 Total Energy              =    -419.8157049567509489 [Eh]

	 ================> DF-SCS-MP2 Energies <==================
	-----------------------------------------------------------
	 SCS Same-Spin Scale       =       0.3333333333333333 [-]
	 SCS Opposite-Spin Scale   =       1.2000000000000000 [-]
	 SCS Same-Spin Energy      =      -0.1406641654019181 [Eh]
	 SCS Opposite-Spin Energy  =      -1.5619558145803010 [Eh]
	 SCS Correlation Energy    =      -1.7026199799822190 [Eh]
	 SCS Total Energy          =    -419.7947025950438160 [Eh]
	-----------------------------------------------------------

  Dipole Moment: [D]
     X:     9.3873      Y:     3.4323      Z:     0.5559     Total:    10.0106

*** Psi4 exiting successfully. Buy a developer a beer!
