                               Psi4 1.4a2.dev612

  ==> Input File <==

--------------------------------------------------------------------------
#psi4
#
memory 32 gb

molecule  {
-1 1
  O        0.5632720    -1.1719080    -0.3765930
  O       -2.2370500    -0.5589400     1.0879600
  O       -2.5032960     0.1554020    -1.0563790
  C        1.9927080     0.6815170     0.1510220
  C        0.6435570     0.0091630    -0.0366810
  C       -0.5812206     0.8154686     0.4097278
  C        3.1729130    -0.2631210    -0.0329300
  C       -1.9010600     0.0931950     0.0560670
  H        2.0429660     1.5133360    -0.5640360
  H        2.0060190     1.1470430     1.1438410
  H       -0.4967450     1.3515110     1.1569670
  H       -0.5352790     1.6874700    -0.5756840
  H        3.1399490    -1.0742180     0.6982180
  H        3.1613950    -0.7098910    -1.0291440
  H        4.1160350     0.2752530     0.0934100
units angstrom
no_reorient  #important for SAPT in psi4, default
symmetry c1  #important for SAPT in psi4, default
}

set PROPERTIES_ORIGIN ["COM"]
properties('MP2/aug-cc-pvtz', properties = ['dipole'])
--------------------------------------------------------------------------

    Molecular point group: c1
  Charge       = -1
  Multiplicity = 1
  Basis Set: AUG-CC-PVTZ
    Blend: AUG-CC-PVTZ
  Basis Set: (AUG-CC-PVTZ AUX)
    Blend: AUG-CC-PVTZ-JKFIT

    Orbital Energies [Eh]
    ---------------------

    Doubly Occupied:

       1A    -20.409712     2A    -20.304130     3A    -20.293167
       4A    -11.204644     5A    -11.151107     6A    -11.130099
       7A    -11.120765     8A    -11.092779     9A     -1.239625
      10A     -1.167745    11A     -1.068184    12A     -0.949581
      13A     -0.870397    14A     -0.768694    15A     -0.614323
      16A     -0.565747    17A     -0.534382    18A     -0.522179
      19A     -0.485148    20A     -0.448159    21A     -0.432175
      22A     -0.414754    23A     -0.409141    24A     -0.401802
      25A     -0.370306    26A     -0.344398    27A     -0.323765
      28A     -0.276736    29A     -0.217568    30A     -0.198259
      31A     -0.195340

  @DF-RHF Final Energy:  -418.13337681498615

   => Energetics <=

    Nuclear Repulsion Energy =            356.6367573262269275
    One-Electron Energy =               -1290.4906418287177985
    Two-Electron Energy =                 515.7205076875047780
    Total Energy =                       -418.1333768149861498
  Basis Set: (AUG-CC-PVTZ AUX)
    Blend: AUG-CC-PVTZ-RI
    Molecular point group: c1

    Geometry (in Angstrom), charge = -1, multiplicity = 1:

       Center              X                  Y                   Z               Mass
    ------------   -----------------  -----------------  -----------------  -----------------
         O            0.679316548451    -1.128956166854    -0.393794315806    15.994914619570
         O           -2.121005451549    -0.515988166854     1.070758684194    15.994914619570
         O           -2.387251451549     0.198353833146    -1.073580315806    15.994914619570
         C            2.108752548451     0.724468833146     0.133820684194    12.000000000000
         C            0.759601548451     0.052114833146    -0.053882315806    12.000000000000
         C           -0.465176051549     0.858420433146     0.392526484194    12.000000000000
         C            3.288957548451    -0.220169166854    -0.050131315806    12.000000000000
         C           -1.785015451549     0.136146833146     0.038865684194    12.000000000000
         H            2.159010548451     1.556287833146    -0.581237315806     1.007825032230
         H            2.122063548451     1.189994833146     1.126639684194     1.007825032230
         H           -0.380700451549     1.394462833146     1.139765684194     1.007825032230
         H           -0.419234451549     1.730421833146    -0.592885315806     1.007825032230
         H            3.255993548451    -1.031266166854     0.681016684194     1.007825032230
         H            3.277439548451    -0.666939166854    -1.046345315806     1.007825032230
         H            4.232079548451     0.318204833146     0.076208684194     1.007825032230

  Basis Set: AUG-CC-PVTZ
    Blend: AUG-CC-PVTZ
  Basis Set: (AUG-CC-PVTZ AUX)
    Blend: AUG-CC-PVTZ-JKFIT
	 Reference Energy          =    -418.1333768149861498 [Eh]
	 Singles Energy            =      -0.0000000000000000 [Eh]
	 Same-Spin Energy          =      -0.4175445652311286 [Eh]
	 Opposite-Spin Energy      =      -1.2961240685033157 [Eh]
	 Correlation Energy        =      -1.7136686337344442 [Eh]
	 Total Energy              =    -419.8470454487206212 [Eh]

	 ================> DF-SCS-MP2 Energies <==================
	-----------------------------------------------------------
	 SCS Same-Spin Scale       =       0.3333333333333333 [-]
	 SCS Opposite-Spin Scale   =       1.2000000000000000 [-]
	 SCS Same-Spin Energy      =      -0.1391815217437095 [Eh]
	 SCS Opposite-Spin Energy  =      -1.5553488822039789 [Eh]
	 SCS Correlation Energy    =      -1.6945304039476885 [Eh]
	 SCS Total Energy          =    -419.8279072189338308 [Eh]
	-----------------------------------------------------------

  Dipole Moment: [D]
     X:     9.8119      Y:     3.2805      Z:     0.9477     Total:    10.3891

*** Psi4 exiting successfully. Buy a developer a beer!
