                               Psi4 1.4a2.dev612

  ==> Input File <==

--------------------------------------------------------------------------
#psi4
#
memory 32 gb

molecule  {
-1 1
  O        0.5632720    -1.1719080    -0.3765930
  O       -2.2370500    -0.5589400     1.0879600
  O       -2.5032960     0.1554020    -1.0563790
  C        1.9927080     0.6815170     0.1510220
  C        0.6435570     0.0091630    -0.0366810
  C       -0.4759632     0.7222684     0.1029536
  C        3.1729130    -0.2631210    -0.0329300
  C       -1.9010600     0.0931950     0.0560670
  H        2.0429660     1.5133360    -0.5640360
  H        2.0060190     1.1470430     1.1438410
  H       -0.4967450     1.3515110     1.1569670
  H       -0.5352790     1.6874700    -0.5756840
  H        3.1399490    -1.0742180     0.6982180
  H        3.1613950    -0.7098910    -1.0291440
  H        4.1160350     0.2752530     0.0934100
units angstrom
no_reorient  #important for SAPT in psi4, default
symmetry c1  #important for SAPT in psi4, default
}

set PROPERTIES_ORIGIN ["COM"]
properties('MP2/aug-cc-pvtz', properties = ['dipole'])
--------------------------------------------------------------------------

    Molecular point group: c1
  Charge       = -1
  Multiplicity = 1
  Basis Set: AUG-CC-PVTZ
    Blend: AUG-CC-PVTZ
  Basis Set: (AUG-CC-PVTZ AUX)
    Blend: AUG-CC-PVTZ-JKFIT

    Orbital Energies [Eh]
    ---------------------

    Doubly Occupied:

       1A    -20.401702     2A    -20.300811     3A    -20.298497
       4A    -11.185935     5A    -11.152630     6A    -11.128513
       7A    -11.119417     8A    -11.091387     9A     -1.241194
      10A     -1.167233    11A     -1.067717    12A     -0.953938
      13A     -0.891989    14A     -0.763779    15A     -0.624769
      16A     -0.549668    17A     -0.530364    18A     -0.525586
      19A     -0.470016    20A     -0.445222    21A     -0.441704
      22A     -0.410560    23A     -0.401562    24A     -0.398184
      25A     -0.375508    26A     -0.341509    27A     -0.314931
      28A     -0.288925    29A     -0.212266    30A     -0.209397
      31A     -0.195257

  @DF-RHF Final Energy:  -418.15240956757407

   => Energetics <=

    Nuclear Repulsion Energy =            359.2932269772859968
    One-Electron Energy =               -1295.8909329327905198
    Two-Electron Energy =                 518.4452963879305116
    Total Energy =                       -418.1524095675740682
  Basis Set: (AUG-CC-PVTZ AUX)
    Blend: AUG-CC-PVTZ-RI
    Molecular point group: c1

    Geometry (in Angstrom), charge = -1, multiplicity = 1:

       Center              X                  Y                   Z               Mass
    ------------   -----------------  -----------------  -----------------  -----------------
         O            0.668336940660    -1.119234269467    -0.361794091628    15.994914619570
         O           -2.131985059340    -0.506266269467     1.102758908372    15.994914619570
         O           -2.398231059340     0.208075730533    -1.041580091628    15.994914619570
         C            2.097772940660     0.734190730533     0.165820908372    12.000000000000
         C            0.748621940660     0.061836730533    -0.021882091628    12.000000000000
         C           -0.370898259340     0.774942130533     0.117752508372    12.000000000000
         C            3.277977940660    -0.210447269467    -0.018131091628    12.000000000000
         C           -1.795995059340     0.145868730533     0.070865908372    12.000000000000
         H            2.148030940660     1.566009730533    -0.549237091628     1.007825032230
         H            2.111083940660     1.199716730533     1.158639908372     1.007825032230
         H           -0.391680059340     1.404184730533     1.171765908372     1.007825032230
         H           -0.430214059340     1.740143730533    -0.560885091628     1.007825032230
         H            3.245013940660    -1.021544269467     0.713016908372     1.007825032230
         H            3.266459940660    -0.657217269467    -1.014345091628     1.007825032230
         H            4.221099940660     0.327926730533     0.108208908372     1.007825032230

  Basis Set: AUG-CC-PVTZ
    Blend: AUG-CC-PVTZ
  Basis Set: (AUG-CC-PVTZ AUX)
    Blend: AUG-CC-PVTZ-JKFIT
	 Reference Energy          =    -418.1524095675740682 [Eh]
	 Singles Energy            =      -0.0000000000000000 [Eh]
	 Same-Spin Energy          =      -0.4190364051730857 [Eh]
	 Opposite-Spin Energy      =      -1.2968188736293740 [Eh]
	 Correlation Energy        =      -1.7158552788024597 [Eh]
	 Total Energy              =    -419.8682648463765190 [Eh]

	 ================> DF-SCS-MP2 Energies <==================
	-----------------------------------------------------------
	 SCS Same-Spin Scale       =       0.3333333333333333 [-]
	 SCS Opposite-Spin Scale   =       1.2000000000000000 [-]
	 SCS Same-Spin Energy      =      -0.1396788017243619 [Eh]
	 SCS Opposite-Spin Energy  =      -1.5561826483552488 [Eh]
	 SCS Correlation Energy    =      -1.6958614500796108 [Eh]
	 SCS Total Energy          =    -419.8482710176537012 [Eh]
	-----------------------------------------------------------

  Dipole Moment: [D]
     X:     9.6472      Y:     3.4554      Z:     0.5847     Total:    10.2640

*** Psi4 exiting successfully. Buy a developer a beer!
