                               Psi4 1.4a2.dev612

  ==> Input File <==

--------------------------------------------------------------------------
#psi4
#
memory 32 gb

molecule  {
-1 1
  O        0.5632720    -1.1719080    -0.3765930
  O       -2.2370500    -0.5589400     1.0879600
  O       -2.5032960     0.1554020    -1.0563790
  C        1.9927080     0.6815170     0.1510220
  C        0.6435570     0.0091630    -0.0366810
  C       -0.5784369     0.8682329     0.2168336
  C        3.1729130    -0.2631210    -0.0329300
  C       -1.9010600     0.0931950     0.0560670
  H        2.0429660     1.5133360    -0.5640360
  H        2.0060190     1.1470430     1.1438410
  H       -0.4967450     1.3515110     1.1569670
  H       -0.5352790     1.6874700    -0.5756840
  H        3.1399490    -1.0742180     0.6982180
  H        3.1613950    -0.7098910    -1.0291440
  H        4.1160350     0.2752530     0.0934100
units angstrom
no_reorient  #important for SAPT in psi4, default
symmetry c1  #important for SAPT in psi4, default
}

set PROPERTIES_ORIGIN ["COM"]
properties('MP2/aug-cc-pvtz', properties = ['dipole'])
--------------------------------------------------------------------------

    Molecular point group: c1
  Charge       = -1
  Multiplicity = 1
  Basis Set: AUG-CC-PVTZ
    Blend: AUG-CC-PVTZ
  Basis Set: (AUG-CC-PVTZ AUX)
    Blend: AUG-CC-PVTZ-JKFIT

    Orbital Energies [Eh]
    ---------------------

    Doubly Occupied:

       1A    -20.410060     2A    -20.297555     3A    -20.293768
       4A    -11.200324     5A    -11.146168     6A    -11.130307
       7A    -11.120922     8A    -11.083607     9A     -1.239451
      10A     -1.164143    11A     -1.064195    12A     -0.949878
      13A     -0.868303    14A     -0.767081    15A     -0.612052
      16A     -0.539612    17A     -0.531105    18A     -0.525773
      19A     -0.472727    20A     -0.452557    21A     -0.439463
      22A     -0.411404    23A     -0.408190    24A     -0.403227
      25A     -0.376421    26A     -0.344435    27A     -0.337215
      28A     -0.280202    29A     -0.211181    30A     -0.206363
      31A     -0.192569

  @DF-RHF Final Energy:  -418.19299830641688

   => Energetics <=

    Nuclear Repulsion Energy =            356.7532338129920504
    One-Electron Energy =               -1290.9319454898454751
    Two-Electron Energy =                 515.9857133704365424
    Total Energy =                       -418.1929983064169392
  Basis Set: (AUG-CC-PVTZ AUX)
    Blend: AUG-CC-PVTZ-RI
    Molecular point group: c1

    Geometry (in Angstrom), charge = -1, multiplicity = 1:

       Center              X                  Y                   Z               Mass
    ------------   -----------------  -----------------  -----------------  -----------------
         O            0.679026175192    -1.134460115454    -0.373673139897    15.994914619570
         O           -2.121295824808    -0.521492115454     1.090879860103    15.994914619570
         O           -2.387541824808     0.192849884546    -1.053459139897    15.994914619570
         C            2.108462175192     0.718964884546     0.153941860103    12.000000000000
         C            0.759311175192     0.046610884546    -0.033761139897    12.000000000000
         C           -0.462682724808     0.905680784546     0.219753460103    12.000000000000
         C            3.288667175192    -0.225673115454    -0.030010139897    12.000000000000
         C           -1.785305824808     0.130642884546     0.058986860103    12.000000000000
         H            2.158720175192     1.550783884546    -0.561116139897     1.007825032230
         H            2.121773175192     1.184490884546     1.146760860103     1.007825032230
         H           -0.380990824808     1.388958884546     1.159886860103     1.007825032230
         H           -0.419524824808     1.724917884546    -0.572764139897     1.007825032230
         H            3.255703175192    -1.036770115454     0.701137860103     1.007825032230
         H            3.277149175192    -0.672443115454    -1.026224139897     1.007825032230
         H            4.231789175192     0.312700884546     0.096329860103     1.007825032230

  Basis Set: AUG-CC-PVTZ
    Blend: AUG-CC-PVTZ
  Basis Set: (AUG-CC-PVTZ AUX)
    Blend: AUG-CC-PVTZ-JKFIT
	 Reference Energy          =    -418.1929983064168823 [Eh]
	 Singles Energy            =      -0.0000000000000000 [Eh]
	 Same-Spin Energy          =      -0.4162722649473092 [Eh]
	 Opposite-Spin Energy      =      -1.2927095516162668 [Eh]
	 Correlation Energy        =      -1.7089818165635760 [Eh]
	 Total Energy              =    -419.9019801229804330 [Eh]

	 ================> DF-SCS-MP2 Energies <==================
	-----------------------------------------------------------
	 SCS Same-Spin Scale       =       0.3333333333333333 [-]
	 SCS Opposite-Spin Scale   =       1.2000000000000000 [-]
	 SCS Same-Spin Energy      =      -0.1387574216491031 [Eh]
	 SCS Opposite-Spin Energy  =      -1.5512514619395201 [Eh]
	 SCS Correlation Energy    =      -1.6900088835886231 [Eh]
	 SCS Total Energy          =    -419.8830071900055145 [Eh]
	-----------------------------------------------------------

  Dipole Moment: [D]
     X:     9.9815      Y:     3.4464      Z:     0.6962     Total:    10.5827

*** Psi4 exiting successfully. Buy a developer a beer!
