                               Psi4 1.4a2.dev612

  ==> Input File <==

--------------------------------------------------------------------------
#psi4
#
memory 32 gb

molecule  {
-1 1
  O        0.5632720    -1.1719080    -0.3765930
  O       -2.2370500    -0.5589400     1.0879600
  O       -2.5032960     0.1554020    -1.0563790
  C        1.9927080     0.6815170     0.1510220
  C        0.6435570     0.0091630    -0.0366810
  C       -0.5819165     0.8022775     0.4579513
  C        3.1729130    -0.2631210    -0.0329300
  C       -1.9010600     0.0931950     0.0560670
  H        2.0429660     1.5133360    -0.5640360
  H        2.0060190     1.1470430     1.1438410
  H       -0.4967450     1.3515110     1.1569670
  H       -0.5352790     1.6874700    -0.5756840
  H        3.1399490    -1.0742180     0.6982180
  H        3.1613950    -0.7098910    -1.0291440
  H        4.1160350     0.2752530     0.0934100
units angstrom
no_reorient  #important for SAPT in psi4, default
symmetry c1  #important for SAPT in psi4, default
}

set PROPERTIES_ORIGIN ["COM"]
properties('MP2/aug-cc-pvtz', properties = ['dipole'])
--------------------------------------------------------------------------

    Molecular point group: c1
  Charge       = -1
  Multiplicity = 1
  Basis Set: AUG-CC-PVTZ
    Blend: AUG-CC-PVTZ
  Basis Set: (AUG-CC-PVTZ AUX)
    Blend: AUG-CC-PVTZ-JKFIT

    Orbital Energies [Eh]
    ---------------------

    Doubly Occupied:

       1A    -20.409639     2A    -20.306303     3A    -20.293814
       4A    -11.206436     5A    -11.153528     6A    -11.129933
       7A    -11.120621     8A    -11.096617     9A     -1.239708
      10A     -1.169278    11A     -1.069947    12A     -0.949382
      13A     -0.871351    14A     -0.769334    15A     -0.615695
      16A     -0.574106    17A     -0.534358    18A     -0.521309
      19A     -0.486577    20A     -0.449223    21A     -0.430534
      22A     -0.415441    23A     -0.409149    24A     -0.401545
      25A     -0.369225    26A     -0.345876    27A     -0.317927
      28A     -0.275034    29A     -0.219178    30A     -0.196813
      31A     -0.195199

  @DF-RHF Final Energy:  -418.10682714699954

   => Energetics <=

    Nuclear Repulsion Energy =            356.5340082993176338
    One-Electron Energy =               -1290.1955122275630856
    Two-Electron Energy =                 515.5546767812459166
    Total Energy =                       -418.1068271469995352
  Basis Set: (AUG-CC-PVTZ AUX)
    Blend: AUG-CC-PVTZ-RI
    Molecular point group: c1

    Geometry (in Angstrom), charge = -1, multiplicity = 1:

       Center              X                  Y                   Z               Mass
    ------------   -----------------  -----------------  -----------------  -----------------
         O            0.679389139158    -1.127580177096    -0.398824604568    15.994914619570
         O           -2.120932860842    -0.514612177096     1.065728395432    15.994914619570
         O           -2.387178860842     0.199729822904    -1.078610604568    15.994914619570
         C            2.108825139158     0.725844822904     0.128790395432    12.000000000000
         C            0.759674139158     0.053490822904    -0.058912604568    12.000000000000
         C           -0.465799360842     0.846605322904     0.435719695432    12.000000000000
         C            3.289030139158    -0.218793177096    -0.055161604568    12.000000000000
         C           -1.784942860842     0.137522822904     0.033835395432    12.000000000000
         H            2.159083139158     1.557663822904    -0.586267604568     1.007825032230
         H            2.122136139158     1.191370822904     1.121609395432     1.007825032230
         H           -0.380627860842     1.395838822904     1.134735395432     1.007825032230
         H           -0.419161860842     1.731797822904    -0.597915604568     1.007825032230
         H            3.256066139158    -1.029890177096     0.675986395432     1.007825032230
         H            3.277512139158    -0.665563177096    -1.051375604568     1.007825032230
         H            4.232152139158     0.319580822904     0.071178395432     1.007825032230

  Basis Set: AUG-CC-PVTZ
    Blend: AUG-CC-PVTZ
  Basis Set: (AUG-CC-PVTZ AUX)
    Blend: AUG-CC-PVTZ-JKFIT
	 Reference Energy          =    -418.1068271469995352 [Eh]
	 Singles Energy            =      -0.0000000000000000 [Eh]
	 Same-Spin Energy          =      -0.4181112507890872 [Eh]
	 Opposite-Spin Energy      =      -1.2976716212561430 [Eh]
	 Correlation Energy        =      -1.7157828720452302 [Eh]
	 Total Energy              =    -419.8226100190447596 [Eh]

	 ================> DF-SCS-MP2 Energies <==================
	-----------------------------------------------------------
	 SCS Same-Spin Scale       =       0.3333333333333333 [-]
	 SCS Opposite-Spin Scale   =       1.2000000000000000 [-]
	 SCS Same-Spin Energy      =      -0.1393704169296957 [Eh]
	 SCS Opposite-Spin Energy  =      -1.5572059455073715 [Eh]
	 SCS Correlation Energy    =      -1.6965763624370671 [Eh]
	 SCS Total Energy          =    -419.8034035094365777 [Eh]
	-----------------------------------------------------------

  Dipole Moment: [D]
     X:     9.7344      Y:     3.2133      Z:     1.0100     Total:    10.3007

*** Psi4 exiting successfully. Buy a developer a beer!
