                               Psi4 1.4a2.dev612

  ==> Input File <==

--------------------------------------------------------------------------
#psi4
#
memory 32 gb

molecule  {
-1 1
  O        0.5632720    -1.1719080    -0.3765930
  O       -2.2370500    -0.5589400     1.0879600
  O       -2.5032960     0.1554020    -1.0563790
  C        1.9927080     0.6815170     0.1510220
  C        0.6435570     0.0091630    -0.0366810
  C       -0.5268521     0.8018462     0.1357818
  C        3.1729130    -0.2631210    -0.0329300
  C       -1.9010600     0.0931950     0.0560670
  H        2.0429660     1.5133360    -0.5640360
  H        2.0060190     1.1470430     1.1438410
  H       -0.4967450     1.3515110     1.1569670
  H       -0.5352790     1.6874700    -0.5756840
  H        3.1399490    -1.0742180     0.6982180
  H        3.1613950    -0.7098910    -1.0291440
  H        4.1160350     0.2752530     0.0934100
units angstrom
no_reorient  #important for SAPT in psi4, default
symmetry c1  #important for SAPT in psi4, default
}

set PROPERTIES_ORIGIN ["COM"]
properties('MP2/aug-cc-pvtz', properties = ['dipole'])
--------------------------------------------------------------------------

    Molecular point group: c1
  Charge       = -1
  Multiplicity = 1
  Basis Set: AUG-CC-PVTZ
    Blend: AUG-CC-PVTZ
  Basis Set: (AUG-CC-PVTZ AUX)
    Blend: AUG-CC-PVTZ-JKFIT

    Orbital Energies [Eh]
    ---------------------

    Doubly Occupied:

       1A    -20.406481     2A    -20.298179     3A    -20.296175
       4A    -11.194230     5A    -11.148498     6A    -11.129594
       7A    -11.120348     8A    -11.086667     9A     -1.240079
      10A     -1.165264    11A     -1.065474    12A     -0.951442
      13A     -0.878903    14A     -0.765399    15A     -0.617619
      16A     -0.542799    17A     -0.531961    18A     -0.526031
      19A     -0.471095    20A     -0.447549    21A     -0.441227
      22A     -0.410413    23A     -0.404611    24A     -0.401967
      25A     -0.375770    26A     -0.341198    27A     -0.330308
      28A     -0.286493    29A     -0.211007    30A     -0.208447
      31A     -0.193578

  @DF-RHF Final Energy:  -418.18516199189548

   => Energetics <=

    Nuclear Repulsion Energy =            357.9813178444308051
    One-Electron Energy =               -1293.3553498122380461
    Two-Electron Energy =                 517.1888699759117571
    Total Energy =                       -418.1851619918954839
  Basis Set: (AUG-CC-PVTZ AUX)
    Blend: AUG-CC-PVTZ-RI
    Molecular point group: c1

    Geometry (in Angstrom), charge = -1, multiplicity = 1:

       Center              X                  Y                   Z               Mass
    ------------   -----------------  -----------------  -----------------  -----------------
         O            0.673645262573    -1.127535187339    -0.365218466166    15.994914619570
         O           -2.126676737427    -0.514567187339     1.099334533834    15.994914619570
         O           -2.392922737427     0.199774812661    -1.045004466166    15.994914619570
         C            2.103081262573     0.725889812661     0.162396533834    12.000000000000
         C            0.753930262573     0.053535812661    -0.025306466166    12.000000000000
         C           -0.416478837427     0.846219012661     0.147156333834    12.000000000000
         C            3.283286262573    -0.218748187339    -0.021555466166    12.000000000000
         C           -1.790686737427     0.137567812661     0.067441533834    12.000000000000
         H            2.153339262573     1.557708812661    -0.552661466166     1.007825032230
         H            2.116392262573     1.191415812661     1.155215533834     1.007825032230
         H           -0.386371737427     1.395883812661     1.168341533834     1.007825032230
         H           -0.424905737427     1.731842812661    -0.564309466166     1.007825032230
         H            3.250322262573    -1.029845187339     0.709592533834     1.007825032230
         H            3.271768262573    -0.665518187339    -1.017769466166     1.007825032230
         H            4.226408262573     0.319625812661     0.104784533834     1.007825032230

  Basis Set: AUG-CC-PVTZ
    Blend: AUG-CC-PVTZ
  Basis Set: (AUG-CC-PVTZ AUX)
    Blend: AUG-CC-PVTZ-JKFIT
	 Reference Energy          =    -418.1851619918954839 [Eh]
	 Singles Energy            =      -0.0000000000000000 [Eh]
	 Same-Spin Energy          =      -0.4171569696530320 [Eh]
	 Opposite-Spin Energy      =      -1.2938542017803933 [Eh]
	 Correlation Energy        =      -1.7110111714334253 [Eh]
	 Total Energy              =    -419.8961731633289105 [Eh]

	 ================> DF-SCS-MP2 Energies <==================
	-----------------------------------------------------------
	 SCS Same-Spin Scale       =       0.3333333333333333 [-]
	 SCS Opposite-Spin Scale   =       1.2000000000000000 [-]
	 SCS Same-Spin Energy      =      -0.1390523232176773 [Eh]
	 SCS Opposite-Spin Energy  =      -1.5526250421364720 [Eh]
	 SCS Correlation Energy    =      -1.6916773653541493 [Eh]
	 SCS Total Energy          =    -419.8768393572496507 [Eh]
	-----------------------------------------------------------

  Dipole Moment: [D]
     X:     9.8483      Y:     3.4603      Z:     0.6098     Total:    10.4563

*** Psi4 exiting successfully. Buy a developer a beer!
