                               Psi4 1.4a2.dev612

  ==> Input File <==

--------------------------------------------------------------------------
#psi4
#
memory 32 gb

molecule  {
-1 1
  O        0.5632720    -1.1719080    -0.3765930
  O       -2.2370500    -0.5589400     1.0879600
  O       -2.5032960     0.1554020    -1.0563790
  C        1.9927080     0.6815170     0.1510220
  C        0.6435570     0.0091630    -0.0366810
  C       -0.5791328     0.8550418     0.2650571
  C        3.1729130    -0.2631210    -0.0329300
  C       -1.9010600     0.0931950     0.0560670
  H        2.0429660     1.5133360    -0.5640360
  H        2.0060190     1.1470430     1.1438410
  H       -0.4967450     1.3515110     1.1569670
  H       -0.5352790     1.6874700    -0.5756840
  H        3.1399490    -1.0742180     0.6982180
  H        3.1613950    -0.7098910    -1.0291440
  H        4.1160350     0.2752530     0.0934100
units angstrom
no_reorient  #important for SAPT in psi4, default
symmetry c1  #important for SAPT in psi4, default
}

set PROPERTIES_ORIGIN ["COM"]
properties('MP2/aug-cc-pvtz', properties = ['dipole'])
--------------------------------------------------------------------------

    Molecular point group: c1
  Charge       = -1
  Multiplicity = 1
  Basis Set: AUG-CC-PVTZ
    Blend: AUG-CC-PVTZ
  Basis Set: (AUG-CC-PVTZ AUX)
    Blend: AUG-CC-PVTZ-JKFIT

    Orbital Energies [Eh]
    ---------------------

    Doubly Occupied:

       1A    -20.409952     2A    -20.298869     3A    -20.293157
       4A    -11.200934     5A    -11.146658     6A    -11.130317
       7A    -11.120941     8A    -11.084961     9A     -1.239457
      10A     -1.164656    11A     -1.064717    12A     -0.949876
      13A     -0.868629    14A     -0.767348    15A     -0.612437
      16A     -0.543229    17A     -0.532697    18A     -0.524796
      19A     -0.476389    20A     -0.449509    21A     -0.438596
      22A     -0.412207    23A     -0.408581    24A     -0.402875
      25A     -0.375011    26A     -0.342219    27A     -0.337307
      28A     -0.279814    29A     -0.212685    30A     -0.204807
      31A     -0.192885

  @DF-RHF Final Energy:  -418.18535968173495

   => Energetics <=

    Nuclear Repulsion Energy =            356.7672660693368130
    One-Electron Energy =               -1290.9322175691454504
    Two-Electron Energy =                 515.9795918180737999
    Total Energy =                       -418.1853596817348944
  Basis Set: (AUG-CC-PVTZ AUX)
    Blend: AUG-CC-PVTZ-RI
    Molecular point group: c1

    Geometry (in Angstrom), charge = -1, multiplicity = 1:

       Center              X                  Y                   Z               Mass
    ------------   -----------------  -----------------  -----------------  -----------------
         O            0.679098765899    -1.133084125696    -0.378703428659    15.994914619570
         O           -2.121223234101    -0.520116125696     1.085849571341    15.994914619570
         O           -2.387469234101     0.194225874304    -1.058489428659    15.994914619570
         C            2.108534765899     0.720340874304     0.148911571341    12.000000000000
         C            0.759383765899     0.047986874304    -0.038791428659    12.000000000000
         C           -0.463306034101     0.893865674304     0.262946671341    12.000000000000
         C            3.288739765899    -0.224297125696    -0.035040428659    12.000000000000
         C           -1.785233234101     0.132018874304     0.053956571341    12.000000000000
         H            2.158792765899     1.552159874304    -0.566146428659     1.007825032230
         H            2.121845765899     1.185866874304     1.141730571341     1.007825032230
         H           -0.380918234101     1.390334874304     1.154856571341     1.007825032230
         H           -0.419452234101     1.726293874304    -0.577794428659     1.007825032230
         H            3.255775765899    -1.035394125696     0.696107571341     1.007825032230
         H            3.277221765899    -0.671067125696    -1.031254428659     1.007825032230
         H            4.231861765899     0.314076874304     0.091299571341     1.007825032230

  Basis Set: AUG-CC-PVTZ
    Blend: AUG-CC-PVTZ
  Basis Set: (AUG-CC-PVTZ AUX)
    Blend: AUG-CC-PVTZ-JKFIT
	 Reference Energy          =    -418.1853596817349512 [Eh]
	 Singles Energy            =      -0.0000000000000000 [Eh]
	 Same-Spin Energy          =      -0.4164464000008248 [Eh]
	 Opposite-Spin Energy      =      -1.2931571265212329 [Eh]
	 Correlation Energy        =      -1.7096035265220577 [Eh]
	 Total Energy              =    -419.8949632082570247 [Eh]

	 ================> DF-SCS-MP2 Energies <==================
	-----------------------------------------------------------
	 SCS Same-Spin Scale       =       0.3333333333333333 [-]
	 SCS Opposite-Spin Scale   =       1.2000000000000000 [-]
	 SCS Same-Spin Energy      =      -0.1388154666669416 [Eh]
	 SCS Opposite-Spin Energy  =      -1.5517885518254795 [Eh]
	 SCS Correlation Energy    =      -1.6906040184924211 [Eh]
	 SCS Total Energy          =    -419.8759637002273735 [Eh]
	-----------------------------------------------------------

  Dipole Moment: [D]
     X:     9.9594      Y:     3.4219      Z:     0.7592     Total:    10.5582

*** Psi4 exiting successfully. Buy a developer a beer!
