                               Psi4 1.4a2.dev612

  ==> Input File <==

--------------------------------------------------------------------------
#psi4
#
memory 32 gb

molecule  {
-1 1
  O        0.5632720    -1.1719080    -0.3765930
  O       -2.2370500    -0.5589400     1.0879600
  O       -2.5032960     0.1554020    -1.0563790
  C        1.9927080     0.6815170     0.1510220
  C        0.6435570     0.0091630    -0.0366810
  C       -0.5522965     0.8416351     0.1521959
  C        3.1729130    -0.2631210    -0.0329300
  C       -1.9010600     0.0931950     0.0560670
  H        2.0429660     1.5133360    -0.5640360
  H        2.0060190     1.1470430     1.1438410
  H       -0.4967450     1.3515110     1.1569670
  H       -0.5352790     1.6874700    -0.5756840
  H        3.1399490    -1.0742180     0.6982180
  H        3.1613950    -0.7098910    -1.0291440
  H        4.1160350     0.2752530     0.0934100
units angstrom
no_reorient  #important for SAPT in psi4, default
symmetry c1  #important for SAPT in psi4, default
}

set PROPERTIES_ORIGIN ["COM"]
properties('MP2/aug-cc-pvtz', properties = ['dipole'])
--------------------------------------------------------------------------

    Molecular point group: c1
  Charge       = -1
  Multiplicity = 1
  Basis Set: AUG-CC-PVTZ
    Blend: AUG-CC-PVTZ
  Basis Set: (AUG-CC-PVTZ AUX)
    Blend: AUG-CC-PVTZ-JKFIT

    Orbital Energies [Eh]
    ---------------------

    Doubly Occupied:

       1A    -20.408464     2A    -20.297211     3A    -20.295326
       4A    -11.197437     5A    -11.147106     6A    -11.129977
       7A    -11.120658     8A    -11.084603     9A     -1.239744
      10A     -1.164503    11A     -1.064640    12A     -0.950574
      13A     -0.873161    14A     -0.766172    15A     -0.614459
      16A     -0.539660    17A     -0.531883    18A     -0.526189
      19A     -0.471315    20A     -0.450514    21A     -0.440463
      22A     -0.410265    23A     -0.406818    24A     -0.402641
      25A     -0.376330    26A     -0.343050    27A     -0.334672
      28A     -0.283877    29A     -0.210576    30A     -0.207825
      31A     -0.192965

  @DF-RHF Final Energy:  -418.19287916057959

   => Energetics <=

    Nuclear Repulsion Energy =            357.3428242654505880
    One-Electron Energy =               -1292.1052485706420612
    Two-Electron Energy =                 516.5695451446118796
    Total Energy =                       -418.1928791605795368
  Basis Set: (AUG-CC-PVTZ AUX)
    Blend: AUG-CC-PVTZ-RI
    Molecular point group: c1

    Geometry (in Angstrom), charge = -1, multiplicity = 1:

       Center              X                  Y                   Z               Mass
    ------------   -----------------  -----------------  -----------------  -----------------
         O            0.676299418314    -1.131685646276    -0.366930653435    15.994914619570
         O           -2.124022581686    -0.518717646276     1.097622346565    15.994914619570
         O           -2.390268581686     0.195624353724    -1.046716653435    15.994914619570
         C            2.105735418314     0.721739353724     0.160684346565    12.000000000000
         C            0.756584418314     0.049385353724    -0.027018653435    12.000000000000
         C           -0.439269081686     0.881857453724     0.161858246565    12.000000000000
         C            3.285940418314    -0.222898646276    -0.023267653435    12.000000000000
         C           -1.788032581686     0.133417353724     0.065729346565    12.000000000000
         H            2.155993418314     1.553558353724    -0.554373653435     1.007825032230
         H            2.119046418314     1.187265353724     1.153503346565     1.007825032230
         H           -0.383717581686     1.391733353724     1.166629346565     1.007825032230
         H           -0.422251581686     1.727692353724    -0.566021653435     1.007825032230
         H            3.252976418314    -1.033995646276     0.707880346565     1.007825032230
         H            3.274422418314    -0.669668646276    -1.019481653435     1.007825032230
         H            4.229062418314     0.315475353724     0.103072346565     1.007825032230

  Basis Set: AUG-CC-PVTZ
    Blend: AUG-CC-PVTZ
  Basis Set: (AUG-CC-PVTZ AUX)
    Blend: AUG-CC-PVTZ-JKFIT
	 Reference Energy          =    -418.1928791605795936 [Eh]
	 Singles Energy            =      -0.0000000000000000 [Eh]
	 Same-Spin Energy          =      -0.4165697013564810 [Eh]
	 Opposite-Spin Energy      =      -1.2930010562984373 [Eh]
	 Correlation Energy        =      -1.7095707576549184 [Eh]
	 Total Energy              =    -419.9024499182345380 [Eh]

	 ================> DF-SCS-MP2 Energies <==================
	-----------------------------------------------------------
	 SCS Same-Spin Scale       =       0.3333333333333333 [-]
	 SCS Opposite-Spin Scale   =       1.2000000000000000 [-]
	 SCS Same-Spin Energy      =      -0.1388565671188270 [Eh]
	 SCS Opposite-Spin Energy  =      -1.5516012675581248 [Eh]
	 SCS Correlation Energy    =      -1.6904578346769519 [Eh]
	 SCS Total Energy          =    -419.8833369952565704 [Eh]
	-----------------------------------------------------------

  Dipole Moment: [D]
     X:     9.9264      Y:     3.4603      Z:     0.6217     Total:    10.5306

*** Psi4 exiting successfully. Buy a developer a beer!
