                               Psi4 1.4a2.dev612

  ==> Input File <==

--------------------------------------------------------------------------
#psi4
#
memory 32 gb

molecule  {
-1 1
  O        0.5632720    -1.1719080    -0.3765930
  O       -2.2370500    -0.5589400     1.0879600
  O       -2.5032960     0.1554020    -1.0563790
  C        1.9927080     0.6815170     0.1510220
  C        0.6435570     0.0091630    -0.0366810
  C       -0.5805247     0.8286596     0.3615042
  C        3.1729130    -0.2631210    -0.0329300
  C       -1.9010600     0.0931950     0.0560670
  H        2.0429660     1.5133360    -0.5640360
  H        2.0060190     1.1470430     1.1438410
  H       -0.4967450     1.3515110     1.1569670
  H       -0.5352790     1.6874700    -0.5756840
  H        3.1399490    -1.0742180     0.6982180
  H        3.1613950    -0.7098910    -1.0291440
  H        4.1160350     0.2752530     0.0934100
units angstrom
no_reorient  #important for SAPT in psi4, default
symmetry c1  #important for SAPT in psi4, default
}

set PROPERTIES_ORIGIN ["COM"]
properties('MP2/aug-cc-pvtz', properties = ['dipole'])
--------------------------------------------------------------------------

    Molecular point group: c1
  Charge       = -1
  Multiplicity = 1
  Basis Set: AUG-CC-PVTZ
    Blend: AUG-CC-PVTZ
  Basis Set: (AUG-CC-PVTZ AUX)
    Blend: AUG-CC-PVTZ-JKFIT

    Orbital Energies [Eh]
    ---------------------

    Doubly Occupied:

       1A    -20.409784     2A    -20.302161     3A    -20.292847
       4A    -11.203112     5A    -11.149140     6A    -11.130216
       7A    -11.120864     8A    -11.089547     9A     -1.239551
      10A     -1.166459    11A     -1.066717    12A     -0.949728
      13A     -0.869649    14A     -0.768152    15A     -0.613464
      16A     -0.557139    17A     -0.534193    18A     -0.523024
      19A     -0.483010    20A     -0.447575    21A     -0.434308
      22A     -0.413961    23A     -0.409054    24A     -0.402114
      25A     -0.371692    26A     -0.343062    27A     -0.329452
      28A     -0.278099    29A     -0.215933    30A     -0.200755
      31A     -0.194278

  @DF-RHF Final Energy:  -418.15542620158465

   => Energetics <=

    Nuclear Repulsion Energy =            356.7095506573045327
    One-Electron Energy =               -1290.7118699261666279
    Two-Electron Energy =                 515.8468930672773922
    Total Energy =                       -418.1554262015846462
  Basis Set: (AUG-CC-PVTZ AUX)
    Blend: AUG-CC-PVTZ-RI
    Molecular point group: c1

    Geometry (in Angstrom), charge = -1, multiplicity = 1:

       Center              X                  Y                   Z               Mass
    ------------   -----------------  -----------------  -----------------  -----------------
         O            0.679243957744    -1.130332146181    -0.388764016613    15.994914619570
         O           -2.121078042256    -0.517364146181     1.075788983387    15.994914619570
         O           -2.387324042256     0.196977853819    -1.068550016613    15.994914619570
         C            2.108679957744     0.723092853819     0.138850983387    12.000000000000
         C            0.759528957744     0.050738853819    -0.048852016613    12.000000000000
         C           -0.464552742256     0.870235453819     0.349333183387    12.000000000000
         C            3.288884957744    -0.221545146181    -0.045101016613    12.000000000000
         C           -1.785088042256     0.134770853819     0.043895983387    12.000000000000
         H            2.158937957744     1.554911853819    -0.576207016613     1.007825032230
         H            2.121990957744     1.188618853819     1.131669983387     1.007825032230
         H           -0.380773042256     1.393086853819     1.144795983387     1.007825032230
         H           -0.419307042256     1.729045853819    -0.587855016613     1.007825032230
         H            3.255920957744    -1.032642146181     0.686046983387     1.007825032230
         H            3.277366957744    -0.668315146181    -1.041315016613     1.007825032230
         H            4.232006957744     0.316828853819     0.081238983387     1.007825032230

  Basis Set: AUG-CC-PVTZ
    Blend: AUG-CC-PVTZ
  Basis Set: (AUG-CC-PVTZ AUX)
    Blend: AUG-CC-PVTZ-JKFIT
	 Reference Energy          =    -418.1554262015846462 [Eh]
	 Singles Energy            =      -0.0000000000000000 [Eh]
	 Same-Spin Energy          =      -0.4170803804653474 [Eh]
	 Opposite-Spin Energy      =      -1.2948602050330398 [Eh]
	 Correlation Energy        =      -1.7119405854983871 [Eh]
	 Total Energy              =    -419.8673667870830286 [Eh]

	 ================> DF-SCS-MP2 Energies <==================
	-----------------------------------------------------------
	 SCS Same-Spin Scale       =       0.3333333333333333 [-]
	 SCS Opposite-Spin Scale   =       1.2000000000000000 [-]
	 SCS Same-Spin Energy      =      -0.1390267934884491 [Eh]
	 SCS Opposite-Spin Energy  =      -1.5538322460396476 [Eh]
	 SCS Correlation Energy    =      -1.6928590395280967 [Eh]
	 SCS Total Energy          =    -419.8482852411127624 [Eh]
	-----------------------------------------------------------

  Dipole Moment: [D]
     X:     9.8750      Y:     3.3384      Z:     0.8849     Total:    10.4615

*** Psi4 exiting successfully. Buy a developer a beer!
