                               Psi4 1.4a2.dev612

  ==> Input File <==

--------------------------------------------------------------------------
#psi4
#
memory 32 gb

molecule  {
-1 1
  O        0.5632720    -1.1719080    -0.3765930
  O       -2.2370500    -0.5589400     1.0879600
  O       -2.5032960     0.1554020    -1.0563790
  C        1.9927080     0.6815170     0.1510220
  C        0.6435570     0.0091630    -0.0366810
  C       -0.5798288     0.8418507     0.3132807
  C        3.1729130    -0.2631210    -0.0329300
  C       -1.9010600     0.0931950     0.0560670
  H        2.0429660     1.5133360    -0.5640360
  H        2.0060190     1.1470430     1.1438410
  H       -0.4967450     1.3515110     1.1569670
  H       -0.5352790     1.6874700    -0.5756840
  H        3.1399490    -1.0742180     0.6982180
  H        3.1613950    -0.7098910    -1.0291440
  H        4.1160350     0.2752530     0.0934100
units angstrom
no_reorient  #important for SAPT in psi4, default
symmetry c1  #important for SAPT in psi4, default
}

set PROPERTIES_ORIGIN ["COM"]
properties('MP2/aug-cc-pvtz', properties = ['dipole'])
--------------------------------------------------------------------------

    Molecular point group: c1
  Charge       = -1
  Multiplicity = 1
  Basis Set: AUG-CC-PVTZ
    Blend: AUG-CC-PVTZ
  Basis Set: (AUG-CC-PVTZ AUX)
    Blend: AUG-CC-PVTZ-JKFIT

    Orbital Energies [Eh]
    ---------------------

    Doubly Occupied:

       1A    -20.409862     2A    -20.300405     3A    -20.292847
       4A    -11.201869     5A    -11.147651     6A    -11.130288
       7A    -11.120922     8A    -11.086939     9A     -1.239492
      10A     -1.165428    11A     -1.065559    12A     -0.949827
      13A     -0.869070    14A     -0.767705    15A     -0.612883
      16A     -0.549304    17A     -0.533697    18A     -0.523880
      19A     -0.480055    20A     -0.447822    21A     -0.436683
      22A     -0.413091    23A     -0.408873    24A     -0.402480
      25A     -0.373325    26A     -0.342037    27A     -0.334384
      28A     -0.279119    29A     -0.214298    30A     -0.202927
      31A     -0.193455

  @DF-RHF Final Energy:  -418.17279664432351

   => Energetics <=

    Nuclear Repulsion Energy =            356.7528870272596464
    One-Electron Energy =               -1290.8590124959289369
    Two-Electron Energy =                 515.9333288243457218
    Total Energy =                       -418.1727966443235118
  Basis Set: (AUG-CC-PVTZ AUX)
    Blend: AUG-CC-PVTZ-RI
    Molecular point group: c1

    Geometry (in Angstrom), charge = -1, multiplicity = 1:

       Center              X                  Y                   Z               Mass
    ------------   -----------------  -----------------  -----------------  -----------------
         O            0.679171367037    -1.131708135939    -0.383733727851    15.994914619570
         O           -2.121150632963    -0.518740135939     1.080819272149    15.994914619570
         O           -2.387396632963     0.195601864061    -1.063519727851    15.994914619570
         C            2.108607367037     0.721716864061     0.143881272149    12.000000000000
         C            0.759456367037     0.049362864061    -0.043821727851    12.000000000000
         C           -0.463929432963     0.882050564061     0.306139972149    12.000000000000
         C            3.288812367037    -0.222921135939    -0.040070727851    12.000000000000
         C           -1.785160632963     0.133394864061     0.048926272149    12.000000000000
         H            2.158865367037     1.553535864061    -0.571176727851     1.007825032230
         H            2.121918367037     1.187242864061     1.136700272149     1.007825032230
         H           -0.380845632963     1.391710864061     1.149826272149     1.007825032230
         H           -0.419379632963     1.727669864061    -0.582824727851     1.007825032230
         H            3.255848367037    -1.034018135939     0.691077272149     1.007825032230
         H            3.277294367037    -0.669691135939    -1.036284727851     1.007825032230
         H            4.231934367037     0.315452864061     0.086269272149     1.007825032230

  Basis Set: AUG-CC-PVTZ
    Blend: AUG-CC-PVTZ
  Basis Set: (AUG-CC-PVTZ AUX)
    Blend: AUG-CC-PVTZ-JKFIT
	 Reference Energy          =    -418.1727966443235118 [Eh]
	 Singles Energy            =      -0.0000000000000000 [Eh]
	 Same-Spin Energy          =      -0.4167152036774804 [Eh]
	 Opposite-Spin Energy      =      -1.2938734330305335 [Eh]
	 Correlation Energy        =      -1.7105886367080139 [Eh]
	 Total Energy              =    -419.8833852810315079 [Eh]

	 ================> DF-SCS-MP2 Energies <==================
	-----------------------------------------------------------
	 SCS Same-Spin Scale       =       0.3333333333333333 [-]
	 SCS Opposite-Spin Scale   =       1.2000000000000000 [-]
	 SCS Same-Spin Energy      =      -0.1389050678924935 [Eh]
	 SCS Opposite-Spin Energy  =      -1.5526481196366402 [Eh]
	 SCS Correlation Energy    =      -1.6915531875291336 [Eh]
	 SCS Total Energy          =    -419.8643498318526213 [Eh]
	-----------------------------------------------------------

  Dipole Moment: [D]
     X:     9.9241      Y:     3.3858      Z:     0.8221     Total:    10.5179

*** Psi4 exiting successfully. Buy a developer a beer!
