                               Psi4 1.4a2.dev612

  ==> Input File <==

--------------------------------------------------------------------------
#psi4
#
memory 32 gb

molecule  {
-1 1
  O        0.5632720    -1.1719080    -0.3765930
  O       -2.2370500    -0.5589400     1.0879600
  O       -2.5032960     0.1554020    -1.0563790
  C        1.9927080     0.6815170     0.1510220
  C        0.6435570     0.0091630    -0.0366810
  C       -0.5014076     0.7620573     0.1193677
  C        3.1729130    -0.2631210    -0.0329300
  C       -1.9010600     0.0931950     0.0560670
  H        2.0429660     1.5133360    -0.5640360
  H        2.0060190     1.1470430     1.1438410
  H       -0.4967450     1.3515110     1.1569670
  H       -0.5352790     1.6874700    -0.5756840
  H        3.1399490    -1.0742180     0.6982180
  H        3.1613950    -0.7098910    -1.0291440
  H        4.1160350     0.2752530     0.0934100
units angstrom
no_reorient  #important for SAPT in psi4, default
symmetry c1  #important for SAPT in psi4, default
}

set PROPERTIES_ORIGIN ["COM"]
properties('MP2/aug-cc-pvtz', properties = ['dipole'])
--------------------------------------------------------------------------

    Molecular point group: c1
  Charge       = -1
  Multiplicity = 1
  Basis Set: AUG-CC-PVTZ
    Blend: AUG-CC-PVTZ
  Basis Set: (AUG-CC-PVTZ AUX)
    Blend: AUG-CC-PVTZ-JKFIT

    Orbital Energies [Eh]
    ---------------------

    Doubly Occupied:

       1A    -20.404227     2A    -20.299378     3A    -20.297228
       4A    -11.190402     5A    -11.150345     6A    -11.129105
       7A    -11.119934     8A    -11.088961     9A     -1.240537
      10A     -1.166173    11A     -1.066498    12A     -0.952521
      13A     -0.885236    14A     -0.764598    15A     -0.621111
      16A     -0.546376    17A     -0.531266    18A     -0.525832
      19A     -0.470616    20A     -0.445822    21A     -0.441659
      22A     -0.410565    23A     -0.402221    24A     -0.401039
      25A     -0.375506    26A     -0.341082    27A     -0.323244
      28A     -0.288164    29A     -0.211573    30A     -0.208981
      31A     -0.194343

  @DF-RHF Final Energy:  -418.17187523622823

   => Energetics <=

    Nuclear Repulsion Energy =            358.6302765385005387
    One-Electron Energy =               -1294.6152149592423939
    Two-Electron Energy =                 517.8130631845135667
    Total Energy =                       -418.1718752362282885
  Basis Set: (AUG-CC-PVTZ AUX)
    Blend: AUG-CC-PVTZ-RI
    Molecular point group: c1

    Geometry (in Angstrom), charge = -1, multiplicity = 1:

       Center              X                  Y                   Z               Mass
    ------------   -----------------  -----------------  -----------------  -----------------
         O            0.670991096401    -1.123384728403    -0.363506278897    15.994914619570
         O           -2.129330903599    -0.510416728403     1.101046721103    15.994914619570
         O           -2.395576903599     0.203925271597    -1.043292278897    15.994914619570
         C            2.100427096401     0.730040271597     0.164108721103    12.000000000000
         C            0.751276096401     0.057686271597    -0.023594278897    12.000000000000
         C           -0.393688503599     0.810580571597     0.132454421103    12.000000000000
         C            3.280632096401    -0.214597728403    -0.019843278897    12.000000000000
         C           -1.793340903599     0.141718271597     0.069153721103    12.000000000000
         H            2.150685096401     1.561859271597    -0.550949278897     1.007825032230
         H            2.113738096401     1.195566271597     1.156927721103     1.007825032230
         H           -0.389025903599     1.400034271597     1.170053721103     1.007825032230
         H           -0.427559903599     1.735993271597    -0.562597278897     1.007825032230
         H            3.247668096401    -1.025694728403     0.711304721103     1.007825032230
         H            3.269114096401    -0.661367728403    -1.016057278897     1.007825032230
         H            4.223754096401     0.323776271597     0.106496721103     1.007825032230

  Basis Set: AUG-CC-PVTZ
    Blend: AUG-CC-PVTZ
  Basis Set: (AUG-CC-PVTZ AUX)
    Blend: AUG-CC-PVTZ-JKFIT
	 Reference Energy          =    -418.1718752362282316 [Eh]
	 Singles Energy            =      -0.0000000000000000 [Eh]
	 Same-Spin Energy          =      -0.4179725626003261 [Eh]
	 Opposite-Spin Energy      =      -1.2951182953608198 [Eh]
	 Correlation Energy        =      -1.7130908579611459 [Eh]
	 Total Energy              =    -419.8849660941893944 [Eh]

	 ================> DF-SCS-MP2 Energies <==================
	-----------------------------------------------------------
	 SCS Same-Spin Scale       =       0.3333333333333333 [-]
	 SCS Opposite-Spin Scale   =       1.2000000000000000 [-]
	 SCS Same-Spin Energy      =      -0.1393241875334420 [Eh]
	 SCS Opposite-Spin Energy  =      -1.5541419544329838 [Eh]
	 SCS Correlation Energy    =      -1.6934661419664256 [Eh]
	 SCS Total Energy          =    -419.8653413781946711 [Eh]
	-----------------------------------------------------------

  Dipole Moment: [D]
     X:     9.7554      Y:     3.4589      Z:     0.5975     Total:    10.3676

*** Psi4 exiting successfully. Buy a developer a beer!
