                               Psi4 1.4a2.dev612

  ==> Input File <==

--------------------------------------------------------------------------
#psi4
#
memory 32 gb

molecule  {
-1 1
  O        0.5632720    -1.1719080    -0.3765930
  O       -2.2370500    -0.5589400     1.0879600
  O       -2.5032960     0.1554020    -1.0563790
  C        1.9927080     0.6815170     0.1510220
  C        0.6435570     0.0091630    -0.0366810
  C       -0.5777410     0.8814240     0.1686100
  C        3.1729130    -0.2631210    -0.0329300
  C       -1.9010600     0.0931950     0.0560670
  H        2.0429660     1.5133360    -0.5640360
  H        2.0060190     1.1470430     1.1438410
  H       -0.4967450     1.3515110     1.1569670
  H       -0.5352790     1.6874700    -0.5756840
  H        3.1399490    -1.0742180     0.6982180
  H        3.1613950    -0.7098910    -1.0291440
  H        4.1160350     0.2752530     0.0934100
units angstrom
no_reorient  #important for SAPT in psi4, default
symmetry c1  #important for SAPT in psi4, default
}

set PROPERTIES_ORIGIN ["COM"]
properties('MP2/aug-cc-pvtz', properties = ['dipole'])
--------------------------------------------------------------------------

    Molecular point group: c1
  Charge       = -1
  Multiplicity = 1
  Basis Set: AUG-CC-PVTZ
    Blend: AUG-CC-PVTZ
  Basis Set: (AUG-CC-PVTZ AUX)
    Blend: AUG-CC-PVTZ-JKFIT

    Orbital Energies [Eh]
    ---------------------

    Doubly Occupied:

       1A    -20.410189     2A    -20.296467     3A    -20.294668
       4A    -11.200051     5A    -11.146183     6A    -11.130261
       7A    -11.120869     8A    -11.082866     9A     -1.239478
      10A     -1.163888    11A     -1.063991    12A     -0.949835
      13A     -0.868086    14A     -0.766909    15A     -0.611709
      16A     -0.538236    17A     -0.529991    18A     -0.526312
      19A     -0.471188    20A     -0.454706    21A     -0.439491
      22A     -0.410773    23A     -0.407801    24A     -0.403391
      25A     -0.377186    26A     -0.346839    27A     -0.335945
      28A     -0.280296    29A     -0.210283    30A     -0.207131
      31A     -0.192502

  @DF-RHF Final Energy:  -418.19557534497937

   => Energetics <=

    Nuclear Repulsion Energy =            356.7114307649000580
    One-Electron Energy =               -1290.8589739043434292
    Two-Electron Energy =                 515.9519677944639398
    Total Energy =                       -418.1955753449793747
  Basis Set: (AUG-CC-PVTZ AUX)
    Blend: AUG-CC-PVTZ-RI
    Molecular point group: c1

    Geometry (in Angstrom), charge = -1, multiplicity = 1:

       Center              X                  Y                   Z               Mass
    ------------   -----------------  -----------------  -----------------  -----------------
         O            0.678953584486    -1.135836105212    -0.368642840704    15.994914619570
         O           -2.121368415514    -0.522868105212     1.095910159296    15.994914619570
         O           -2.387614415514     0.191473894788    -1.048428840704    15.994914619570
         C            2.108389584486     0.717588894788     0.158972159296    12.000000000000
         C            0.759238584486     0.045234894788    -0.028730840704    12.000000000000
         C           -0.462059415514     0.917495894788     0.176560159296    12.000000000000
         C            3.288594584486    -0.227049105212    -0.024979840704    12.000000000000
         C           -1.785378415514     0.129266894788     0.064017159296    12.000000000000
         H            2.158647584486     1.549407894788    -0.556085840704     1.007825032230
         H            2.121700584486     1.183114894788     1.151791159296     1.007825032230
         H           -0.381063415514     1.387582894788     1.164917159296     1.007825032230
         H           -0.419597415514     1.723541894788    -0.567733840704     1.007825032230
         H            3.255630584486    -1.038146105212     0.706168159296     1.007825032230
         H            3.277076584486    -0.673819105212    -1.021193840704     1.007825032230
         H            4.231716584486     0.311324894788     0.101360159296     1.007825032230

  Basis Set: AUG-CC-PVTZ
    Blend: AUG-CC-PVTZ
  Basis Set: (AUG-CC-PVTZ AUX)
    Blend: AUG-CC-PVTZ-JKFIT
	 Reference Energy          =    -418.1955753449793747 [Eh]
	 Singles Energy            =      -0.0000000000000000 [Eh]
	 Same-Spin Energy          =      -0.4161921244850147 [Eh]
	 Opposite-Spin Energy      =      -1.2925353614535990 [Eh]
	 Correlation Energy        =      -1.7087274859386139 [Eh]
	 Total Energy              =    -419.9043028309179704 [Eh]

	 ================> DF-SCS-MP2 Energies <==================
	-----------------------------------------------------------
	 SCS Same-Spin Scale       =       0.3333333333333333 [-]
	 SCS Opposite-Spin Scale   =       1.2000000000000000 [-]
	 SCS Same-Spin Energy      =      -0.1387307081616716 [Eh]
	 SCS Opposite-Spin Energy  =      -1.5510424337443187 [Eh]
	 SCS Correlation Energy    =      -1.6897731419059903 [Eh]
	 SCS Total Energy          =    -419.8853484868853911 [Eh]
	-----------------------------------------------------------

  Dipole Moment: [D]
     X:     9.9908      Y:     3.4590      Z:     0.6330     Total:    10.5915

*** Psi4 exiting successfully. Buy a developer a beer!
