                               Psi4 1.4a2.dev612

  ==> Input File <==

--------------------------------------------------------------------------
#psi4
#
memory 32 gb

molecule  {
-1 1
  O        1.8996640     1.2894670    -0.0585490
  O        2.6973380    -0.8133440     0.2844750
  C       -2.1007360    -0.3533330    -0.4966910
  C       -3.0415820     0.2042600     0.5765370
  C       -0.7068410     0.1811810    -0.3555730
  C        0.3877500    -0.5533880    -0.1062960
  C        1.7796670     0.0321010     0.0519970
  H       -2.0810980    -1.4485100    -0.4425170
  H       -2.4999350    -0.0921100    -1.4864390
  H       -3.0846480     1.2965650     0.5261450
  H       -4.0584310    -0.1803650     0.4515950
  H       -2.6909580    -0.0729930     1.5749670
  H       -0.5778430     1.2611610    -0.4426850
  H        0.3151027    -1.6427182    -0.0574569
units angstrom
no_reorient  #important for SAPT in psi4, default
symmetry c1  #important for SAPT in psi4, default
}

set PROPERTIES_ORIGIN ["COM"]
properties('MP2/aug-cc-pvtz', properties = ['dipole'])
--------------------------------------------------------------------------

    Molecular point group: c1
  Charge       = -1
  Multiplicity = 1
  Basis Set: AUG-CC-PVTZ
    Blend: AUG-CC-PVTZ
  Basis Set: (AUG-CC-PVTZ AUX)
    Blend: AUG-CC-PVTZ-JKFIT

    Orbital Energies [Eh]
    ---------------------

    Doubly Occupied:

       1A    -20.295355     2A    -20.291660     3A    -11.142007
       4A    -11.115772     5A    -11.114007     6A    -11.085469
       7A    -11.070145     8A     -1.161826     9A     -1.061043
      10A     -0.954234    11A     -0.862355    12A     -0.743761
      13A     -0.632946    14A     -0.548854    15A     -0.494740
      16A     -0.485841    17A     -0.445937    18A     -0.419339
      19A     -0.408624    20A     -0.383091    21A     -0.375844
      22A     -0.357997    23A     -0.348697    24A     -0.211287
      25A     -0.209215    26A     -0.204413    27A     -0.191194

  @DF-RHF Final Energy:  -343.28556811500857

   => Energetics <=

    Nuclear Repulsion Energy =            270.8433520329380713
    One-Electron Energy =               -1015.0265357444509391
    Two-Electron Energy =                 400.8976155965042381
    Total Energy =                       -343.2855681150085729
  Basis Set: (AUG-CC-PVTZ AUX)
    Blend: AUG-CC-PVTZ-RI
    Molecular point group: c1

    Geometry (in Angstrom), charge = -1, multiplicity = 1:

       Center              X                  Y                   Z               Mass
    ------------   -----------------  -----------------  -----------------  -----------------
         O            1.752709141268     1.280788581141    -0.056306893268    15.994914619570
         O            2.550383141268    -0.822022418859     0.286717106732    15.994914619570
         C           -2.247690858732    -0.362011418859    -0.494448893268    12.000000000000
         C           -3.188536858732     0.195581581141     0.578779106732    12.000000000000
         C           -0.853795858732     0.172502581141    -0.353330893268    12.000000000000
         C            0.240795141268    -0.562066418859    -0.104053893268    12.000000000000
         C            1.632712141268     0.023422581141     0.054239106732    12.000000000000
         H           -2.228052858732    -1.457188418859    -0.440274893268     1.007825032230
         H           -2.646889858732    -0.100788418859    -1.484196893268     1.007825032230
         H           -3.231602858732     1.287886581141     0.528387106732     1.007825032230
         H           -4.205385858732    -0.189043418859     0.453837106732     1.007825032230
         H           -2.837912858732    -0.081671418859     1.577209106732     1.007825032230
         H           -0.724797858732     1.252482581141    -0.440442893268     1.007825032230
         H            0.168147841268    -1.651396618859    -0.055214793268     1.007825032230

  Basis Set: AUG-CC-PVTZ
    Blend: AUG-CC-PVTZ
  Basis Set: (AUG-CC-PVTZ AUX)
    Blend: AUG-CC-PVTZ-JKFIT
	 Reference Energy          =    -343.2855681150085729 [Eh]
	 Singles Energy            =      -0.0000000000000000 [Eh]
	 Same-Spin Energy          =      -0.3481528574195056 [Eh]
	 Opposite-Spin Energy      =      -1.1055885941561374 [Eh]
	 Correlation Energy        =      -1.4537414515756431 [Eh]
	 Total Energy              =    -344.7393095665842111 [Eh]

	 ================> DF-SCS-MP2 Energies <==================
	-----------------------------------------------------------
	 SCS Same-Spin Scale       =       0.3333333333333333 [-]
	 SCS Opposite-Spin Scale   =       1.2000000000000000 [-]
	 SCS Same-Spin Energy      =      -0.1160509524731685 [Eh]
	 SCS Opposite-Spin Energy  =      -1.3267063129873649 [Eh]
	 SCS Correlation Energy    =      -1.4427572654605334 [Eh]
	 SCS Total Energy          =    -344.7283253804691299 [Eh]
	-----------------------------------------------------------

  Dipole Moment: [D]
     X:    -9.5053      Y:    -1.1543      Z:    -0.6101     Total:     9.5945

*** Psi4 exiting successfully. Buy a developer a beer!
