                               Psi4 1.4a2.dev612

  ==> Input File <==

--------------------------------------------------------------------------
#psi4
#
memory 32 gb

molecule  {
-1 1
  O        1.8996640     1.2894670    -0.0585490
  O        2.6973380    -0.8133440     0.2844750
  C       -2.1007360    -0.3533330    -0.4966910
  C       -3.0415820     0.2042600     0.5765370
  C       -0.7068410     0.1811810    -0.3555730
  C        0.3877500    -0.5533880    -0.1062960
  C        1.7796670     0.0321010     0.0519970
  H       -2.0810980    -1.4485100    -0.4425170
  H       -2.4999350    -0.0921100    -1.4864390
  H       -3.0846480     1.2965650     0.5261450
  H       -4.0584310    -0.1803650     0.4515950
  H       -2.6909580    -0.0729930     1.5749670
  H       -0.6216161     1.2925786    -0.1475632
  H        0.3073520    -1.6376590    -0.0083210
units angstrom
no_reorient  #important for SAPT in psi4, default
symmetry c1  #important for SAPT in psi4, default
}

set PROPERTIES_ORIGIN ["COM"]
properties('MP2/aug-cc-pvtz', properties = ['dipole'])
--------------------------------------------------------------------------

    Molecular point group: c1
  Charge       = -1
  Multiplicity = 1
  Basis Set: AUG-CC-PVTZ
    Blend: AUG-CC-PVTZ
  Basis Set: (AUG-CC-PVTZ AUX)
    Blend: AUG-CC-PVTZ-JKFIT

    Orbital Energies [Eh]
    ---------------------

    Doubly Occupied:

       1A    -20.295773     2A    -20.291794     3A    -11.142389
       4A    -11.116198     5A    -11.114092     6A    -11.089781
       7A    -11.071587     8A     -1.162112     9A     -1.061285
      10A     -0.954200    11A     -0.862143    12A     -0.744040
      13A     -0.630302    14A     -0.545740    15A     -0.494991
      16A     -0.485066    17A     -0.446499    18A     -0.416053
      19A     -0.409663    20A     -0.383683    21A     -0.376177
      22A     -0.359219    23A     -0.343769    24A     -0.212082
      25A     -0.209226    26A     -0.203269    27A     -0.191327

  @DF-RHF Final Energy:  -343.27916474235855

   => Energetics <=

    Nuclear Repulsion Energy =            270.7554924669630054
    One-Electron Energy =               -1014.8444003607269224
    Two-Electron Energy =                 400.8097431514053710
    Total Energy =                       -343.2791647423585459
  Basis Set: (AUG-CC-PVTZ AUX)
    Blend: AUG-CC-PVTZ-RI
    Molecular point group: c1

    Geometry (in Angstrom), charge = -1, multiplicity = 1:

       Center              X                  Y                   Z               Mass
    ------------   -----------------  -----------------  -----------------  -----------------
         O            1.753233419957     1.280417412693    -0.059809875883    15.994914619570
         O            2.550907419957    -0.822393587307     0.283214124117    15.994914619570
         C           -2.247166580043    -0.362382587307    -0.497951875883    12.000000000000
         C           -3.188012580043     0.195210412693     0.575276124117    12.000000000000
         C           -0.853271580043     0.172131412693    -0.356833875883    12.000000000000
         C            0.241319419957    -0.562437587307    -0.107556875883    12.000000000000
         C            1.633236419957     0.023051412693     0.050736124117    12.000000000000
         H           -2.227528580043    -1.457559587307    -0.443777875883     1.007825032230
         H           -2.646365580043    -0.101159587307    -1.487699875883     1.007825032230
         H           -3.231078580043     1.287515412693     0.524884124117     1.007825032230
         H           -4.204861580043    -0.189414587307     0.450334124117     1.007825032230
         H           -2.837388580043    -0.082042587307     1.573706124117     1.007825032230
         H           -0.768046680043     1.283529012693    -0.148824075883     1.007825032230
         H            0.160921419957    -1.646708587307    -0.009581875883     1.007825032230

  Basis Set: AUG-CC-PVTZ
    Blend: AUG-CC-PVTZ
  Basis Set: (AUG-CC-PVTZ AUX)
    Blend: AUG-CC-PVTZ-JKFIT
	 Reference Energy          =    -343.2791647423585459 [Eh]
	 Singles Energy            =      -0.0000000000000000 [Eh]
	 Same-Spin Energy          =      -0.3485330535054084 [Eh]
	 Opposite-Spin Energy      =      -1.1064509134409990 [Eh]
	 Correlation Energy        =      -1.4549839669464073 [Eh]
	 Total Energy              =    -344.7341487093049750 [Eh]

	 ================> DF-SCS-MP2 Energies <==================
	-----------------------------------------------------------
	 SCS Same-Spin Scale       =       0.3333333333333333 [-]
	 SCS Opposite-Spin Scale   =       1.2000000000000000 [-]
	 SCS Same-Spin Energy      =      -0.1161776845018028 [Eh]
	 SCS Opposite-Spin Energy  =      -1.3277410961291987 [Eh]
	 SCS Correlation Energy    =      -1.4439187806310014 [Eh]
	 SCS Total Energy          =    -344.7230835229895547 [Eh]
	-----------------------------------------------------------

  Dipole Moment: [D]
     X:    -9.5269      Y:    -1.1877      Z:    -0.3791     Total:     9.6081

*** Psi4 exiting successfully. Buy a developer a beer!
