                               Psi4 1.4a2.dev612

  ==> Input File <==

--------------------------------------------------------------------------
#psi4
#
memory 32 gb

molecule  {
-1 1
  O        1.8996640     1.2894670    -0.0585490
  O        2.6973380    -0.8133440     0.2844750
  C       -2.1007360    -0.3533330    -0.4966910
  C       -3.0415820     0.2042600     0.5765370
  C       -0.7068410     0.1811810    -0.3555730
  C        0.3877500    -0.5533880    -0.1062960
  C        1.7796670     0.0321010     0.0519970
  H       -2.0810980    -1.4485100    -0.4425170
  H       -2.4999350    -0.0921100    -1.4864390
  H       -3.0846480     1.2965650     0.5261450
  H       -4.0584310    -0.1803650     0.4515950
  H       -2.6909580    -0.0729930     1.5749670
  H       -0.5778430     1.2611610    -0.4426850
  H        0.3461053    -1.6629550    -0.2540003
units angstrom
no_reorient  #important for SAPT in psi4, default
symmetry c1  #important for SAPT in psi4, default
}

set PROPERTIES_ORIGIN ["COM"]
properties('MP2/aug-cc-pvtz', properties = ['dipole'])
--------------------------------------------------------------------------

    Molecular point group: c1
  Charge       = -1
  Multiplicity = 1
  Basis Set: AUG-CC-PVTZ
    Blend: AUG-CC-PVTZ
  Basis Set: (AUG-CC-PVTZ AUX)
    Blend: AUG-CC-PVTZ-JKFIT

    Orbital Energies [Eh]
    ---------------------

    Doubly Occupied:

       1A    -20.295298     2A    -20.291997     3A    -11.142204
       4A    -11.115979     5A    -11.114210     6A    -11.086547
       7A    -11.073077     8A     -1.161946     9A     -1.061155
      10A     -0.954406    11A     -0.862116    12A     -0.743403
      13A     -0.632080    14A     -0.547601    15A     -0.495072
      16A     -0.483161    17A     -0.446072    18A     -0.419251
      19A     -0.407610    20A     -0.383252    21A     -0.375955
      22A     -0.359444    23A     -0.345284    24A     -0.212905
      25A     -0.210620    26A     -0.201106    27A     -0.191203

  @DF-RHF Final Energy:  -343.28152932977940

   => Energetics <=

    Nuclear Repulsion Energy =            270.7155394544378737
    One-Electron Energy =               -1014.7682288142648304
    Two-Electron Energy =                 400.7711600300474970
    Total Energy =                       -343.2815293297794028
  Basis Set: (AUG-CC-PVTZ AUX)
    Blend: AUG-CC-PVTZ-RI
    Molecular point group: c1

    Geometry (in Angstrom), charge = -1, multiplicity = 1:

       Center              X                  Y                   Z               Mass
    ------------   -----------------  -----------------  -----------------  -----------------
         O            1.752393675357     1.280994500017    -0.054306972530    15.994914619570
         O            2.550067675357    -0.821816499983     0.288717027470    15.994914619570
         C           -2.248006324643    -0.361805499983    -0.492448972530    12.000000000000
         C           -3.188852324643     0.195787500017     0.580779027470    12.000000000000
         C           -0.854111324643     0.172708500017    -0.351330972530    12.000000000000
         C            0.240479675357    -0.561860499983    -0.102053972530    12.000000000000
         C            1.632396675357     0.023628500017     0.056239027470    12.000000000000
         H           -2.228368324643    -1.456982499983    -0.438274972530     1.007825032230
         H           -2.647205324643    -0.100582499983    -1.482196972530     1.007825032230
         H           -3.231918324643     1.288092500017     0.530387027470     1.007825032230
         H           -4.205701324643    -0.188837499983     0.455837027470     1.007825032230
         H           -2.838228324643    -0.081465499983     1.579209027470     1.007825032230
         H           -0.725113324643     1.252688500017    -0.438442972530     1.007825032230
         H            0.198834975357    -1.671427499983    -0.249758272530     1.007825032230

  Basis Set: AUG-CC-PVTZ
    Blend: AUG-CC-PVTZ
  Basis Set: (AUG-CC-PVTZ AUX)
    Blend: AUG-CC-PVTZ-JKFIT
	 Reference Energy          =    -343.2815293297794028 [Eh]
	 Singles Energy            =      -0.0000000000000000 [Eh]
	 Same-Spin Energy          =      -0.3483616584077589 [Eh]
	 Opposite-Spin Energy      =      -1.1060742684411164 [Eh]
	 Correlation Energy        =      -1.4544359268488753 [Eh]
	 Total Energy              =    -344.7359652566282762 [Eh]

	 ================> DF-SCS-MP2 Energies <==================
	-----------------------------------------------------------
	 SCS Same-Spin Scale       =       0.3333333333333333 [-]
	 SCS Opposite-Spin Scale   =       1.2000000000000000 [-]
	 SCS Same-Spin Energy      =      -0.1161205528025863 [Eh]
	 SCS Opposite-Spin Energy  =      -1.3272891221293397 [Eh]
	 SCS Correlation Energy    =      -1.4434096749319261 [Eh]
	 SCS Total Energy          =    -344.7249390047113025 [Eh]
	-----------------------------------------------------------

  Dipole Moment: [D]
     X:    -9.4803      Y:    -1.1207      Z:    -0.7317     Total:     9.5743

*** Psi4 exiting successfully. Buy a developer a beer!
