                               Psi4 1.4a2.dev612

  ==> Input File <==

--------------------------------------------------------------------------
#psi4
#
memory 32 gb

molecule  {
-1 1
  O        1.8996640     1.2894670    -0.0585490
  O        2.6973380    -0.8133440     0.2844750
  C       -2.1007360    -0.3533330    -0.4966910
  C       -3.0415820     0.2042600     0.5765370
  C       -0.7068410     0.1811810    -0.3555730
  C        0.3877500    -0.5533880    -0.1062960
  C        1.7796670     0.0321010     0.0519970
  H       -2.0810980    -1.4485100    -0.4425170
  H       -2.4999350    -0.0921100    -1.4864390
  H       -3.0846480     1.2965650     0.5261450
  H       -4.0584310    -0.1803650     0.4515950
  H       -2.6909580    -0.0729930     1.5749670
  H       -0.5851385     1.2663973    -0.3934980
  H        0.3073520    -1.6376590    -0.0083210
units angstrom
no_reorient  #important for SAPT in psi4, default
symmetry c1  #important for SAPT in psi4, default
}

set PROPERTIES_ORIGIN ["COM"]
properties('MP2/aug-cc-pvtz', properties = ['dipole'])
--------------------------------------------------------------------------

    Molecular point group: c1
  Charge       = -1
  Multiplicity = 1
  Basis Set: AUG-CC-PVTZ
    Blend: AUG-CC-PVTZ
  Basis Set: (AUG-CC-PVTZ AUX)
    Blend: AUG-CC-PVTZ-JKFIT

    Orbital Energies [Eh]
    ---------------------

    Doubly Occupied:

       1A    -20.295361     2A    -20.291642     3A    -11.142002
       4A    -11.115877     5A    -11.114016     6A    -11.085562
       7A    -11.070046     8A     -1.161821     9A     -1.061037
      10A     -0.954291    11A     -0.862335    12A     -0.743826
      13A     -0.633024    14A     -0.548739    15A     -0.494684
      16A     -0.485932    17A     -0.446166    18A     -0.418737
      19A     -0.409039    20A     -0.383123    21A     -0.375873
      22A     -0.358059    23A     -0.348761    24A     -0.211261
      25A     -0.209009    26A     -0.204609    27A     -0.191190

  @DF-RHF Final Energy:  -343.28554584031133

   => Energetics <=

    Nuclear Repulsion Energy =            270.8588627985933499
    One-Electron Energy =               -1015.0567753024024569
    Two-Electron Energy =                 400.9123666634977781
    Total Energy =                       -343.2855458403113289
  Basis Set: (AUG-CC-PVTZ AUX)
    Blend: AUG-CC-PVTZ-RI
    Molecular point group: c1

    Geometry (in Angstrom), charge = -1, multiplicity = 1:

       Center              X                  Y                   Z               Mass
    ------------   -----------------  -----------------  -----------------  -----------------
         O            1.752862243368     1.280683819628    -0.057307374620    15.994914619570
         O            2.550536243368    -0.822127180372     0.285716625380    15.994914619570
         C           -2.247537756632    -0.362116180372    -0.495449374620    12.000000000000
         C           -3.188383756632     0.195476819628     0.577778625380    12.000000000000
         C           -0.853642756632     0.172397819628    -0.354331374620    12.000000000000
         C            0.240948243368    -0.562171180372    -0.105054374620    12.000000000000
         C            1.632865243368     0.023317819628     0.053238625380    12.000000000000
         H           -2.227899756632    -1.457293180372    -0.441275374620     1.007825032230
         H           -2.646736756632    -0.100893180372    -1.485197374620     1.007825032230
         H           -3.231449756632     1.287781819628     0.527386625380     1.007825032230
         H           -4.205232756632    -0.189148180372     0.452836625380     1.007825032230
         H           -2.837759756632    -0.081776180372     1.576208625380     1.007825032230
         H           -0.731940256632     1.257614119628    -0.392256374620     1.007825032230
         H            0.160550243368    -1.646442180372    -0.007079374620     1.007825032230

  Basis Set: AUG-CC-PVTZ
    Blend: AUG-CC-PVTZ
  Basis Set: (AUG-CC-PVTZ AUX)
    Blend: AUG-CC-PVTZ-JKFIT
	 Reference Energy          =    -343.2855458403113289 [Eh]
	 Singles Energy            =      -0.0000000000000000 [Eh]
	 Same-Spin Energy          =      -0.3481589557732515 [Eh]
	 Opposite-Spin Energy      =      -1.1055859539383330 [Eh]
	 Correlation Energy        =      -1.4537449097115847 [Eh]
	 Total Energy              =    -344.7392907500229171 [Eh]

	 ================> DF-SCS-MP2 Energies <==================
	-----------------------------------------------------------
	 SCS Same-Spin Scale       =       0.3333333333333333 [-]
	 SCS Opposite-Spin Scale   =       1.2000000000000000 [-]
	 SCS Same-Spin Energy      =      -0.1160529852577505 [Eh]
	 SCS Opposite-Spin Energy  =      -1.3267031447259996 [Eh]
	 SCS Correlation Energy    =      -1.4427561299837501 [Eh]
	 SCS Total Energy          =    -344.7283019702950924 [Eh]
	-----------------------------------------------------------

  Dipole Moment: [D]
     X:    -9.5186      Y:    -1.1527      Z:    -0.5456     Total:     9.6037

*** Psi4 exiting successfully. Buy a developer a beer!
