                               Psi4 1.4a2.dev612

  ==> Input File <==

--------------------------------------------------------------------------
#psi4
#
memory 32 gb

molecule  {
-1 1
  O        1.8996640     1.2894670    -0.0585490
  O        2.6973380    -0.8133440     0.2844750
  C       -2.1007360    -0.3533330    -0.4966910
  C       -3.0415820     0.2042600     0.5765370
  C       -0.7068410     0.1811810    -0.3555730
  C        0.3877500    -0.5533880    -0.1062960
  C        1.7796670     0.0321010     0.0519970
  H       -2.0810980    -1.4485100    -0.4425170
  H       -2.4999350    -0.0921100    -1.4864390
  H       -3.0846480     1.2965650     0.5261450
  H       -4.0584310    -0.1803650     0.4515950
  H       -2.6909580    -0.0729930     1.5749670
  H       -0.5778430     1.2611610    -0.4426850
  H        0.3538560    -1.6680141    -0.3031361
units angstrom
no_reorient  #important for SAPT in psi4, default
symmetry c1  #important for SAPT in psi4, default
}

set PROPERTIES_ORIGIN ["COM"]
properties('MP2/aug-cc-pvtz', properties = ['dipole'])
--------------------------------------------------------------------------

    Molecular point group: c1
  Charge       = -1
  Multiplicity = 1
  Basis Set: AUG-CC-PVTZ
    Blend: AUG-CC-PVTZ
  Basis Set: (AUG-CC-PVTZ AUX)
    Blend: AUG-CC-PVTZ-JKFIT

    Orbital Energies [Eh]
    ---------------------

    Doubly Occupied:

       1A    -20.295275     2A    -20.292154     3A    -11.142304
       4A    -11.116077     5A    -11.114299     6A    -11.087019
       7A    -11.074381     8A     -1.162005     9A     -1.061210
      10A     -0.954497    11A     -0.862023    12A     -0.743295
      13A     -0.631721    14A     -0.547151    15A     -0.495164
      16A     -0.482068    17A     -0.446147    18A     -0.419101
      19A     -0.407336    20A     -0.383245    21A     -0.376027
      22A     -0.359963    23A     -0.343865    24A     -0.213689
      25A     -0.210713    26A     -0.200129    27A     -0.191201

  @DF-RHF Final Energy:  -343.27950940101090

   => Energetics <=

    Nuclear Repulsion Energy =            270.6630714663149320
    One-Electron Energy =               -1014.6610457722304091
    Two-Electron Energy =                 400.7184649049045788
    Total Energy =                       -343.2795094010108983
  Basis Set: (AUG-CC-PVTZ AUX)
    Blend: AUG-CC-PVTZ-RI
    Molecular point group: c1

    Geometry (in Angstrom), charge = -1, multiplicity = 1:

       Center              X                  Y                   Z               Mass
    ------------   -----------------  -----------------  -----------------  -----------------
         O            1.752314808370     1.281045978718    -0.053806992854    15.994914619570
         O            2.549988808370    -0.821765021282     0.289217007146    15.994914619570
         C           -2.248085191630    -0.361754021282    -0.491948992854    12.000000000000
         C           -3.188931191630     0.195838978718     0.581279007146    12.000000000000
         C           -0.854190191630     0.172759978718    -0.350830992854    12.000000000000
         C            0.240400808370    -0.561809021282    -0.101553992854    12.000000000000
         C            1.632317808370     0.023679978718     0.056739007146    12.000000000000
         H           -2.228447191630    -1.456931021282    -0.437774992854     1.007825032230
         H           -2.647284191630    -0.100531021282    -1.481696992854     1.007825032230
         H           -3.231997191630     1.288143978718     0.530887007146     1.007825032230
         H           -4.205780191630    -0.188786021282     0.456337007146     1.007825032230
         H           -2.838307191630    -0.081414021282     1.579709007146     1.007825032230
         H           -0.725192191630     1.252739978718    -0.437942992854     1.007825032230
         H            0.206506808370    -1.676435121282    -0.298394092854     1.007825032230

  Basis Set: AUG-CC-PVTZ
    Blend: AUG-CC-PVTZ
  Basis Set: (AUG-CC-PVTZ AUX)
    Blend: AUG-CC-PVTZ-JKFIT
	 Reference Energy          =    -343.2795094010108983 [Eh]
	 Singles Energy            =      -0.0000000000000000 [Eh]
	 Same-Spin Energy          =      -0.3484523588480730 [Eh]
	 Opposite-Spin Energy      =      -1.1062998355467384 [Eh]
	 Correlation Energy        =      -1.4547521943948114 [Eh]
	 Total Energy              =    -344.7342615954057123 [Eh]

	 ================> DF-SCS-MP2 Energies <==================
	-----------------------------------------------------------
	 SCS Same-Spin Scale       =       0.3333333333333333 [-]
	 SCS Opposite-Spin Scale   =       1.2000000000000000 [-]
	 SCS Same-Spin Energy      =      -0.1161507862826910 [Eh]
	 SCS Opposite-Spin Energy  =      -1.3275598026560860 [Eh]
	 SCS Correlation Energy    =      -1.4437105889387769 [Eh]
	 SCS Total Energy          =    -344.7232199899496550 [Eh]
	-----------------------------------------------------------

  Dipole Moment: [D]
     X:    -9.4734      Y:    -1.1029      Z:    -0.7604     Total:     9.5676

*** Psi4 exiting successfully. Buy a developer a beer!
