                               Psi4 1.4a2.dev612

  ==> Input File <==

--------------------------------------------------------------------------
#psi4
#
memory 32 gb

molecule  {
-1 1
  O        1.8996640     1.2894670    -0.0585490
  O        2.6973380    -0.8133440     0.2844750
  C       -2.1007360    -0.3533330    -0.4966910
  C       -3.0415820     0.2042600     0.5765370
  C       -0.7068410     0.1811810    -0.3555730
  C        0.3877500    -0.5533880    -0.1062960
  C        1.7796670     0.0321010     0.0519970
  H       -2.0810980    -1.4485100    -0.4425170
  H       -2.4999350    -0.0921100    -1.4864390
  H       -3.0846480     1.2965650     0.5261450
  H       -4.0584310    -0.1803650     0.4515950
  H       -2.6909580    -0.0729930     1.5749670
  H       -0.5778430     1.2611610    -0.4426850
  H        0.3228533    -1.6477774    -0.1065927
units angstrom
no_reorient  #important for SAPT in psi4, default
symmetry c1  #important for SAPT in psi4, default
}

set PROPERTIES_ORIGIN ["COM"]
properties('MP2/aug-cc-pvtz', properties = ['dipole'])
--------------------------------------------------------------------------

    Molecular point group: c1
  Charge       = -1
  Multiplicity = 1
  Basis Set: AUG-CC-PVTZ
    Blend: AUG-CC-PVTZ
  Basis Set: (AUG-CC-PVTZ AUX)
    Blend: AUG-CC-PVTZ-JKFIT

    Orbital Energies [Eh]
    ---------------------

    Doubly Occupied:

       1A    -20.295348     2A    -20.291702     3A    -11.142030
       4A    -11.115796     5A    -11.114034     6A    -11.085615
       7A    -11.070519     8A     -1.161841     9A     -1.061057
      10A     -0.954249    11A     -0.862325    12A     -0.743691
      13A     -0.632841    14A     -0.548656    15A     -0.494825
      16A     -0.485450    17A     -0.445947    18A     -0.419403
      19A     -0.408378    20A     -0.383156    21A     -0.375844
      22A     -0.358188    23A     -0.348244    24A     -0.211411
      25A     -0.209670    26A     -0.203797    27A     -0.191196

  @DF-RHF Final Energy:  -343.28509255677767

   => Energetics <=

    Nuclear Repulsion Energy =            270.8245131246771393
    One-Electron Energy =               -1014.9887887779701714
    Two-Electron Energy =                 400.8791830965154190
    Total Energy =                       -343.2850925567776699
  Basis Set: (AUG-CC-PVTZ AUX)
    Blend: AUG-CC-PVTZ-RI
    Molecular point group: c1

    Geometry (in Angstrom), charge = -1, multiplicity = 1:

       Center              X                  Y                   Z               Mass
    ------------   -----------------  -----------------  -----------------  -----------------
         O            1.752630275299     1.280840060860    -0.055806913592    15.994914619570
         O            2.550304275299    -0.821970939140     0.287217086408    15.994914619570
         C           -2.247769724701    -0.361959939140    -0.493948913592    12.000000000000
         C           -3.188615724701     0.195633060860     0.579279086408    12.000000000000
         C           -0.853874724701     0.172554060860    -0.352830913592    12.000000000000
         C            0.240716275299    -0.562014939140    -0.103553913592    12.000000000000
         C            1.632633275299     0.023474060860     0.054739086408    12.000000000000
         H           -2.228131724701    -1.457136939140    -0.439774913592     1.007825032230
         H           -2.646968724701    -0.100736939140    -1.483696913592     1.007825032230
         H           -3.231681724701     1.287938060860     0.528887086408     1.007825032230
         H           -4.205464724701    -0.188991939140     0.454337086408     1.007825032230
         H           -2.837991724701    -0.081619939140     1.577709086408     1.007825032230
         H           -0.724876724701     1.252534060860    -0.439942913592     1.007825032230
         H            0.175819575299    -1.656404339140    -0.103850613592     1.007825032230

  Basis Set: AUG-CC-PVTZ
    Blend: AUG-CC-PVTZ
  Basis Set: (AUG-CC-PVTZ AUX)
    Blend: AUG-CC-PVTZ-JKFIT
	 Reference Energy          =    -343.2850925567776699 [Eh]
	 Singles Energy            =      -0.0000000000000000 [Eh]
	 Same-Spin Energy          =      -0.3481807592496365 [Eh]
	 Opposite-Spin Energy      =      -1.1056517135829029 [Eh]
	 Correlation Energy        =      -1.4538324728325396 [Eh]
	 Total Energy              =    -344.7389250296101864 [Eh]

	 ================> DF-SCS-MP2 Energies <==================
	-----------------------------------------------------------
	 SCS Same-Spin Scale       =       0.3333333333333333 [-]
	 SCS Opposite-Spin Scale   =       1.2000000000000000 [-]
	 SCS Same-Spin Energy      =      -0.1160602530832122 [Eh]
	 SCS Opposite-Spin Energy  =      -1.3267820562994834 [Eh]
	 SCS Correlation Energy    =      -1.4428423093826956 [Eh]
	 SCS Total Energy          =    -344.7279348661603535 [Eh]
	-----------------------------------------------------------

  Dipole Moment: [D]
     X:    -9.4994      Y:    -1.1516      Z:    -0.6410     Total:     9.5904

*** Psi4 exiting successfully. Buy a developer a beer!
