                               Psi4 1.4a2.dev612

  ==> Input File <==

--------------------------------------------------------------------------
#psi4
#
memory 32 gb

molecule  {
-1 1
  O        1.8996640     1.2894670    -0.0585490
  O        2.6973380    -0.8133440     0.2844750
  C       -2.1007360    -0.3533330    -0.4966910
  C       -3.0415820     0.2042600     0.5765370
  C       -0.7068410     0.1811810    -0.3555730
  C        0.3877500    -0.5533880    -0.1062960
  C        1.7796670     0.0321010     0.0519970
  H       -2.0810980    -1.4485100    -0.4425170
  H       -2.4999350    -0.0921100    -1.4864390
  H       -3.0846480     1.2965650     0.5261450
  H       -4.0584310    -0.1803650     0.4515950
  H       -2.6909580    -0.0729930     1.5749670
  H       -0.6070251     1.2821060    -0.2459372
  H        0.3073520    -1.6376590    -0.0083210
units angstrom
no_reorient  #important for SAPT in psi4, default
symmetry c1  #important for SAPT in psi4, default
}

set PROPERTIES_ORIGIN ["COM"]
properties('MP2/aug-cc-pvtz', properties = ['dipole'])
--------------------------------------------------------------------------

    Molecular point group: c1
  Charge       = -1
  Multiplicity = 1
  Basis Set: AUG-CC-PVTZ
    Blend: AUG-CC-PVTZ
  Basis Set: (AUG-CC-PVTZ AUX)
    Blend: AUG-CC-PVTZ-JKFIT

    Orbital Energies [Eh]
    ---------------------

    Doubly Occupied:

       1A    -20.295532     2A    -20.291703     3A    -11.142161
       4A    -11.116115     5A    -11.114057     6A    -11.087432
       7A    -11.070697     8A     -1.161941     9A     -1.061138
      10A     -0.954301    11A     -0.862219    12A     -0.743922
      13A     -0.631912    14A     -0.547277    15A     -0.494842
      16A     -0.485460    17A     -0.446525    18A     -0.417173
      19A     -0.409461    20A     -0.383464    21A     -0.376004
      22A     -0.358683    23A     -0.346636    24A     -0.211625
      25A     -0.209105    26A     -0.203976    27A     -0.191244

  @DF-RHF Final Energy:  -343.28294139088615

   => Energetics <=

    Nuclear Repulsion Energy =            270.8220769912550168
    One-Electron Energy =               -1014.9808269679857631
    Two-Electron Energy =                 400.8758085858445952
    Total Energy =                       -343.2829413908861511
  Basis Set: (AUG-CC-PVTZ AUX)
    Blend: AUG-CC-PVTZ-RI
    Molecular point group: c1

    Geometry (in Angstrom), charge = -1, multiplicity = 1:

       Center              X                  Y                   Z               Mass
    ------------   -----------------  -----------------  -----------------  -----------------
         O            1.753084949728     1.280523976281    -0.058808874564    15.994914619570
         O            2.550758949728    -0.822287023719     0.284215125436    15.994914619570
         C           -2.247315050272    -0.362276023719    -0.496950874564    12.000000000000
         C           -3.188161050272     0.195316976281     0.576277125436    12.000000000000
         C           -0.853420050272     0.172237976281    -0.355832874564    12.000000000000
         C            0.241170949728    -0.562331023719    -0.106555874564    12.000000000000
         C            1.633087949728     0.023157976281     0.051737125436    12.000000000000
         H           -2.227677050272    -1.457453023719    -0.442776874564     1.007825032230
         H           -2.646514050272    -0.101053023719    -1.486698874564     1.007825032230
         H           -3.231227050272     1.287621976281     0.525885125436     1.007825032230
         H           -4.205010050272    -0.189308023719     0.451335125436     1.007825032230
         H           -2.837537050272    -0.081936023719     1.574707125436     1.007825032230
         H           -0.753604150272     1.273162976281    -0.246197074564     1.007825032230
         H            0.160772949728    -1.646602023719    -0.008580874564     1.007825032230

  Basis Set: AUG-CC-PVTZ
    Blend: AUG-CC-PVTZ
  Basis Set: (AUG-CC-PVTZ AUX)
    Blend: AUG-CC-PVTZ-JKFIT
	 Reference Energy          =    -343.2829413908861511 [Eh]
	 Singles Energy            =      -0.0000000000000000 [Eh]
	 Same-Spin Energy          =      -0.3483272707111671 [Eh]
	 Opposite-Spin Energy      =      -1.1059531017768660 [Eh]
	 Correlation Energy        =      -1.4542803724880331 [Eh]
	 Total Energy              =    -344.7372217633741798 [Eh]

	 ================> DF-SCS-MP2 Energies <==================
	-----------------------------------------------------------
	 SCS Same-Spin Scale       =       0.3333333333333333 [-]
	 SCS Opposite-Spin Scale   =       1.2000000000000000 [-]
	 SCS Same-Spin Energy      =      -0.1161090902370557 [Eh]
	 SCS Opposite-Spin Energy  =      -1.3271437221322391 [Eh]
	 SCS Correlation Energy    =      -1.4432528123692947 [Eh]
	 SCS Total Energy          =    -344.7261942032554316 [Eh]
	-----------------------------------------------------------

  Dipole Moment: [D]
     X:    -9.5293      Y:    -1.1661      Z:    -0.4446     Total:     9.6107

*** Psi4 exiting successfully. Buy a developer a beer!
