                               Psi4 1.4a2.dev612

  ==> Input File <==

--------------------------------------------------------------------------
#psi4
#
memory 32 gb

molecule  {
-1 1
  O        1.8996640     1.2894670    -0.0585490
  O        2.6973380    -0.8133440     0.2844750
  C       -2.1007360    -0.3533330    -0.4966910
  C       -3.0415820     0.2042600     0.5765370
  C       -0.7068410     0.1811810    -0.3555730
  C        0.4109755    -0.5686235    -0.2537018
  C        1.7796670     0.0321010     0.0519970
  H       -2.0810980    -1.4485100    -0.4425170
  H       -2.4999350    -0.0921100    -1.4864390
  H       -3.0846480     1.2965650     0.5261450
  H       -4.0584310    -0.1803650     0.4515950
  H       -2.6909580    -0.0729930     1.5749670
  H       -0.5778430     1.2611610    -0.4426850
  H        0.3073520    -1.6376590    -0.0083210
units angstrom
no_reorient  #important for SAPT in psi4, default
symmetry c1  #important for SAPT in psi4, default
}

set PROPERTIES_ORIGIN ["COM"]
properties('MP2/aug-cc-pvtz', properties = ['dipole'])
--------------------------------------------------------------------------

    Molecular point group: c1
  Charge       = -1
  Multiplicity = 1
  Basis Set: AUG-CC-PVTZ
    Blend: AUG-CC-PVTZ
  Basis Set: (AUG-CC-PVTZ AUX)
    Blend: AUG-CC-PVTZ-JKFIT

    Orbital Energies [Eh]
    ---------------------

    Doubly Occupied:

       1A    -20.295279     2A    -20.291684     3A    -11.142729
       4A    -11.116521     5A    -11.114558     6A    -11.088478
       7A    -11.071670     8A     -1.161557     9A     -1.060927
      10A     -0.954323    11A     -0.861552    12A     -0.743503
      13A     -0.631740    14A     -0.546562    15A     -0.496252
      16A     -0.484855    17A     -0.446192    18A     -0.416951
      19A     -0.408845    20A     -0.383228    21A     -0.375881
      22A     -0.358377    23A     -0.347342    24A     -0.210468
      25A     -0.208775    26A     -0.203529    27A     -0.191120

  @DF-RHF Final Energy:  -343.27961658279992

   => Energetics <=

    Nuclear Repulsion Energy =            270.5022845697117191
    One-Electron Energy =               -1014.3380092451861856
    Two-Electron Energy =                 400.5561080926745490
    Total Energy =                       -343.2796165827999175
  Basis Set: (AUG-CC-PVTZ AUX)
    Blend: AUG-CC-PVTZ-RI
    Molecular point group: c1

    Geometry (in Angstrom), charge = -1, multiplicity = 1:

       Center              X                  Y                   Z               Mass
    ------------   -----------------  -----------------  -----------------  -----------------
         O            1.749974063956     1.282582997026    -0.038947550785    15.994914619570
         O            2.547648063956    -0.820228002974     0.304076449215    15.994914619570
         C           -2.250425936044    -0.360217002974    -0.477089550785    12.000000000000
         C           -3.191271936044     0.197375997026     0.596138449215    12.000000000000
         C           -0.856530936044     0.174296997026    -0.335971550785    12.000000000000
         C            0.261285563956    -0.575507502974    -0.234100350785    12.000000000000
         C            1.629977063956     0.025216997026     0.071598449215    12.000000000000
         H           -2.230787936044    -1.455394002974    -0.422915550785     1.007825032230
         H           -2.649624936044    -0.098994002974    -1.466837550785     1.007825032230
         H           -3.234337936044     1.289680997026     0.545746449215     1.007825032230
         H           -4.208120936044    -0.187249002974     0.471196449215     1.007825032230
         H           -2.840647936044    -0.079877002974     1.594568449215     1.007825032230
         H           -0.727532936044     1.254276997026    -0.423083550785     1.007825032230
         H            0.157662063956    -1.644543002974     0.011280449215     1.007825032230

  Basis Set: AUG-CC-PVTZ
    Blend: AUG-CC-PVTZ
  Basis Set: (AUG-CC-PVTZ AUX)
    Blend: AUG-CC-PVTZ-JKFIT
	 Reference Energy          =    -343.2796165827999175 [Eh]
	 Singles Energy            =      -0.0000000000000000 [Eh]
	 Same-Spin Energy          =      -0.3484831849777488 [Eh]
	 Opposite-Spin Energy      =      -1.1064130347849988 [Eh]
	 Correlation Energy        =      -1.4548962197627475 [Eh]
	 Total Energy              =    -344.7345128025626764 [Eh]

	 ================> DF-SCS-MP2 Energies <==================
	-----------------------------------------------------------
	 SCS Same-Spin Scale       =       0.3333333333333333 [-]
	 SCS Opposite-Spin Scale   =       1.2000000000000000 [-]
	 SCS Same-Spin Energy      =      -0.1161610616592496 [Eh]
	 SCS Opposite-Spin Energy  =      -1.3276956417419985 [Eh]
	 SCS Correlation Energy    =      -1.4438567034012482 [Eh]
	 SCS Total Energy          =    -344.7234732862011697 [Eh]
	-----------------------------------------------------------

  Dipole Moment: [D]
     X:    -9.5247      Y:    -1.1189      Z:    -0.5851     Total:     9.6080

*** Psi4 exiting successfully. Buy a developer a beer!
