                               Psi4 1.4a2.dev612

  ==> Input File <==

--------------------------------------------------------------------------
#psi4
#
memory 32 gb

molecule  {
-1 1
  O        1.8996640     1.2894670    -0.0585490
  O        2.6973380    -0.8133440     0.2844750
  C       -2.1007360    -0.3533330    -0.4966910
  C       -3.0415820     0.2042600     0.5765370
  C       -0.7068410     0.1811810    -0.3555730
  C        0.4264592    -0.5787805    -0.3519723
  C        1.7796670     0.0321010     0.0519970
  H       -2.0810980    -1.4485100    -0.4425170
  H       -2.4999350    -0.0921100    -1.4864390
  H       -3.0846480     1.2965650     0.5261450
  H       -4.0584310    -0.1803650     0.4515950
  H       -2.6909580    -0.0729930     1.5749670
  H       -0.5778430     1.2611610    -0.4426850
  H        0.3073520    -1.6376590    -0.0083210
units angstrom
no_reorient  #important for SAPT in psi4, default
symmetry c1  #important for SAPT in psi4, default
}

set PROPERTIES_ORIGIN ["COM"]
properties('MP2/aug-cc-pvtz', properties = ['dipole'])
--------------------------------------------------------------------------

    Molecular point group: c1
  Charge       = -1
  Multiplicity = 1
  Basis Set: AUG-CC-PVTZ
    Blend: AUG-CC-PVTZ
  Basis Set: (AUG-CC-PVTZ AUX)
    Blend: AUG-CC-PVTZ-JKFIT

    Orbital Energies [Eh]
    ---------------------

    Doubly Occupied:

       1A    -20.295228     2A    -20.291844     3A    -11.144006
       4A    -11.117567     5A    -11.115536     6A    -11.093841
       7A    -11.074502     8A     -1.161164     9A     -1.060801
      10A     -0.954622    11A     -0.859573    12A     -0.743031
      13A     -0.630023    14A     -0.543028    15A     -0.497566
      16A     -0.482598    17A     -0.445971    18A     -0.414436
      19A     -0.408813    20A     -0.383527    21A     -0.375570
      22A     -0.358567    23A     -0.344679    24A     -0.209707
      25A     -0.208003    26A     -0.201564    27A     -0.191049

  @DF-RHF Final Energy:  -343.26843103269300

   => Energetics <=

    Nuclear Repulsion Energy =            270.0088878018186733
    One-Electron Energy =               -1013.3410049214013497
    Two-Electron Energy =                 400.0636860868896747
    Total Energy =                       -343.2684310326930017
  Basis Set: (AUG-CC-PVTZ AUX)
    Blend: AUG-CC-PVTZ-RI
    Molecular point group: c1

    Geometry (in Angstrom), charge = -1, multiplicity = 1:

       Center              X                  Y                   Z               Mass
    ------------   -----------------  -----------------  -----------------  -----------------
         O            1.748098097052     1.283813594096    -0.027041339372    15.994914619570
         O            2.545772097052    -0.818997405904     0.315982660628    15.994914619570
         C           -2.252301902948    -0.358986405904    -0.465183339372    12.000000000000
         C           -3.193147902948     0.198606594096     0.608044660628    12.000000000000
         C           -0.858406902948     0.175527594096    -0.324065339372    12.000000000000
         C            0.274893297052    -0.584433905904    -0.320464639372    12.000000000000
         C            1.628101097052     0.026447594096     0.083504660628    12.000000000000
         H           -2.232663902948    -1.454163405904    -0.411009339372     1.007825032230
         H           -2.651500902948    -0.097763405904    -1.454931339372     1.007825032230
         H           -3.236213902948     1.290911594096     0.557652660628     1.007825032230
         H           -4.209996902948    -0.186018405904     0.483102660628     1.007825032230
         H           -2.842523902948    -0.078646405904     1.606474660628     1.007825032230
         H           -0.729408902948     1.255507594096    -0.411177339372     1.007825032230
         H            0.155786097052    -1.643312405904     0.023186660628     1.007825032230

  Basis Set: AUG-CC-PVTZ
    Blend: AUG-CC-PVTZ
  Basis Set: (AUG-CC-PVTZ AUX)
    Blend: AUG-CC-PVTZ-JKFIT
	 Reference Energy          =    -343.2684310326930017 [Eh]
	 Singles Energy            =      -0.0000000000000000 [Eh]
	 Same-Spin Energy          =      -0.3491448231167035 [Eh]
	 Opposite-Spin Energy      =      -1.1081001588612902 [Eh]
	 Correlation Energy        =      -1.4572449819779938 [Eh]
	 Total Energy              =    -344.7256760146710235 [Eh]

	 ================> DF-SCS-MP2 Energies <==================
	-----------------------------------------------------------
	 SCS Same-Spin Scale       =       0.3333333333333333 [-]
	 SCS Opposite-Spin Scale   =       1.2000000000000000 [-]
	 SCS Same-Spin Energy      =      -0.1163816077055678 [Eh]
	 SCS Opposite-Spin Energy  =      -1.3297201906335483 [Eh]
	 SCS Correlation Energy    =      -1.4461017983391162 [Eh]
	 SCS Total Energy          =    -344.7145328310321020 [Eh]
	-----------------------------------------------------------

  Dipole Moment: [D]
     X:    -9.5386      Y:    -1.0572      Z:    -0.5833     Total:     9.6147

*** Psi4 exiting successfully. Buy a developer a beer!
