                               Psi4 1.4a2.dev612

  ==> Input File <==

--------------------------------------------------------------------------
#psi4
#
memory 32 gb

molecule  {
-1 1
  O        1.8996640     1.2894670    -0.0585490
  O        2.6973380    -0.8133440     0.2844750
  C       -2.1007360    -0.3533330    -0.4966910
  C       -3.0415820     0.2042600     0.5765370
  C       -0.7068410     0.1811810    -0.3555730
  C        0.3877500    -0.5533880    -0.1062960
  C        1.7796670     0.0321010     0.0519970
  H       -2.0810980    -1.4485100    -0.4425170
  H       -2.4999350    -0.0921100    -1.4864390
  H       -3.0846480     1.2965650     0.5261450
  H       -4.0584310    -0.1803650     0.4515950
  H       -2.6909580    -0.0729930     1.5749670
  H       -0.5778430     1.2611610    -0.4426850
  H        0.3306040    -1.6528366    -0.1557286
units angstrom
no_reorient  #important for SAPT in psi4, default
symmetry c1  #important for SAPT in psi4, default
}

set PROPERTIES_ORIGIN ["COM"]
properties('MP2/aug-cc-pvtz', properties = ['dipole'])
--------------------------------------------------------------------------

    Molecular point group: c1
  Charge       = -1
  Multiplicity = 1
  Basis Set: AUG-CC-PVTZ
    Blend: AUG-CC-PVTZ
  Basis Set: (AUG-CC-PVTZ AUX)
    Blend: AUG-CC-PVTZ-JKFIT

    Orbital Energies [Eh]
    ---------------------

    Doubly Occupied:

       1A    -20.295335     2A    -20.291771     3A    -11.142069
       4A    -11.115838     5A    -11.114077     6A    -11.085843
       7A    -11.071137     8A     -1.161865     9A     -1.061079
      10A     -0.954282    11A     -0.862272    12A     -0.743606
      13A     -0.632654    14A     -0.548372    15A     -0.494908
      16A     -0.484866    17A     -0.445972    18A     -0.419407
      19A     -0.408128    20A     -0.383206    21A     -0.375863
      22A     -0.358523    23A     -0.347499    24A     -0.211694
      25A     -0.210138    26A     -0.202982    27A     -0.191199

  @DF-RHF Final Energy:  -343.28428220802220

   => Energetics <=

    Nuclear Repulsion Energy =            270.7967097512159853
    One-Electron Energy =               -1014.9328087877178177
    Two-Electron Energy =                 400.8518168284796275
    Total Energy =                       -343.2842822080222049
  Basis Set: (AUG-CC-PVTZ AUX)
    Blend: AUG-CC-PVTZ-RI
    Molecular point group: c1

    Geometry (in Angstrom), charge = -1, multiplicity = 1:

       Center              X                  Y                   Z               Mass
    ------------   -----------------  -----------------  -----------------  -----------------
         O            1.752551408312     1.280891540579    -0.055306932899    15.994914619570
         O            2.550225408312    -0.821919459421     0.287717067101    15.994914619570
         C           -2.247848591688    -0.361908459421    -0.493448932899    12.000000000000
         C           -3.188694591688     0.195684540579     0.579779067101    12.000000000000
         C           -0.853953591688     0.172605540579    -0.352330932899    12.000000000000
         C            0.240637408312    -0.561963459421    -0.103053932899    12.000000000000
         C            1.632554408312     0.023525540579     0.055239067101    12.000000000000
         H           -2.228210591688    -1.457085459421    -0.439274932899     1.007825032230
         H           -2.647047591688    -0.100685459421    -1.483196932899     1.007825032230
         H           -3.231760591688     1.287989540579     0.529387067101     1.007825032230
         H           -4.205543591688    -0.188940459421     0.454837067101     1.007825032230
         H           -2.838070591688    -0.081568459421     1.578209067101     1.007825032230
         H           -0.724955591688     1.252585540579    -0.439442932899     1.007825032230
         H            0.183491408312    -1.661412059421    -0.152486532899     1.007825032230

  Basis Set: AUG-CC-PVTZ
    Blend: AUG-CC-PVTZ
  Basis Set: (AUG-CC-PVTZ AUX)
    Blend: AUG-CC-PVTZ-JKFIT
	 Reference Energy          =    -343.2842822080222049 [Eh]
	 Singles Energy            =      -0.0000000000000000 [Eh]
	 Same-Spin Energy          =      -0.3482251854061787 [Eh]
	 Opposite-Spin Energy      =      -1.1057522973331957 [Eh]
	 Correlation Energy        =      -1.4539774827393743 [Eh]
	 Total Energy              =    -344.7382596907615948 [Eh]

	 ================> DF-SCS-MP2 Energies <==================
	-----------------------------------------------------------
	 SCS Same-Spin Scale       =       0.3333333333333333 [-]
	 SCS Opposite-Spin Scale   =       1.2000000000000000 [-]
	 SCS Same-Spin Energy      =      -0.1160750618020596 [Eh]
	 SCS Opposite-Spin Energy  =      -1.3269027567998348 [Eh]
	 SCS Correlation Energy    =      -1.4429778186018944 [Eh]
	 SCS Total Energy          =    -344.7272600266240943 [Eh]
	-----------------------------------------------------------

  Dipole Moment: [D]
     X:    -9.4932      Y:    -1.1450      Z:    -0.6718     Total:     9.5856

*** Psi4 exiting successfully. Buy a developer a beer!
