                               Psi4 1.4a2.dev612

  ==> Input File <==

--------------------------------------------------------------------------
#psi4
#
memory 32 gb

molecule  {
-1 1
  O        1.8996640     1.2894670    -0.0585490
  O        2.6973380    -0.8133440     0.2844750
  C       -2.1007360    -0.3533330    -0.4966910
  C       -3.0415820     0.2042600     0.5765370
  C       -0.7068410     0.1811810    -0.3555730
  C        0.3877500    -0.5533880    -0.1062960
  C        1.7796670     0.0321010     0.0519970
  H       -2.0810980    -1.4485100    -0.4425170
  H       -2.4999350    -0.0921100    -1.4864390
  H       -3.0846480     1.2965650     0.5261450
  H       -4.0584310    -0.1803650     0.4515950
  H       -2.6909580    -0.0729930     1.5749670
  H       -0.5778430     1.2611610    -0.4426850
  H        0.3383546    -1.6578958    -0.2048644
units angstrom
no_reorient  #important for SAPT in psi4, default
symmetry c1  #important for SAPT in psi4, default
}

set PROPERTIES_ORIGIN ["COM"]
properties('MP2/aug-cc-pvtz', properties = ['dipole'])
--------------------------------------------------------------------------

    Molecular point group: c1
  Charge       = -1
  Multiplicity = 1
  Basis Set: AUG-CC-PVTZ
    Blend: AUG-CC-PVTZ
  Basis Set: (AUG-CC-PVTZ AUX)
    Blend: AUG-CC-PVTZ-JKFIT

    Orbital Energies [Eh]
    ---------------------

    Doubly Occupied:

       1A    -20.295318     2A    -20.291870     3A    -11.142127
       4A    -11.115899     5A    -11.114136     6A    -11.086155
       7A    -11.071992     8A     -1.161900     9A     -1.061112
      10A     -0.954334    11A     -0.862201    12A     -0.743509
      13A     -0.632397    14A     -0.548014    15A     -0.494988
      16A     -0.484100    17A     -0.446014    18A     -0.419355
      19A     -0.407873    20A     -0.383239    21A     -0.375900
      22A     -0.358954    23A     -0.346501    24A     -0.212208
      25A     -0.210453    26A     -0.202068    27A     -0.191202

  @DF-RHF Final Energy:  -343.28310687492399

   => Energetics <=

    Nuclear Repulsion Energy =            270.7602492901226583
    One-Electron Energy =               -1014.8590755682643021
    Two-Electron Energy =                 400.8157194032175994
    Total Energy =                       -343.2831068749239876
  Basis Set: (AUG-CC-PVTZ AUX)
    Blend: AUG-CC-PVTZ-RI
    Molecular point group: c1

    Geometry (in Angstrom), charge = -1, multiplicity = 1:

       Center              X                  Y                   Z               Mass
    ------------   -----------------  -----------------  -----------------  -----------------
         O            1.752472542343     1.280943020298    -0.054806953223    15.994914619570
         O            2.550146542343    -0.821867979702     0.288217046777    15.994914619570
         C           -2.247927457657    -0.361856979702    -0.492948953223    12.000000000000
         C           -3.188773457657     0.195736020298     0.580279046777    12.000000000000
         C           -0.854032457657     0.172657020298    -0.351830953223    12.000000000000
         C            0.240558542343    -0.561911979702    -0.102553953223    12.000000000000
         C            1.632475542343     0.023577020298     0.055739046777    12.000000000000
         H           -2.228289457657    -1.457033979702    -0.438774953223     1.007825032230
         H           -2.647126457657    -0.100633979702    -1.482696953223     1.007825032230
         H           -3.231839457657     1.288041020298     0.529887046777     1.007825032230
         H           -4.205622457657    -0.188888979702     0.455337046777     1.007825032230
         H           -2.838149457657    -0.081516979702     1.578709046777     1.007825032230
         H           -0.725034457657     1.252637020298    -0.438942953223     1.007825032230
         H            0.191163142343    -1.666419779702    -0.201122353223     1.007825032230

  Basis Set: AUG-CC-PVTZ
    Blend: AUG-CC-PVTZ
  Basis Set: (AUG-CC-PVTZ AUX)
    Blend: AUG-CC-PVTZ-JKFIT
	 Reference Energy          =    -343.2831068749239876 [Eh]
	 Singles Energy            =      -0.0000000000000000 [Eh]
	 Same-Spin Energy          =      -0.3482856839891980 [Eh]
	 Opposite-Spin Energy      =      -1.1058923909942049 [Eh]
	 Correlation Energy        =      -1.4541780749834028 [Eh]
	 Total Energy              =    -344.7372849499074050 [Eh]

	 ================> DF-SCS-MP2 Energies <==================
	-----------------------------------------------------------
	 SCS Same-Spin Scale       =       0.3333333333333333 [-]
	 SCS Opposite-Spin Scale   =       1.2000000000000000 [-]
	 SCS Same-Spin Energy      =      -0.1160952279963993 [Eh]
	 SCS Opposite-Spin Energy  =      -1.3270708691930457 [Eh]
	 SCS Correlation Energy    =      -1.4431660971894451 [Eh]
	 SCS Total Energy          =    -344.7262729721134065 [Eh]
	-----------------------------------------------------------

  Dipole Moment: [D]
     X:    -9.4869      Y:    -1.1347      Z:    -0.7021     Total:     9.5802

*** Psi4 exiting successfully. Buy a developer a beer!
