                               Psi4 1.4a2.dev612

  ==> Input File <==

--------------------------------------------------------------------------
#psi4
#
memory 32 gb

molecule  {
-1 1
  O        1.8996640     1.2894670    -0.0585490
  O        2.6973380    -0.8133440     0.2844750
  C       -2.1007360    -0.3533330    -0.4966910
  C       -3.0415820     0.2042600     0.5765370
  C       -0.7068410     0.1811810    -0.3555730
  C        0.3877500    -0.5533880    -0.1062960
  C        1.7796670     0.0321010     0.0519970
  H       -2.0810980    -1.4485100    -0.4425170
  H       -2.4999350    -0.0921100    -1.4864390
  H       -3.0846480     1.2965650     0.5261450
  H       -4.0584310    -0.1803650     0.4515950
  H       -2.6909580    -0.0729930     1.5749670
  H       -0.5924340     1.2716335    -0.3443111
  H        0.3073520    -1.6376590    -0.0083210
units angstrom
no_reorient  #important for SAPT in psi4, default
symmetry c1  #important for SAPT in psi4, default
}

set PROPERTIES_ORIGIN ["COM"]
properties('MP2/aug-cc-pvtz', properties = ['dipole'])
--------------------------------------------------------------------------

    Molecular point group: c1
  Charge       = -1
  Multiplicity = 1
  Basis Set: AUG-CC-PVTZ
    Blend: AUG-CC-PVTZ
  Basis Set: (AUG-CC-PVTZ AUX)
    Blend: AUG-CC-PVTZ-JKFIT

    Orbital Energies [Eh]
    ---------------------

    Doubly Occupied:

       1A    -20.295391     2A    -20.291651     3A    -11.142030
       4A    -11.115971     5A    -11.114031     6A    -11.085954
       7A    -11.070169     8A     -1.161842     9A     -1.061054
      10A     -0.954319    11A     -0.862301    12A     -0.743849
      13A     -0.632860    14A     -0.548380    15A     -0.494726
      16A     -0.485801    17A     -0.446338    18A     -0.418235
      19A     -0.409195    20A     -0.383236    21A     -0.375900
      22A     -0.358215    23A     -0.348363    24A     -0.211332
      25A     -0.209027    26A     -0.204468    27A     -0.191198

  @DF-RHF Final Energy:  -343.28503679122520

   => Energetics <=

    Nuclear Repulsion Energy =            270.8555043787171144
    One-Electron Energy =               -1015.0494062328539258
    Two-Electron Energy =                 400.9088650629116160
    Total Energy =                       -343.2850367912251954
  Basis Set: (AUG-CC-PVTZ AUX)
    Blend: AUG-CC-PVTZ-RI
    Molecular point group: c1

    Geometry (in Angstrom), charge = -1, multiplicity = 1:

       Center              X                  Y                   Z               Mass
    ------------   -----------------  -----------------  -----------------  -----------------
         O            1.752936478482     1.280630538851    -0.057807874263    15.994914619570
         O            2.550610478482    -0.822180461149     0.285216125737    15.994914619570
         C           -2.247463521518    -0.362169461149    -0.495949874263    12.000000000000
         C           -3.188309521518     0.195423538851     0.577278125737    12.000000000000
         C           -0.853568521518     0.172344538851    -0.354831874263    12.000000000000
         C            0.241022478482    -0.562224461149    -0.105554874263    12.000000000000
         C            1.632939478482     0.023264538851     0.052738125737    12.000000000000
         H           -2.227825521518    -1.457346461149    -0.441775874263     1.007825032230
         H           -2.646662521518    -0.100946461149    -1.485697874263     1.007825032230
         H           -3.231375521518     1.287728538851     0.526886125737     1.007825032230
         H           -4.205158521518    -0.189201461149     0.452336125737     1.007825032230
         H           -2.837685521518    -0.081829461149     1.575708125737     1.007825032230
         H           -0.739161521518     1.262797038851    -0.343569974263     1.007825032230
         H            0.160624478482    -1.646495461149    -0.007579874263     1.007825032230

  Basis Set: AUG-CC-PVTZ
    Blend: AUG-CC-PVTZ
  Basis Set: (AUG-CC-PVTZ AUX)
    Blend: AUG-CC-PVTZ-JKFIT
	 Reference Energy          =    -343.2850367912251954 [Eh]
	 Singles Energy            =      -0.0000000000000000 [Eh]
	 Same-Spin Energy          =      -0.3481957135992978 [Eh]
	 Opposite-Spin Energy      =      -1.1056585022930441 [Eh]
	 Correlation Energy        =      -1.4538542158923420 [Eh]
	 Total Energy              =    -344.7388910071175587 [Eh]

	 ================> DF-SCS-MP2 Energies <==================
	-----------------------------------------------------------
	 SCS Same-Spin Scale       =       0.3333333333333333 [-]
	 SCS Opposite-Spin Scale   =       1.2000000000000000 [-]
	 SCS Same-Spin Energy      =      -0.1160652378664326 [Eh]
	 SCS Opposite-Spin Energy  =      -1.3267902027516529 [Eh]
	 SCS Correlation Energy    =      -1.4428554406180856 [Eh]
	 SCS Total Energy          =    -344.7278922318432706 [Eh]
	-----------------------------------------------------------

  Dipole Moment: [D]
     X:    -9.5242      Y:    -1.1546      Z:    -0.5118     Total:     9.6076

*** Psi4 exiting successfully. Buy a developer a beer!
