                               Psi4 1.4a2.dev612

  ==> Input File <==

--------------------------------------------------------------------------
#psi4
#
memory 32 gb

molecule  {
-1 1
  O        1.8996640     1.2894670    -0.0585490
  O        2.6973380    -0.8133440     0.2844750
  C       -2.1007360    -0.3533330    -0.4966910
  C       -3.0415820     0.2042600     0.5765370
  C       -0.7068410     0.1811810    -0.3555730
  C        0.3877500    -0.5533880    -0.1062960
  C        1.7796670     0.0321010     0.0519970
  H       -2.0810980    -1.4485100    -0.4425170
  H       -2.4999350    -0.0921100    -1.4864390
  H       -3.0846480     1.2965650     0.5261450
  H       -4.0584310    -0.1803650     0.4515950
  H       -2.6909580    -0.0729930     1.5749670
  H       -0.6143206     1.2873423    -0.1967502
  H        0.3073520    -1.6376590    -0.0083210
units angstrom
no_reorient  #important for SAPT in psi4, default
symmetry c1  #important for SAPT in psi4, default
}

set PROPERTIES_ORIGIN ["COM"]
properties('MP2/aug-cc-pvtz', properties = ['dipole'])
--------------------------------------------------------------------------

    Molecular point group: c1
  Charge       = -1
  Multiplicity = 1
  Basis Set: AUG-CC-PVTZ
    Blend: AUG-CC-PVTZ
  Basis Set: (AUG-CC-PVTZ AUX)
    Blend: AUG-CC-PVTZ-JKFIT

    Orbital Energies [Eh]
    ---------------------

    Doubly Occupied:

       1A    -20.295640     2A    -20.291744     3A    -11.142264
       4A    -11.116164     5A    -11.114072     6A    -11.088503
       7A    -11.071098     8A     -1.162018     9A     -1.061204
      10A     -0.954259    11A     -0.862179    12A     -0.743975
      13A     -0.631174    14A     -0.546556    15A     -0.494913
      16A     -0.485266    17A     -0.446538    18A     -0.416619
      19A     -0.409570    20A     -0.383575    21A     -0.376082
      22A     -0.358950    23A     -0.345340    24A     -0.211837
      25A     -0.209161    26A     -0.203644    27A     -0.191282

  @DF-RHF Final Energy:  -343.28128364970729

   => Energetics <=

    Nuclear Repulsion Energy =            270.7927015391973669
    One-Electron Energy =               -1014.9207253583850843
    Two-Electron Energy =                 400.8467401694804835
    Total Energy =                       -343.2812836497072908
  Basis Set: (AUG-CC-PVTZ AUX)
    Blend: AUG-CC-PVTZ-RI
    Molecular point group: c1

    Geometry (in Angstrom), charge = -1, multiplicity = 1:

       Center              X                  Y                   Z               Mass
    ------------   -----------------  -----------------  -----------------  -----------------
         O            1.753159184842     1.280470694487    -0.059309375224    15.994914619570
         O            2.550833184842    -0.822340305513     0.283714624776    15.994914619570
         C           -2.247240815158    -0.362329305513    -0.497451375224    12.000000000000
         C           -3.188086815158     0.195263694487     0.575776624776    12.000000000000
         C           -0.853345815158     0.172184694487    -0.356333375224    12.000000000000
         C            0.241245184842    -0.562384305513    -0.107056375224    12.000000000000
         C            1.633162184842     0.023104694487     0.051236624776    12.000000000000
         H           -2.227602815158    -1.457506305513    -0.443277375224     1.007825032230
         H           -2.646439815158    -0.101106305513    -1.487199375224     1.007825032230
         H           -3.231152815158     1.287568694487     0.525384624776     1.007825032230
         H           -4.204935815158    -0.189361305513     0.450834624776     1.007825032230
         H           -2.837462815158    -0.081989305513     1.574206624776     1.007825032230
         H           -0.760825415158     1.278345994487    -0.197510575224     1.007825032230
         H            0.160847184842    -1.646655305513    -0.009081375224     1.007825032230

  Basis Set: AUG-CC-PVTZ
    Blend: AUG-CC-PVTZ
  Basis Set: (AUG-CC-PVTZ AUX)
    Blend: AUG-CC-PVTZ-JKFIT
	 Reference Energy          =    -343.2812836497072908 [Eh]
	 Singles Energy            =      -0.0000000000000000 [Eh]
	 Same-Spin Energy          =      -0.3484212133871533 [Eh]
	 Opposite-Spin Energy      =      -1.1061764995508758 [Eh]
	 Correlation Energy        =      -1.4545977129380292 [Eh]
	 Total Energy              =    -344.7358813626453298 [Eh]

	 ================> DF-SCS-MP2 Energies <==================
	-----------------------------------------------------------
	 SCS Same-Spin Scale       =       0.3333333333333333 [-]
	 SCS Opposite-Spin Scale   =       1.2000000000000000 [-]
	 SCS Same-Spin Energy      =      -0.1161404044623844 [Eh]
	 SCS Opposite-Spin Energy  =      -1.3274117994610510 [Eh]
	 SCS Correlation Energy    =      -1.4435522039234354 [Eh]
	 SCS Total Energy          =    -344.7248358536307364 [Eh]
	-----------------------------------------------------------

  Dipole Moment: [D]
     X:    -9.5290      Y:    -1.1756      Z:    -0.4115     Total:     9.6100

*** Psi4 exiting successfully. Buy a developer a beer!
