                               Psi4 1.4a2.dev612

  ==> Input File <==

--------------------------------------------------------------------------
#psi4
#
memory 32 gb

molecule  {
-1 1
  O        1.8996640     1.2894670    -0.0585490
  O        2.6973380    -0.8133440     0.2844750
  C       -2.1007360    -0.3533330    -0.4966910
  C       -3.0415820     0.2042600     0.5765370
  C       -0.7068410     0.1811810    -0.3555730
  C        0.4342010    -0.5838590    -0.4011075
  C        1.7796670     0.0321010     0.0519970
  H       -2.0810980    -1.4485100    -0.4425170
  H       -2.4999350    -0.0921100    -1.4864390
  H       -3.0846480     1.2965650     0.5261450
  H       -4.0584310    -0.1803650     0.4515950
  H       -2.6909580    -0.0729930     1.5749670
  H       -0.5778430     1.2611610    -0.4426850
  H        0.3073520    -1.6376590    -0.0083210
units angstrom
no_reorient  #important for SAPT in psi4, default
symmetry c1  #important for SAPT in psi4, default
}

set PROPERTIES_ORIGIN ["COM"]
properties('MP2/aug-cc-pvtz', properties = ['dipole'])
--------------------------------------------------------------------------

    Molecular point group: c1
  Charge       = -1
  Multiplicity = 1
  Basis Set: AUG-CC-PVTZ
    Blend: AUG-CC-PVTZ
  Basis Set: (AUG-CC-PVTZ AUX)
    Blend: AUG-CC-PVTZ-JKFIT

    Orbital Energies [Eh]
    ---------------------

    Doubly Occupied:

       1A    -20.295250     2A    -20.292008     3A    -11.144877
       4A    -11.118241     5A    -11.116196     6A    -11.097428
       7A    -11.076360     8A     -1.160945     9A     -1.060761
      10A     -0.954868    11A     -0.858154    12A     -0.742675
      13A     -0.629043    14A     -0.540846    15A     -0.498254
      16A     -0.481284    17A     -0.445779    18A     -0.412965
      19A     -0.408742    20A     -0.383740    21A     -0.375375
      22A     -0.358513    23A     -0.342750    24A     -0.209517
      25A     -0.207334    26A     -0.200172    27A     -0.191040

  @DF-RHF Final Energy:  -343.26063250710121

   => Energetics <=

    Nuclear Repulsion Energy =            269.6897216384073772
    One-Electron Energy =               -1012.6944733093633886
    Two-Electron Energy =                 399.7441191638548048
    Total Energy =                       -343.2606325071012066
  Basis Set: (AUG-CC-PVTZ AUX)
    Blend: AUG-CC-PVTZ-RI
    Molecular point group: c1

    Geometry (in Angstrom), charge = -1, multiplicity = 1:

       Center              X                  Y                   Z               Mass
    ------------   -----------------  -----------------  -----------------  -----------------
         O            1.747160119658     1.284428892630    -0.021088239724    15.994914619570
         O            2.544834119658    -0.818382107370     0.321935760276    15.994914619570
         C           -2.253239880342    -0.358371107370    -0.459230239724    12.000000000000
         C           -3.194085880342     0.199221892630     0.613997760276    12.000000000000
         C           -0.859344880342     0.176142892630    -0.318112239724    12.000000000000
         C            0.281697119658    -0.588897107370    -0.363646739724    12.000000000000
         C            1.627163119658     0.027062892630     0.089457760276    12.000000000000
         H           -2.233601880342    -1.453548107370    -0.405056239724     1.007825032230
         H           -2.652438880342    -0.097148107370    -1.448978239724     1.007825032230
         H           -3.237151880342     1.291526892630     0.563605760276     1.007825032230
         H           -4.210934880342    -0.185403107370     0.489055760276     1.007825032230
         H           -2.843461880342    -0.078031107370     1.612427760276     1.007825032230
         H           -0.730346880342     1.256122892630    -0.405224239724     1.007825032230
         H            0.154848119658    -1.642697107370     0.029139760276     1.007825032230

  Basis Set: AUG-CC-PVTZ
    Blend: AUG-CC-PVTZ
  Basis Set: (AUG-CC-PVTZ AUX)
    Blend: AUG-CC-PVTZ-JKFIT
	 Reference Energy          =    -343.2606325071012066 [Eh]
	 Singles Energy            =      -0.0000000000000000 [Eh]
	 Same-Spin Energy          =      -0.3496035497543371 [Eh]
	 Opposite-Spin Energy      =      -1.1092784616028974 [Eh]
	 Correlation Energy        =      -1.4588820113572345 [Eh]
	 Total Energy              =    -344.7195145184584248 [Eh]

	 ================> DF-SCS-MP2 Energies <==================
	-----------------------------------------------------------
	 SCS Same-Spin Scale       =       0.3333333333333333 [-]
	 SCS Opposite-Spin Scale   =       1.2000000000000000 [-]
	 SCS Same-Spin Energy      =      -0.1165345165847790 [Eh]
	 SCS Opposite-Spin Energy  =      -1.3311341539234769 [Eh]
	 SCS Correlation Energy    =      -1.4476686705082560 [Eh]
	 SCS Total Energy          =    -344.7083011776094850 [Eh]
	-----------------------------------------------------------

  Dipole Moment: [D]
     X:    -9.5419      Y:    -1.0155      Z:    -0.5791     Total:     9.6132

*** Psi4 exiting successfully. Buy a developer a beer!
