                               Psi4 1.4a2.dev612

  ==> Input File <==

--------------------------------------------------------------------------
#psi4
#
memory 32 gb

molecule  {
-1 1
  O        1.8996640     1.2894670    -0.0585490
  O        2.6973380    -0.8133440     0.2844750
  C       -2.1007360    -0.3533330    -0.4966910
  C       -3.0415820     0.2042600     0.5765370
  C       -0.7068410     0.1811810    -0.3555730
  C        0.3877500    -0.5533880    -0.1062960
  C        1.7796670     0.0321010     0.0519970
  H       -2.0810980    -1.4485100    -0.4425170
  H       -2.4999350    -0.0921100    -1.4864390
  H       -3.0846480     1.2965650     0.5261450
  H       -4.0584310    -0.1803650     0.4515950
  H       -2.6909580    -0.0729930     1.5749670
  H       -0.5997296     1.2768698    -0.2951241
  H        0.3073520    -1.6376590    -0.0083210
units angstrom
no_reorient  #important for SAPT in psi4, default
symmetry c1  #important for SAPT in psi4, default
}

set PROPERTIES_ORIGIN ["COM"]
properties('MP2/aug-cc-pvtz', properties = ['dipole'])
--------------------------------------------------------------------------

    Molecular point group: c1
  Charge       = -1
  Multiplicity = 1
  Basis Set: AUG-CC-PVTZ
    Blend: AUG-CC-PVTZ
  Basis Set: (AUG-CC-PVTZ AUX)
    Blend: AUG-CC-PVTZ-JKFIT

    Orbital Energies [Eh]
    ---------------------

    Doubly Occupied:

       1A    -20.295448     2A    -20.291672     3A    -11.142083
       4A    -11.116050     5A    -11.114044     6A    -11.086580
       7A    -11.070387     8A     -1.161882     9A     -1.061088
      10A     -0.954322    11A     -0.862262    12A     -0.743880
      13A     -0.632482    14A     -0.547890    15A     -0.494779
      16A     -0.485641    17A     -0.446458    18A     -0.417713
      19A     -0.409336    20A     -0.383351    21A     -0.375944
      22A     -0.358431    23A     -0.347648    24A     -0.211455
      25A     -0.209060    26A     -0.204254    27A     -0.191216

  @DF-RHF Final Energy:  -343.28417942669000

   => Energetics <=

    Nuclear Repulsion Energy =            270.8431428429283301
    One-Electron Energy =               -1015.0239317440524474
    Two-Electron Energy =                 400.8966094744340580
    Total Energy =                       -343.2841794266900024
  Basis Set: (AUG-CC-PVTZ AUX)
    Blend: AUG-CC-PVTZ-RI
    Molecular point group: c1

    Geometry (in Angstrom), charge = -1, multiplicity = 1:

       Center              X                  Y                   Z               Mass
    ------------   -----------------  -----------------  -----------------  -----------------
         O            1.753010714614     1.280577257057    -0.058308374922    15.994914619570
         O            2.550684714614    -0.822233742943     0.284715625078    15.994914619570
         C           -2.247389285386    -0.362222742943    -0.496450374922    12.000000000000
         C           -3.188235285386     0.195370257057     0.576777625078    12.000000000000
         C           -0.853494285386     0.172291257057    -0.355332374922    12.000000000000
         C            0.241096714614    -0.562277742943    -0.106055374922    12.000000000000
         C            1.633013714614     0.023211257057     0.052237625078    12.000000000000
         H           -2.227751285386    -1.457399742943    -0.442276374922     1.007825032230
         H           -2.646588285386    -0.100999742943    -1.486198374922     1.007825032230
         H           -3.231301285386     1.287675257057     0.526385625078     1.007825032230
         H           -4.205084285386    -0.189254742943     0.451835625078     1.007825032230
         H           -2.837611285386    -0.081882742943     1.575207625078     1.007825032230
         H           -0.746382885386     1.267980057057    -0.294883474922     1.007825032230
         H            0.160698714614    -1.646548742943    -0.008080374922     1.007825032230

  Basis Set: AUG-CC-PVTZ
    Blend: AUG-CC-PVTZ
  Basis Set: (AUG-CC-PVTZ AUX)
    Blend: AUG-CC-PVTZ-JKFIT
	 Reference Energy          =    -343.2841794266900024 [Eh]
	 Singles Energy            =      -0.0000000000000000 [Eh]
	 Same-Spin Energy          =      -0.3482519298012946 [Eh]
	 Opposite-Spin Energy      =      -1.1057806029072124 [Eh]
	 Correlation Energy        =      -1.4540325327085069 [Eh]
	 Total Energy              =    -344.7382119593984839 [Eh]

	 ================> DF-SCS-MP2 Energies <==================
	-----------------------------------------------------------
	 SCS Same-Spin Scale       =       0.3333333333333333 [-]
	 SCS Opposite-Spin Scale   =       1.2000000000000000 [-]
	 SCS Same-Spin Energy      =      -0.1160839766004315 [Eh]
	 SCS Opposite-Spin Energy  =      -1.3269367234886549 [Eh]
	 SCS Correlation Energy    =      -1.4430207000890864 [Eh]
	 SCS Total Energy          =    -344.7272001267791097 [Eh]
	-----------------------------------------------------------

  Dipole Moment: [D]
     X:    -9.5278      Y:    -1.1591      Z:    -0.4781     Total:     9.6099

*** Psi4 exiting successfully. Buy a developer a beer!
