                               Psi4 1.4a2.dev612

  ==> Input File <==

--------------------------------------------------------------------------
#psi4
#
memory 32 gb

molecule  {
-1 1
  O        1.8996640     1.2894670    -0.0585490
  O        2.6973380    -0.8133440     0.2844750
  C       -2.1007360    -0.3533330    -0.4966910
  C       -3.0415820     0.2042600     0.5765370
  C       -0.7068410     0.1811810    -0.3555730
  C        0.4187173    -0.5737020    -0.3028370
  C        1.7796670     0.0321010     0.0519970
  H       -2.0810980    -1.4485100    -0.4425170
  H       -2.4999350    -0.0921100    -1.4864390
  H       -3.0846480     1.2965650     0.5261450
  H       -4.0584310    -0.1803650     0.4515950
  H       -2.6909580    -0.0729930     1.5749670
  H       -0.5778430     1.2611610    -0.4426850
  H        0.3073520    -1.6376590    -0.0083210
units angstrom
no_reorient  #important for SAPT in psi4, default
symmetry c1  #important for SAPT in psi4, default
}

set PROPERTIES_ORIGIN ["COM"]
properties('MP2/aug-cc-pvtz', properties = ['dipole'])
--------------------------------------------------------------------------

    Molecular point group: c1
  Charge       = -1
  Multiplicity = 1
  Basis Set: AUG-CC-PVTZ
    Blend: AUG-CC-PVTZ
  Basis Set: (AUG-CC-PVTZ AUX)
    Blend: AUG-CC-PVTZ-JKFIT

    Orbital Energies [Eh]
    ---------------------

    Doubly Occupied:

       1A    -20.295244     2A    -20.291742     3A    -11.143289
       4A    -11.116991     5A    -11.114989     6A    -11.090845
       7A    -11.072928     8A     -1.161374     9A     -1.060862
      10A     -0.954443    11A     -0.860706    12A     -0.743301
      13A     -0.630940    14A     -0.544957    15A     -0.496892
      16A     -0.483822    17A     -0.446114    18A     -0.415786
      19A     -0.408835    20A     -0.383356    21A     -0.375750
      22A     -0.358509    23A     -0.346191    24A     -0.210036
      25A     -0.208496    26A     -0.202674    27A     -0.191080

  @DF-RHF Final Energy:  -343.27475122848875

   => Energetics <=

    Nuclear Repulsion Energy =            270.2804868668163181
    One-Electron Energy =               -1013.8901696239928469
    Two-Electron Energy =                 400.3349315286877754
    Total Energy =                       -343.2747512284887534
  Basis Set: (AUG-CC-PVTZ AUX)
    Blend: AUG-CC-PVTZ-RI
    Molecular point group: c1

    Geometry (in Angstrom), charge = -1, multiplicity = 1:

       Center              X                  Y                   Z               Mass
    ------------   -----------------  -----------------  -----------------  -----------------
         O            1.749036086562     1.283198295561    -0.032994451136    15.994914619570
         O            2.546710086562    -0.819612704439     0.310029548864    15.994914619570
         C           -2.251363913438    -0.359601704439    -0.471136451136    12.000000000000
         C           -3.192209913438     0.197991295561     0.602091548864    12.000000000000
         C           -0.857468913438     0.174912295561    -0.330018451136    12.000000000000
         C            0.268089386562    -0.579970704439    -0.277282451136    12.000000000000
         C            1.629039086562     0.025832295561     0.077551548864    12.000000000000
         H           -2.231725913438    -1.454778704439    -0.416962451136     1.007825032230
         H           -2.650562913438    -0.098378704439    -1.460884451136     1.007825032230
         H           -3.235275913438     1.290296295561     0.551699548864     1.007825032230
         H           -4.209058913438    -0.186633704439     0.477149548864     1.007825032230
         H           -2.841585913438    -0.079261704439     1.600521548864     1.007825032230
         H           -0.728470913438     1.254892295561    -0.417130451136     1.007825032230
         H            0.156724086562    -1.643927704439     0.017233548864     1.007825032230

  Basis Set: AUG-CC-PVTZ
    Blend: AUG-CC-PVTZ
  Basis Set: (AUG-CC-PVTZ AUX)
    Blend: AUG-CC-PVTZ-JKFIT
	 Reference Energy          =    -343.2747512284887534 [Eh]
	 Singles Energy            =      -0.0000000000000000 [Eh]
	 Same-Spin Energy          =      -0.3487710957736913 [Eh]
	 Opposite-Spin Energy      =      -1.1071425584337553 [Eh]
	 Correlation Energy        =      -1.4559136542074467 [Eh]
	 Total Energy              =    -344.7306648826962032 [Eh]

	 ================> DF-SCS-MP2 Energies <==================
	-----------------------------------------------------------
	 SCS Same-Spin Scale       =       0.3333333333333333 [-]
	 SCS Opposite-Spin Scale   =       1.2000000000000000 [-]
	 SCS Same-Spin Energy      =      -0.1162570319245638 [Eh]
	 SCS Opposite-Spin Energy  =      -1.3285710701205062 [Eh]
	 SCS Correlation Energy    =      -1.4448281020450700 [Eh]
	 SCS Total Energy          =    -344.7195793305338043 [Eh]
	-----------------------------------------------------------

  Dipole Moment: [D]
     X:    -9.5321      Y:    -1.0918      Z:    -0.5852     Total:     9.6122

*** Psi4 exiting successfully. Buy a developer a beer!
