                               Psi4 1.4a2.dev612

  ==> Input File <==

--------------------------------------------------------------------------
#psi4
#
memory 32 gb

molecule  {
-1 1
  O        1.8996640     1.2894670    -0.0585490
  O        2.6973380    -0.8133440     0.2844750
  C       -2.1007360    -0.3533330    -0.4966910
  C       -3.0415820     0.2042600     0.5765370
  C       -0.7068410     0.1811810    -0.3555730
  C        0.3954918    -0.5584665    -0.1554313
  C        1.7796670     0.0321010     0.0519970
  H       -2.0810980    -1.4485100    -0.4425170
  H       -2.4999350    -0.0921100    -1.4864390
  H       -3.0846480     1.2965650     0.5261450
  H       -4.0584310    -0.1803650     0.4515950
  H       -2.6909580    -0.0729930     1.5749670
  H       -0.5778430     1.2611610    -0.4426850
  H        0.3073520    -1.6376590    -0.0083210
units angstrom
no_reorient  #important for SAPT in psi4, default
symmetry c1  #important for SAPT in psi4, default
}

set PROPERTIES_ORIGIN ["COM"]
properties('MP2/aug-cc-pvtz', properties = ['dipole'])
--------------------------------------------------------------------------

    Molecular point group: c1
  Charge       = -1
  Multiplicity = 1
  Basis Set: AUG-CC-PVTZ
    Blend: AUG-CC-PVTZ
  Basis Set: (AUG-CC-PVTZ AUX)
    Blend: AUG-CC-PVTZ-JKFIT

    Orbital Energies [Eh]
    ---------------------

    Doubly Occupied:

       1A    -20.295345     2A    -20.291645     3A    -11.142082
       4A    -11.115907     5A    -11.114060     6A    -11.085743
       7A    -11.070198     8A     -1.161788     9A     -1.061022
      10A     -0.954226    11A     -0.862377    12A     -0.743750
      13A     -0.632788    14A     -0.548594    15A     -0.495128
      16A     -0.486010    17A     -0.446114    18A     -0.418664
      19A     -0.408862    20A     -0.383070    21A     -0.375937
      22A     -0.358078    23A     -0.348656    24A     -0.211149
      25A     -0.208981    26A     -0.204523    27A     -0.191183

  @DF-RHF Final Energy:  -343.28508587731113

   => Energetics <=

    Nuclear Repulsion Energy =            270.7896575032672786
    One-Electron Energy =               -1014.9177255930995898
    Two-Electron Energy =                 400.8429822125212354
    Total Energy =                       -343.2850858773111327
  Basis Set: (AUG-CC-PVTZ AUX)
    Blend: AUG-CC-PVTZ-RI
    Molecular point group: c1

    Geometry (in Angstrom), charge = -1, multiplicity = 1:

       Center              X                  Y                   Z               Mass
    ------------   -----------------  -----------------  -----------------  -----------------
         O            1.751850030860     1.281352399957    -0.050853762197    15.994914619570
         O            2.549524030860    -0.821458600043     0.292170237803    15.994914619570
         C           -2.248549969140    -0.361447600043    -0.488995762197    12.000000000000
         C           -3.189395969140     0.196145399957     0.584232237803    12.000000000000
         C           -0.854654969140     0.173066399957    -0.347877762197    12.000000000000
         C            0.247677830860    -0.566581100043    -0.147736062197    12.000000000000
         C            1.631853030860     0.023986399957     0.059692237803    12.000000000000
         H           -2.228911969140    -1.456624600043    -0.434821762197     1.007825032230
         H           -2.647748969140    -0.100224600043    -1.478743762197     1.007825032230
         H           -3.232461969140     1.288450399957     0.533840237803     1.007825032230
         H           -4.206244969140    -0.188479600043     0.459290237803     1.007825032230
         H           -2.838771969140    -0.081107600043     1.582662237803     1.007825032230
         H           -0.725656969140     1.253046399957    -0.434989762197     1.007825032230
         H            0.159538030860    -1.645773600043    -0.000625762197     1.007825032230

  Basis Set: AUG-CC-PVTZ
    Blend: AUG-CC-PVTZ
  Basis Set: (AUG-CC-PVTZ AUX)
    Blend: AUG-CC-PVTZ-JKFIT
	 Reference Energy          =    -343.2850858773111327 [Eh]
	 Singles Energy            =      -0.0000000000000000 [Eh]
	 Same-Spin Energy          =      -0.3481677615683135 [Eh]
	 Opposite-Spin Energy      =      -1.1056356475169311 [Eh]
	 Correlation Energy        =      -1.4538034090852445 [Eh]
	 Total Energy              =    -344.7388892863963861 [Eh]

	 ================> DF-SCS-MP2 Energies <==================
	-----------------------------------------------------------
	 SCS Same-Spin Scale       =       0.3333333333333333 [-]
	 SCS Opposite-Spin Scale   =       1.2000000000000000 [-]
	 SCS Same-Spin Energy      =      -0.1160559205227712 [Eh]
	 SCS Opposite-Spin Energy  =      -1.3267627770203172 [Eh]
	 SCS Correlation Energy    =      -1.4428186975430883 [Eh]
	 SCS Total Energy          =    -344.7279045748542217 [Eh]
	-----------------------------------------------------------

  Dipole Moment: [D]
     X:    -9.5132      Y:    -1.1499      Z:    -0.5814     Total:     9.6000

*** Psi4 exiting successfully. Buy a developer a beer!
