                               Psi4 1.4a2.dev612

  ==> Input File <==

--------------------------------------------------------------------------
#psi4
#
memory 32 gb

molecule  {
-1 1
  O        1.8996640     1.2894670    -0.0585490
  O        2.6973380    -0.8133440     0.2844750
  C       -2.1007360    -0.3533330    -0.4966910
  C       -3.0415820     0.2042600     0.5765370
  C       -0.7068410     0.1811810    -0.3555730
  C        0.4032337    -0.5635450    -0.2045665
  C        1.7796670     0.0321010     0.0519970
  H       -2.0810980    -1.4485100    -0.4425170
  H       -2.4999350    -0.0921100    -1.4864390
  H       -3.0846480     1.2965650     0.5261450
  H       -4.0584310    -0.1803650     0.4515950
  H       -2.6909580    -0.0729930     1.5749670
  H       -0.5778430     1.2611610    -0.4426850
  H        0.3073520    -1.6376590    -0.0083210
units angstrom
no_reorient  #important for SAPT in psi4, default
symmetry c1  #important for SAPT in psi4, default
}

set PROPERTIES_ORIGIN ["COM"]
properties('MP2/aug-cc-pvtz', properties = ['dipole'])
--------------------------------------------------------------------------

    Molecular point group: c1
  Charge       = -1
  Multiplicity = 1
  Basis Set: AUG-CC-PVTZ
    Blend: AUG-CC-PVTZ
  Basis Set: (AUG-CC-PVTZ AUX)
    Blend: AUG-CC-PVTZ-JKFIT

    Orbital Energies [Eh]
    ---------------------

    Doubly Occupied:

       1A    -20.295316     2A    -20.291656     3A    -11.142326
       4A    -11.116158     5A    -11.114247     6A    -11.086771
       7A    -11.070753     8A     -1.161698     9A     -1.060984
      10A     -0.954253    11A     -0.862108    12A     -0.743649
      13A     -0.632370    14A     -0.547788    15A     -0.495661
      16A     -0.485606    17A     -0.446195    18A     -0.417911
      19A     -0.408854    20A     -0.383137    21A     -0.375945
      22A     -0.358220    23A     -0.348161    24A     -0.210873
      25A     -0.208914    26A     -0.204143    27A     -0.191157

  @DF-RHF Final Energy:  -343.28305367231445

   => Energetics <=

    Nuclear Repulsion Energy =            270.6724598191148630
    One-Electron Energy =               -1014.6813198602478678
    Two-Electron Energy =                 400.7258063688184961
    Total Energy =                       -343.2830536723144519
  Basis Set: (AUG-CC-PVTZ AUX)
    Blend: AUG-CC-PVTZ-RI
    Molecular point group: c1

    Geometry (in Angstrom), charge = -1, multiplicity = 1:

       Center              X                  Y                   Z               Mass
    ------------   -----------------  -----------------  -----------------  -----------------
         O            1.750912041350     1.281967698491    -0.044900662549    15.994914619570
         O            2.548586041350    -0.820843301509     0.298123337451    15.994914619570
         C           -2.249487958650    -0.360832301509    -0.483042662549    12.000000000000
         C           -3.190333958650     0.196760698491     0.590185337451    12.000000000000
         C           -0.855592958650     0.173681698491    -0.341924662549    12.000000000000
         C            0.254481741350    -0.571044301509    -0.190918162549    12.000000000000
         C            1.630915041350     0.024601698491     0.065645337451    12.000000000000
         H           -2.229849958650    -1.456009301509    -0.428868662549     1.007825032230
         H           -2.648686958650    -0.099609301509    -1.472790662549     1.007825032230
         H           -3.233399958650     1.289065698491     0.539793337451     1.007825032230
         H           -4.207182958650    -0.187864301509     0.465243337451     1.007825032230
         H           -2.839709958650    -0.080492301509     1.588615337451     1.007825032230
         H           -0.726594958650     1.253661698491    -0.429036662549     1.007825032230
         H            0.158600041350    -1.645158301509     0.005327337451     1.007825032230

  Basis Set: AUG-CC-PVTZ
    Blend: AUG-CC-PVTZ
  Basis Set: (AUG-CC-PVTZ AUX)
    Blend: AUG-CC-PVTZ-JKFIT
	 Reference Energy          =    -343.2830536723144519 [Eh]
	 Singles Energy            =      -0.0000000000000000 [Eh]
	 Same-Spin Energy          =      -0.3482817906372991 [Eh]
	 Opposite-Spin Energy      =      -1.1059133741950036 [Eh]
	 Correlation Energy        =      -1.4541951648323028 [Eh]
	 Total Energy              =    -344.7372488371467512 [Eh]

	 ================> DF-SCS-MP2 Energies <==================
	-----------------------------------------------------------
	 SCS Same-Spin Scale       =       0.3333333333333333 [-]
	 SCS Opposite-Spin Scale   =       1.2000000000000000 [-]
	 SCS Same-Spin Energy      =      -0.1160939302124330 [Eh]
	 SCS Opposite-Spin Energy  =      -1.3270960490340042 [Eh]
	 SCS Correlation Energy    =      -1.4431899792464373 [Eh]
	 SCS Total Energy          =    -344.7262436515608783 [Eh]
	-----------------------------------------------------------

  Dipole Moment: [D]
     X:    -9.5180      Y:    -1.1384      Z:    -0.5836     Total:     9.6036

*** Psi4 exiting successfully. Buy a developer a beer!
