                               Psi4 1.3.2 release

  ==> Input File <==

--------------------------------------------------------------------------
#psi4
#
memory 32 gb

molecule  {
0 1
  O       -2.6783605     0.0215988    -0.0000153
  O        2.6785490     0.0000000    -0.0000520
  C       -1.4409660     0.0000000     0.0000110
  C        1.4409670     0.0000000    -0.0000170
  C        0.6745940    -1.2666350     0.0000030
  C       -0.6745950    -1.2666360     0.0000440
  C        0.6745950     1.2666360    -0.0000060
  C       -0.6745940     1.2666350     0.0000350
  H        1.2594220    -2.1829270     0.0000060
  H        1.2594200     2.1829290    -0.0000100
  H       -1.2594210    -2.1829290     0.0000640
  H       -1.2594220     2.1829270     0.0000490
units angstrom
no_reorient  #important for SAPT in psi4, default
symmetry c1  #important for SAPT in psi4, default
}

set PROPERTIES_ORIGIN ["COM"]
properties('MP2/aug-cc-pvtz', properties = ['dipole'])
--------------------------------------------------------------------------

    Molecular point group: c1
  Charge       = 0
  Multiplicity = 1
  Basis Set: AUG-CC-PVTZ
    Blend: AUG-CC-PVTZ
  Basis Set: (AUG-CC-PVTZ AUX)
    Blend: AUG-CC-PVTZ-JKFIT

    Orbital Energies [Eh]
    ---------------------

    Doubly Occupied:

       1A    -20.582375     2A    -20.582369     3A    -11.367052
       4A    -11.367039     5A    -11.290188     6A    -11.288609
       7A    -11.288587     8A    -11.287006     9A     -1.405326
      10A     -1.402637    11A     -1.161970    12A     -1.077123
      13A     -0.971386    14A     -0.876962    15A     -0.833117
      16A     -0.715929    17A     -0.714498    18A     -0.689458
      19A     -0.643230    20A     -0.630991    21A     -0.603016
      22A     -0.593540    23A     -0.584991    24A     -0.549801
      25A     -0.467703    26A     -0.448816    27A     -0.415206
      28A     -0.411756

  @DF-RHF Final Energy:  -379.36285103083060

   => Energetics <=

    Nuclear Repulsion Energy =            321.5012046767371885
    One-Electron Energy =               -1153.2267391876775946
    Two-Electron Energy =                 452.3626834801098084
    Total Energy =                       -379.3628510308305977
  Basis Set: (AUG-CC-PVTZ AUX)
    Blend: AUG-CC-PVTZ-RI
    Molecular point group: c1

    Geometry (in Angstrom), charge = 0, multiplicity = 1:

       Center              X                  Y                   Z               Mass
    ------------   -----------------  -----------------  -----------------  -----------------
         O           -2.678388513349     0.018400620497    -0.000014127962    15.994914619570
         O            2.678520986651    -0.003198179503    -0.000050827962    15.994914619570
         C           -1.440994013349    -0.003198179503     0.000012172038    12.000000000000
         C            1.440938986651    -0.003198179503    -0.000015827962    12.000000000000
         C            0.674565986651    -1.269833179503     0.000004172038    12.000000000000
         C           -0.674623013349    -1.269834179503     0.000045172038    12.000000000000
         C            0.674566986651     1.263437820497    -0.000004827962    12.000000000000
         C           -0.674622013349     1.263436820497     0.000036172038    12.000000000000
         H            1.259393986651    -2.186125179503     0.000007172038     1.007825032230
         H            1.259391986651     2.179730820497    -0.000008827962     1.007825032230
         H           -1.259449013349    -2.186127179503     0.000065172038     1.007825032230
         H           -1.259450013349     2.179728820497     0.000050172038     1.007825032230

  Basis Set: AUG-CC-PVTZ
    Blend: AUG-CC-PVTZ
  Basis Set: (AUG-CC-PVTZ AUX)
    Blend: AUG-CC-PVTZ-JKFIT
	 Reference Energy          =    -379.3628510308305977 [Eh]
	 Singles Energy            =      -0.0000000000000000 [Eh]
	 Same-Spin Energy          =      -0.3779591600455220 [Eh]
	 Opposite-Spin Energy      =      -1.1642389309469836 [Eh]
	 Correlation Energy        =      -1.5421980909925055 [Eh]
	 Total Energy              =    -380.9050491218230832 [Eh]

	 ================> DF-SCS-MP2 Energies <==================
	-----------------------------------------------------------
	 SCS Same-Spin Scale       =       0.3333333333333333 [-]
	 SCS Opposite-Spin Scale   =       1.2000000000000000 [-]
	 SCS Same-Spin Energy      =      -0.1259863866818406 [Eh]
	 SCS Opposite-Spin Energy  =      -1.3970867171363803 [Eh]
	 SCS Correlation Energy    =      -1.5230731038182210 [Eh]
	 SCS Total Energy          =    -380.8859241346488034 [Eh]
	-----------------------------------------------------------

  Dipole Moment: [D]
     X:    -0.0006      Y:    -0.0482      Z:     0.0001     Total:     0.0482

*** Psi4 exiting successfully. Buy a developer a beer!
