                               Psi4 1.3.2 release

  ==> Input File <==

--------------------------------------------------------------------------
#psi4
#
memory 32 gb

molecule  {
0 1
  O       -2.6785490     0.0000000    -0.0000150
  O        2.6785490     0.0000000    -0.0000520
  C       -1.4409660     0.0000000     0.0000110
  C        1.4409670     0.0000000    -0.0000170
  C        0.6672029    -1.1256064     0.0000029
  C       -0.6745950    -1.2666360     0.0000440
  C        0.6745950     1.2666360    -0.0000060
  C       -0.6745940     1.2666350     0.0000350
  H        1.2594220    -2.1829270     0.0000060
  H        1.2594200     2.1829290    -0.0000100
  H       -1.2594210    -2.1829290     0.0000640
  H       -1.2594220     2.1829270     0.0000490
units angstrom
no_reorient  #important for SAPT in psi4, default
symmetry c1  #important for SAPT in psi4, default
}

set PROPERTIES_ORIGIN ["COM"]
properties('MP2/aug-cc-pvtz', properties = ['dipole'])
--------------------------------------------------------------------------

    Molecular point group: c1
  Charge       = 0
  Multiplicity = 1
  Basis Set: AUG-CC-PVTZ
    Blend: AUG-CC-PVTZ
  Basis Set: (AUG-CC-PVTZ AUX)
    Blend: AUG-CC-PVTZ-JKFIT

    Orbital Energies [Eh]
    ---------------------

    Doubly Occupied:

       1A    -20.583572     2A    -20.583359     3A    -11.364918
       4A    -11.359227     5A    -11.297962     6A    -11.288993
       7A    -11.287090     8A    -11.285076     9A     -1.407317
      10A     -1.403826    11A     -1.175186    12A     -1.075784
      13A     -0.989920    14A     -0.882243    15A     -0.830631
      16A     -0.726447    17A     -0.715270    18A     -0.683379
      19A     -0.643094    20A     -0.629314    21A     -0.603614
      22A     -0.600804    23A     -0.560977    24A     -0.551953
      25A     -0.471122    26A     -0.447559    27A     -0.415796
      28A     -0.410930

  @DF-RHF Final Energy:  -379.33641583929034

   => Energetics <=

    Nuclear Repulsion Energy =            323.7132831380735638
    One-Electron Energy =               -1157.5486729229858156
    Two-Electron Energy =                 454.4989739456218558
    Total Energy =                       -379.3364158392903391
  Basis Set: (AUG-CC-PVTZ AUX)
    Blend: AUG-CC-PVTZ-RI
    Molecular point group: c1

    Geometry (in Angstrom), charge = 0, multiplicity = 1:

       Center              X                  Y                   Z               Mass
    ------------   -----------------  -----------------  -----------------  -----------------
         O           -2.677728029063    -0.015666779360    -0.000013861275    15.994914619570
         O            2.679369970937    -0.015666779360    -0.000050861275    15.994914619570
         C           -1.440145029063    -0.015666779360     0.000012138725    12.000000000000
         C            1.441787970937    -0.015666779360    -0.000015861275    12.000000000000
         C            0.668023870937    -1.141273179360     0.000004038725    12.000000000000
         C           -0.673774029063    -1.282302779360     0.000045138725    12.000000000000
         C            0.675415970937     1.250969220640    -0.000004861275    12.000000000000
         C           -0.673773029063     1.250968220640     0.000036138725    12.000000000000
         H            1.260242970937    -2.198593779360     0.000007138725     1.007825032230
         H            1.260240970937     2.167262220640    -0.000008861275     1.007825032230
         H           -1.258600029063    -2.198595779360     0.000065138725     1.007825032230
         H           -1.258601029063     2.167260220640     0.000050138725     1.007825032230

  Basis Set: AUG-CC-PVTZ
    Blend: AUG-CC-PVTZ
  Basis Set: (AUG-CC-PVTZ AUX)
    Blend: AUG-CC-PVTZ-JKFIT
	 Reference Energy          =    -379.3364158392903391 [Eh]
	 Singles Energy            =      -0.0000000000000000 [Eh]
	 Same-Spin Energy          =      -0.3802293968477070 [Eh]
	 Opposite-Spin Energy      =      -1.1678095618643343 [Eh]
	 Correlation Energy        =      -1.5480389587120413 [Eh]
	 Total Energy              =    -380.8844547980023663 [Eh]

	 ================> DF-SCS-MP2 Energies <==================
	-----------------------------------------------------------
	 SCS Same-Spin Scale       =       0.3333333333333333 [-]
	 SCS Opposite-Spin Scale   =       1.2000000000000000 [-]
	 SCS Same-Spin Energy      =      -0.1267431322825690 [Eh]
	 SCS Opposite-Spin Energy  =      -1.4013714742372010 [Eh]
	 SCS Correlation Energy    =      -1.5281146065197699 [Eh]
	 SCS Total Energy          =    -380.8645304458100895 [Eh]
	-----------------------------------------------------------

  Dipole Moment: [D]
     X:    -0.2022      Y:    -0.0816      Z:     0.0001     Total:     0.2181

*** Psi4 exiting successfully. Buy a developer a beer!
