                               Psi4 1.3.2 release

  ==> Input File <==

--------------------------------------------------------------------------
#psi4
#
memory 32 gb

molecule  {
0 1
  O       -2.6785490     0.0000000    -0.0000150
  O        2.6785490     0.0000000    -0.0000520
  C       -1.4409660     0.0000000     0.0000110
  C        1.4409670     0.0000000    -0.0000170
  C        0.6745940    -1.2666350     0.0000030
  C       -0.5745950    -1.2666359     0.0000410
  C        0.6745950     1.2666360    -0.0000060
  C       -0.6745940     1.2666350     0.0000350
  H        1.2594220    -2.1829270     0.0000060
  H        1.2594200     2.1829290    -0.0000100
  H       -1.2594210    -2.1829290     0.0000640
  H       -1.2594220     2.1829270     0.0000490
units angstrom
no_reorient  #important for SAPT in psi4, default
symmetry c1  #important for SAPT in psi4, default
}

set PROPERTIES_ORIGIN ["COM"]
properties('MP2/aug-cc-pvtz', properties = ['dipole'])
--------------------------------------------------------------------------

    Molecular point group: c1
  Charge       = 0
  Multiplicity = 1
  Basis Set: AUG-CC-PVTZ
    Blend: AUG-CC-PVTZ
  Basis Set: (AUG-CC-PVTZ AUX)
    Blend: AUG-CC-PVTZ-JKFIT

    Orbital Energies [Eh]
    ---------------------

    Doubly Occupied:

       1A    -20.586165     2A    -20.581370     3A    -11.371889
       4A    -11.366232     5A    -11.289594     6A    -11.287387
       7A    -11.281687     8A    -11.270671     9A     -1.405215
      10A     -1.402301    11A     -1.172861    12A     -1.089167
      13A     -0.964696    14A     -0.866377    15A     -0.838505
      16A     -0.720198    17A     -0.715561    18A     -0.684829
      19A     -0.646185    20A     -0.622528    21A     -0.609769
      22A     -0.595406    23A     -0.573808    24A     -0.549450
      25A     -0.469554    26A     -0.438646    27A     -0.436843
      28A     -0.413970

  @DF-RHF Final Energy:  -379.35065693400804

   => Energetics <=

    Nuclear Repulsion Energy =            322.2960655222942137
    One-Electron Energy =               -1154.7917184397972505
    Two-Electron Energy =                 453.1449959834950505
    Total Energy =                       -379.3506569340080432
  Basis Set: (AUG-CC-PVTZ AUX)
    Blend: AUG-CC-PVTZ-RI
    Molecular point group: c1

    Geometry (in Angstrom), charge = 0, multiplicity = 1:

       Center              X                  Y                   Z               Mass
    ------------   -----------------  -----------------  -----------------  -----------------
         O           -2.689658039493    -0.000000011109    -0.000013539116    15.994914619570
         O            2.667439960507    -0.000000011109    -0.000050539116    15.994914619570
         C           -1.452075039493    -0.000000011109     0.000012460884    12.000000000000
         C            1.429857960507    -0.000000011109    -0.000015539116    12.000000000000
         C            0.663484960507    -1.266635011109     0.000004460884    12.000000000000
         C           -0.585704039493    -1.266635911109     0.000042460884    12.000000000000
         C            0.663485960507     1.266635988891    -0.000004539116    12.000000000000
         C           -0.685703039493     1.266634988891     0.000036460884    12.000000000000
         H            1.248312960507    -2.182927011109     0.000007460884     1.007825032230
         H            1.248310960507     2.182928988891    -0.000008539116     1.007825032230
         H           -1.270530039493    -2.182929011109     0.000065460884     1.007825032230
         H           -1.270531039493     2.182926988891     0.000050460884     1.007825032230

  Basis Set: AUG-CC-PVTZ
    Blend: AUG-CC-PVTZ
  Basis Set: (AUG-CC-PVTZ AUX)
    Blend: AUG-CC-PVTZ-JKFIT
	 Reference Energy          =    -379.3506569340080432 [Eh]
	 Singles Energy            =      -0.0000000000000000 [Eh]
	 Same-Spin Energy          =      -0.3771120172560041 [Eh]
	 Opposite-Spin Energy      =      -1.1622707621881614 [Eh]
	 Correlation Energy        =      -1.5393827794441655 [Eh]
	 Total Energy              =    -380.8900397134522109 [Eh]

	 ================> DF-SCS-MP2 Energies <==================
	-----------------------------------------------------------
	 SCS Same-Spin Scale       =       0.3333333333333333 [-]
	 SCS Opposite-Spin Scale   =       1.2000000000000000 [-]
	 SCS Same-Spin Energy      =      -0.1257040057520014 [Eh]
	 SCS Opposite-Spin Energy  =      -1.3947249146257936 [Eh]
	 SCS Correlation Energy    =      -1.5204289203777950 [Eh]
	 SCS Total Energy          =    -380.8710858543858535 [Eh]
	-----------------------------------------------------------

  Dipole Moment: [D]
     X:    -0.0472      Y:     0.1155      Z:     0.0001     Total:     0.1247

*** Psi4 exiting successfully. Buy a developer a beer!
