                               Psi4 1.3.2 release

  ==> Input File <==

--------------------------------------------------------------------------
#psi4
#
memory 32 gb

molecule  {
0 1
  O       -2.6785490     0.0000000    -0.0000150
  O        2.6785490     0.0000000    -0.0000520
  C       -1.4409660     0.0000000     0.0000110
  C        1.4409670     0.0000000    -0.0000170
  C        0.6745940    -1.2666350     0.0000030
  C       -0.7745950    -1.2666361     0.0000470
  C        0.6745950     1.2666360    -0.0000060
  C       -0.6745940     1.2666350     0.0000350
  H        1.2594220    -2.1829270     0.0000060
  H        1.2594200     2.1829290    -0.0000100
  H       -1.2594210    -2.1829290     0.0000640
  H       -1.2594220     2.1829270     0.0000490
units angstrom
no_reorient  #important for SAPT in psi4, default
symmetry c1  #important for SAPT in psi4, default
}

set PROPERTIES_ORIGIN ["COM"]
properties('MP2/aug-cc-pvtz', properties = ['dipole'])
--------------------------------------------------------------------------

    Molecular point group: c1
  Charge       = 0
  Multiplicity = 1
  Basis Set: AUG-CC-PVTZ
    Blend: AUG-CC-PVTZ
  Basis Set: (AUG-CC-PVTZ AUX)
    Blend: AUG-CC-PVTZ-JKFIT

    Orbital Energies [Eh]
    ---------------------

    Doubly Occupied:

       1A    -20.583747     2A    -20.578395     3A    -11.368204
       4A    -11.362146     5A    -11.304169     6A    -11.294588
       7A    -11.290190     8A    -11.287857     9A     -1.406071
      10A     -1.403285    11A     -1.155106    12A     -1.067556
      13A     -0.977527    14A     -0.885498    15A     -0.830315
      16A     -0.717195    17A     -0.710144    18A     -0.695412
      19A     -0.646869    20A     -0.634376    21A     -0.592893
      22A     -0.592344    23A     -0.591171    24A     -0.550738
      25A     -0.464975    26A     -0.455718    27A     -0.413701
      28A     -0.392511

  @DF-RHF Final Energy:  -379.34406493751590

   => Energetics <=

    Nuclear Repulsion Energy =            320.8777668989810081
    One-Electron Energy =               -1151.9382639724769888
    Two-Electron Energy =                 451.7164321359800851
    Total Energy =                       -379.3440649375158955
  Basis Set: (AUG-CC-PVTZ AUX)
    Blend: AUG-CC-PVTZ-RI
    Molecular point group: c1

    Geometry (in Angstrom), charge = 0, multiplicity = 1:

       Center              X                  Y                   Z               Mass
    ------------   -----------------  -----------------  -----------------  -----------------
         O           -2.667440164026     0.000000011109    -0.000014205652    15.994914619570
         O            2.689657835974     0.000000011109    -0.000051205652    15.994914619570
         C           -1.429857164026     0.000000011109     0.000011794348    12.000000000000
         C            1.452075835974     0.000000011109    -0.000016205652    12.000000000000
         C            0.685702835974    -1.266634988891     0.000003794348    12.000000000000
         C           -0.763486164026    -1.266636088891     0.000047794348    12.000000000000
         C            0.685703835974     1.266636011109    -0.000005205652    12.000000000000
         C           -0.663485164026     1.266635011109     0.000035794348    12.000000000000
         H            1.270530835974    -2.182926988891     0.000006794348     1.007825032230
         H            1.270528835974     2.182929011109    -0.000009205652     1.007825032230
         H           -1.248312164026    -2.182928988891     0.000064794348     1.007825032230
         H           -1.248313164026     2.182927011109     0.000049794348     1.007825032230

  Basis Set: AUG-CC-PVTZ
    Blend: AUG-CC-PVTZ
  Basis Set: (AUG-CC-PVTZ AUX)
    Blend: AUG-CC-PVTZ-JKFIT
	 Reference Energy          =    -379.3440649375158955 [Eh]
	 Singles Energy            =      -0.0000000000000000 [Eh]
	 Same-Spin Energy          =      -0.3797929963139234 [Eh]
	 Opposite-Spin Energy      =      -1.1682264921574370 [Eh]
	 Correlation Energy        =      -1.5480194884713605 [Eh]
	 Total Energy              =    -380.8920844259872638 [Eh]

	 ================> DF-SCS-MP2 Energies <==================
	-----------------------------------------------------------
	 SCS Same-Spin Scale       =       0.3333333333333333 [-]
	 SCS Opposite-Spin Scale   =       1.2000000000000000 [-]
	 SCS Same-Spin Energy      =      -0.1265976654379745 [Eh]
	 SCS Opposite-Spin Energy  =      -1.4018717905889244 [Eh]
	 SCS Correlation Energy    =      -1.5284694560268988 [Eh]
	 SCS Total Energy          =    -380.8725343935428214 [Eh]
	-----------------------------------------------------------

  Dipole Moment: [D]
     X:     0.0307      Y:    -0.0883      Z:     0.0001     Total:     0.0935

*** Psi4 exiting successfully. Buy a developer a beer!
