                               Psi4 1.3.2 release

  ==> Input File <==

--------------------------------------------------------------------------
#psi4
#
memory 32 gb

molecule  {
0 1
  O       -2.6785490     0.0000000    -0.0000150
  O        2.6785490     0.0000000    -0.0000520
  C       -1.4409660     0.0000000     0.0000110
  C        1.4409670     0.0000000    -0.0000170
  C        0.6743885    -1.2901816     0.0000031
  C       -0.6745950    -1.2666360     0.0000440
  C        0.6745950     1.2666360    -0.0000060
  C       -0.6745940     1.2666350     0.0000350
  H        1.2594220    -2.1829270     0.0000060
  H        1.2594200     2.1829290    -0.0000100
  H       -1.2594210    -2.1829290     0.0000640
  H       -1.2594220     2.1829270     0.0000490
units angstrom
no_reorient  #important for SAPT in psi4, default
symmetry c1  #important for SAPT in psi4, default
}

set PROPERTIES_ORIGIN ["COM"]
properties('MP2/aug-cc-pvtz', properties = ['dipole'])
--------------------------------------------------------------------------

    Molecular point group: c1
  Charge       = 0
  Multiplicity = 1
  Basis Set: AUG-CC-PVTZ
    Blend: AUG-CC-PVTZ
  Basis Set: (AUG-CC-PVTZ AUX)
    Blend: AUG-CC-PVTZ-JKFIT

    Orbital Energies [Eh]
    ---------------------

    Doubly Occupied:

       1A    -20.582374     2A    -20.582144     3A    -11.368134
       4A    -11.367539     5A    -11.289838     6A    -11.289117
       7A    -11.288227     8A    -11.287157     9A     -1.405079
      10A     -1.402404    11A     -1.160273    12A     -1.077379
      13A     -0.969279    14A     -0.876849    15A     -0.832771
      16A     -0.715008    17A     -0.714597    18A     -0.690964
      19A     -0.645104    20A     -0.630756    21A     -0.603428
      22A     -0.592606    23A     -0.585652    24A     -0.549478
      25A     -0.467338    26A     -0.447962    27A     -0.415088
      28A     -0.412062

  @DF-RHF Final Energy:  -379.36267250894599

   => Energetics <=

    Nuclear Repulsion Energy =            321.1472670986567550
    One-Electron Energy =               -1152.5226635534359048
    Two-Electron Energy =                 452.0127239458331019
    Total Energy =                       -379.3626725089459910
  Basis Set: (AUG-CC-PVTZ AUX)
    Blend: AUG-CC-PVTZ-RI
    Molecular point group: c1

    Geometry (in Angstrom), charge = 0, multiplicity = 1:

       Center              X                  Y                   Z               Mass
    ------------   -----------------  -----------------  -----------------  -----------------
         O           -2.678526272892     0.002615777132    -0.000013883493    15.994914619570
         O            2.678571727108     0.002615777132    -0.000050883493    15.994914619570
         C           -1.440943272892     0.002615777132     0.000012116507    12.000000000000
         C            1.440989727108     0.002615777132    -0.000015883493    12.000000000000
         C            0.674411227108    -1.287565822868     0.000004216507    12.000000000000
         C           -0.674572272892    -1.264020222868     0.000045116507    12.000000000000
         C            0.674617727108     1.269251777132    -0.000004883493    12.000000000000
         C           -0.674571272892     1.269250777132     0.000036116507    12.000000000000
         H            1.259444727108    -2.180311222868     0.000007116507     1.007825032230
         H            1.259442727108     2.185544777132    -0.000008883493     1.007825032230
         H           -1.259398272892    -2.180313222868     0.000065116507     1.007825032230
         H           -1.259399272892     2.185542777132     0.000050116507     1.007825032230

  Basis Set: AUG-CC-PVTZ
    Blend: AUG-CC-PVTZ
  Basis Set: (AUG-CC-PVTZ AUX)
    Blend: AUG-CC-PVTZ-JKFIT
	 Reference Energy          =    -379.3626725089459910 [Eh]
	 Singles Energy            =      -0.0000000000000000 [Eh]
	 Same-Spin Energy          =      -0.3777376861079542 [Eh]
	 Opposite-Spin Energy      =      -1.1640228100653698 [Eh]
	 Correlation Energy        =      -1.5417604961733240 [Eh]
	 Total Energy              =    -380.9044330051193015 [Eh]

	 ================> DF-SCS-MP2 Energies <==================
	-----------------------------------------------------------
	 SCS Same-Spin Scale       =       0.3333333333333333 [-]
	 SCS Opposite-Spin Scale   =       1.2000000000000000 [-]
	 SCS Same-Spin Energy      =      -0.1259125620359847 [Eh]
	 SCS Opposite-Spin Energy  =      -1.3968273720784437 [Eh]
	 SCS Correlation Energy    =      -1.5227399341144283 [Eh]
	 SCS Total Energy          =    -380.8854124430604315 [Eh]
	-----------------------------------------------------------

  Dipole Moment: [D]
     X:     0.0279      Y:     0.0179      Z:     0.0001     Total:     0.0331

*** Psi4 exiting successfully. Buy a developer a beer!
