                               Psi4 1.3.2 release

  ==> Input File <==

--------------------------------------------------------------------------
#psi4
#
memory 32 gb

molecule  {
0 1
  O       -2.6785490     0.0000000    -0.0000150
  O        2.6785490     0.0000000    -0.0000520
  C       -1.4409660     0.0000000     0.0000110
  C        1.4409670     0.0000000    -0.0000170
  C        0.6745940    -1.2666350     0.0000030
  C       -0.5881058    -1.2100912     0.0000470
  C        0.6745950     1.2666360    -0.0000060
  C       -0.6745940     1.2666350     0.0000350
  H        1.2594220    -2.1829270     0.0000060
  H        1.2594200     2.1829290    -0.0000100
  H       -1.2594210    -2.1829290     0.0000640
  H       -1.2594220     2.1829270     0.0000490
units angstrom
no_reorient  #important for SAPT in psi4, default
symmetry c1  #important for SAPT in psi4, default
}

set PROPERTIES_ORIGIN ["COM"]
properties('MP2/aug-cc-pvtz', properties = ['dipole'])
--------------------------------------------------------------------------

    Molecular point group: c1
  Charge       = 0
  Multiplicity = 1
  Basis Set: AUG-CC-PVTZ
    Blend: AUG-CC-PVTZ
  Basis Set: (AUG-CC-PVTZ AUX)
    Blend: AUG-CC-PVTZ-JKFIT

    Orbital Energies [Eh]
    ---------------------

    Doubly Occupied:

       1A    -20.586629     2A    -20.581495     3A    -11.369787
       4A    -11.365218     5A    -11.288948     6A    -11.286438
       7A    -11.283337     8A    -11.276098     9A     -1.406220
      10A     -1.402622    11A     -1.175723    12A     -1.086447
      13A     -0.971236    14A     -0.870294    15A     -0.837967
      16A     -0.722747    17A     -0.716033    18A     -0.683178
      19A     -0.644766    20A     -0.624419    21A     -0.607364
      22A     -0.597626    23A     -0.568896    24A     -0.550251
      25A     -0.470489    26A     -0.441444    27A     -0.433364
      28A     -0.413682

  @DF-RHF Final Energy:  -379.34960158694668

   => Energetics <=

    Nuclear Repulsion Energy =            323.0090294862812357
    One-Electron Energy =               -1156.1918255683460757
    Two-Electron Energy =                 453.8331944951182209
    Total Energy =                       -379.3496015869466760
  Basis Set: (AUG-CC-PVTZ AUX)
    Blend: AUG-CC-PVTZ-RI
    Molecular point group: c1

    Geometry (in Angstrom), charge = 0, multiplicity = 1:

       Center              X                  Y                   Z               Mass
    ------------   -----------------  -----------------  -----------------  -----------------
         O           -2.688157133133    -0.006281526623    -0.000014205652    15.994914619570
         O            2.668940866867    -0.006281526623    -0.000051205652    15.994914619570
         C           -1.450574133133    -0.006281526623     0.000011794348    12.000000000000
         C            1.431358866867    -0.006281526623    -0.000016205652    12.000000000000
         C            0.664985866867    -1.272916526623     0.000003794348    12.000000000000
         C           -0.597713933133    -1.216372726623     0.000047794348    12.000000000000
         C            0.664986866867     1.260354473377    -0.000005205652    12.000000000000
         C           -0.684202133133     1.260353473377     0.000035794348    12.000000000000
         H            1.249813866867    -2.189208526623     0.000006794348     1.007825032230
         H            1.249811866867     2.176647473377    -0.000009205652     1.007825032230
         H           -1.269029133133    -2.189210526623     0.000064794348     1.007825032230
         H           -1.269030133133     2.176645473377     0.000049794348     1.007825032230

  Basis Set: AUG-CC-PVTZ
    Blend: AUG-CC-PVTZ
  Basis Set: (AUG-CC-PVTZ AUX)
    Blend: AUG-CC-PVTZ-JKFIT
	 Reference Energy          =    -379.3496015869466760 [Eh]
	 Singles Energy            =      -0.0000000000000000 [Eh]
	 Same-Spin Energy          =      -0.3777589889475512 [Eh]
	 Opposite-Spin Energy      =      -1.1632826756871104 [Eh]
	 Correlation Energy        =      -1.5410416646346616 [Eh]
	 Total Energy              =    -380.8906432515813094 [Eh]

	 ================> DF-SCS-MP2 Energies <==================
	-----------------------------------------------------------
	 SCS Same-Spin Scale       =       0.3333333333333333 [-]
	 SCS Opposite-Spin Scale   =       1.2000000000000000 [-]
	 SCS Same-Spin Energy      =      -0.1259196629825171 [Eh]
	 SCS Opposite-Spin Energy  =      -1.3959392108245325 [Eh]
	 SCS Correlation Energy    =      -1.5218588738070495 [Eh]
	 SCS Total Energy          =    -380.8714604607537240 [Eh]
	-----------------------------------------------------------

  Dipole Moment: [D]
     X:     0.0314      Y:     0.0777      Z:     0.0001     Total:     0.0838

*** Psi4 exiting successfully. Buy a developer a beer!
