                               Psi4 1.4a3.dev225

  ==> Input File <==

--------------------------------------------------------------------------
#psi4
#
memory 32 gb

molecule  {
0 1
  O       -2.6785490     0.0000000    -0.0000150
  O        2.6785490     0.0000000    -0.0000520
  C       -1.4409660     0.0000000     0.0000110
  C        1.4409670     0.0000000    -0.0000170
  C        0.6745940    -1.2666350     0.0000030
  C       -0.6745950    -1.2666360     0.0000440
  C        0.6745950     1.2666360    -0.0000060
  C       -0.6745940     1.2666350     0.0000350
  H        1.2594220    -2.1829270     0.0000060
  H        1.2594200     2.1829290    -0.0000100
  H       -1.2486608    -2.1660702     0.0000636
  H       -1.2594220     2.1829270     0.0000490
units angstrom
no_reorient  #important for SAPT in psi4, default
symmetry c1  #important for SAPT in psi4, default
}

set PROPERTIES_ORIGIN ["COM"]
properties('MP2/aug-cc-pvtz', properties = ['dipole'])
--------------------------------------------------------------------------

    Molecular point group: c1
  Charge       = 0
  Multiplicity = 1
  Basis Set: AUG-CC-PVTZ
    Blend: AUG-CC-PVTZ
  Basis Set: (AUG-CC-PVTZ AUX)
    Blend: AUG-CC-PVTZ-JKFIT

    Orbital Energies [Eh]
    ---------------------

    Doubly Occupied:

       1A    -20.582356     2A    -20.582346     3A    -11.366973
       4A    -11.366918     5A    -11.289328     6A    -11.288866
       7A    -11.287731     8A    -11.286227     9A     -1.405308
      10A     -1.402618    11A     -1.162082    12A     -1.077604
      13A     -0.971631    14A     -0.877909    15A     -0.833648
      16A     -0.715929    17A     -0.715265    18A     -0.690488
      19A     -0.644568    20A     -0.631611    21A     -0.603297
      22A     -0.593502    23A     -0.585860    24A     -0.549781
      25A     -0.467724    26A     -0.448901    27A     -0.415074
      28A     -0.411860

  @DF-RHF Final Energy:  -379.36307479641152

   => Energetics <=

    Nuclear Repulsion Energy =            321.6003263770333547
    One-Electron Energy =               -1153.4159899901219433
    Two-Electron Energy =                 452.4525888166771210
    Total Energy =                       -379.3630747964115244
  Basis Set: (AUG-CC-PVTZ AUX)
    Blend: AUG-CC-PVTZ-RI
    Molecular point group: c1

    Geometry (in Angstrom), charge = 0, multiplicity = 1:

       Center              X                  Y                   Z               Mass
    ------------   -----------------  -----------------  -----------------  -----------------
         O           -2.678649493220    -0.000157290715    -0.000013868652    15.994914619570
         O            2.678448506780    -0.000157290715    -0.000050868652    15.994914619570
         C           -1.441066493220    -0.000157290715     0.000012131348    12.000000000000
         C            1.440866506780    -0.000157290715    -0.000015868652    12.000000000000
         C            0.674493506780    -1.266792290715     0.000004131348    12.000000000000
         C           -0.674695493220    -1.266793290715     0.000045131348    12.000000000000
         C            0.674494506780     1.266478709285    -0.000004868652    12.000000000000
         C           -0.674694493220     1.266477709285     0.000036131348    12.000000000000
         H            1.259321506780    -2.183084290715     0.000007131348     1.007825032230
         H            1.259319506780     2.182771709285    -0.000008868652     1.007825032230
         H           -1.248761293220    -2.166227490715     0.000064731348     1.007825032230
         H           -1.259522493220     2.182769709285     0.000050131348     1.007825032230

  Basis Set: AUG-CC-PVTZ
    Blend: AUG-CC-PVTZ
  Basis Set: (AUG-CC-PVTZ AUX)
    Blend: AUG-CC-PVTZ-JKFIT
	 Reference Energy          =    -379.3630747964115244 [Eh]
	 Singles Energy            =      -0.0000000000000000 [Eh]
	 Same-Spin Energy          =      -0.3779037041480074 [Eh]
	 Opposite-Spin Energy      =      -1.1641063371902829 [Eh]
	 Correlation Energy        =      -1.5420100413382902 [Eh]
	 Total Energy              =    -380.9050848377498255 [Eh]

	 ================> DF-SCS-MP2 Energies <==================
	-----------------------------------------------------------
	 SCS Same-Spin Scale       =       0.3333333333333333 [-]
	 SCS Opposite-Spin Scale   =       1.2000000000000000 [-]
	 SCS Same-Spin Energy      =      -0.1259679013826691 [Eh]
	 SCS Opposite-Spin Energy  =      -1.3969276046283394 [Eh]
	 SCS Correlation Energy    =      -1.5228955060110085 [Eh]
	 SCS Total Energy          =    -380.8859703024225496 [Eh]
	-----------------------------------------------------------

  Dipole Moment: [D]
     X:     0.0018      Y:    -0.0014      Z:     0.0001     Total:     0.0022

*** Psi4 exiting successfully. Buy a developer a beer!
