                               Psi4 1.3.2 release

  ==> Input File <==

--------------------------------------------------------------------------
#psi4
#
memory 32 gb

molecule  {
0 1
  O       -2.6785490     0.0000000    -0.0000150
  O        2.6785490     0.0000000    -0.0000520
  C       -1.3409660     0.0000000     0.0000131
  C        1.4409670     0.0000000    -0.0000170
  C        0.6745940    -1.2666350     0.0000030
  C       -0.6745950    -1.2666360     0.0000440
  C        0.6745950     1.2666360    -0.0000060
  C       -0.6745940     1.2666350     0.0000350
  H        1.2594220    -2.1829270     0.0000060
  H        1.2594200     2.1829290    -0.0000100
  H       -1.2594210    -2.1829290     0.0000640
  H       -1.2594220     2.1829270     0.0000490
units angstrom
no_reorient  #important for SAPT in psi4, default
symmetry c1  #important for SAPT in psi4, default
}

set PROPERTIES_ORIGIN ["COM"]
properties('MP2/aug-cc-pvtz', properties = ['dipole'])
--------------------------------------------------------------------------

    Molecular point group: c1
  Charge       = 0
  Multiplicity = 1
  Basis Set: AUG-CC-PVTZ
    Blend: AUG-CC-PVTZ
  Basis Set: (AUG-CC-PVTZ AUX)
    Blend: AUG-CC-PVTZ-JKFIT

    Orbital Energies [Eh]
    ---------------------

    Doubly Occupied:

       1A    -20.588724     2A    -20.574991     3A    -11.372080
       4A    -11.368239     5A    -11.294190     6A    -11.294162
       7A    -11.290455     8A    -11.290434     9A     -1.409664
      10A     -1.344699    11A     -1.174048    12A     -1.087059
      13A     -0.981246    14A     -0.885317    15A     -0.840799
      16A     -0.717773    17A     -0.717266    18A     -0.684738
      19A     -0.654136    20A     -0.631328    21A     -0.593431
      22A     -0.583846    23A     -0.578806    24A     -0.532601
      25A     -0.467104    26A     -0.459385    27A     -0.416853
      28A     -0.404576

  @DF-RHF Final Energy:  -379.33572884862218

   => Energetics <=

    Nuclear Repulsion Energy =            321.8429598696621383
    One-Electron Energy =               -1153.8814813891392532
    Two-Electron Energy =                 452.7027926708549899
    Total Energy =                       -379.3357288486221819
  Basis Set: (AUG-CC-PVTZ AUX)
    Blend: AUG-CC-PVTZ-RI
    Molecular point group: c1

    Geometry (in Angstrom), charge = 0, multiplicity = 1:

       Center              X                  Y                   Z               Mass
    ------------   -----------------  -----------------  -----------------  -----------------
         O           -2.689658039493     0.000000000000    -0.000014105672    15.994914619570
         O            2.667439960507     0.000000000000    -0.000051105672    15.994914619570
         C           -1.352075039493     0.000000000000     0.000013994328    12.000000000000
         C            1.429857960507     0.000000000000    -0.000016105672    12.000000000000
         C            0.663484960507    -1.266635000000     0.000003894328    12.000000000000
         C           -0.685704039493    -1.266636000000     0.000044894328    12.000000000000
         C            0.663485960507     1.266636000000    -0.000005105672    12.000000000000
         C           -0.685703039493     1.266635000000     0.000035894328    12.000000000000
         H            1.248312960507    -2.182927000000     0.000006894328     1.007825032230
         H            1.248310960507     2.182929000000    -0.000009105672     1.007825032230
         H           -1.270530039493    -2.182929000000     0.000064894328     1.007825032230
         H           -1.270531039493     2.182927000000     0.000049894328     1.007825032230

  Basis Set: AUG-CC-PVTZ
    Blend: AUG-CC-PVTZ
  Basis Set: (AUG-CC-PVTZ AUX)
    Blend: AUG-CC-PVTZ-JKFIT
	 Reference Energy          =    -379.3357288486221819 [Eh]
	 Singles Energy            =      -0.0000000000000000 [Eh]
	 Same-Spin Energy          =      -0.3825534560075015 [Eh]
	 Opposite-Spin Energy      =      -1.1731921453508241 [Eh]
	 Correlation Energy        =      -1.5557456013583255 [Eh]
	 Total Energy              =    -380.8914744499805352 [Eh]

	 ================> DF-SCS-MP2 Energies <==================
	-----------------------------------------------------------
	 SCS Same-Spin Scale       =       0.3333333333333333 [-]
	 SCS Opposite-Spin Scale   =       1.2000000000000000 [-]
	 SCS Same-Spin Energy      =      -0.1275178186691671 [Eh]
	 SCS Opposite-Spin Energy  =      -1.4078305744209889 [Eh]
	 SCS Correlation Energy    =      -1.5353483930901561 [Eh]
	 SCS Total Energy          =    -380.8710772417123280 [Eh]
	-----------------------------------------------------------

  Dipole Moment: [D]
     X:     0.2556      Y:     0.0000      Z:     0.0001     Total:     0.2556

*** Psi4 exiting successfully. Buy a developer a beer!
