                               Psi4 1.3.2 release

  ==> Input File <==

--------------------------------------------------------------------------
#psi4
#
memory 32 gb

molecule  {
0 1
  O       -2.6785490     0.0000000    -0.0000150
  O        2.6785490     0.0000000    -0.0000520
  C       -1.4409660     0.0000000     0.0000110
  C        1.4409670     0.0000000    -0.0000170
  C        0.6745940    -1.2666350     0.0000030
  C       -0.7263616    -1.1810777     0.0000418
  C        0.6745950     1.2666360    -0.0000060
  C       -0.6745940     1.2666350     0.0000350
  H        1.2594220    -2.1829270     0.0000060
  H        1.2594200     2.1829290    -0.0000100
  H       -1.2594210    -2.1829290     0.0000640
  H       -1.2594220     2.1829270     0.0000490
units angstrom
no_reorient  #important for SAPT in psi4, default
symmetry c1  #important for SAPT in psi4, default
}

set PROPERTIES_ORIGIN ["COM"]
properties('MP2/aug-cc-pvtz', properties = ['dipole'])
--------------------------------------------------------------------------

    Molecular point group: c1
  Charge       = 0
  Multiplicity = 1
  Basis Set: AUG-CC-PVTZ
    Blend: AUG-CC-PVTZ
  Basis Set: (AUG-CC-PVTZ AUX)
    Blend: AUG-CC-PVTZ-JKFIT

    Orbital Energies [Eh]
    ---------------------

    Doubly Occupied:

       1A    -20.583697     2A    -20.580499     3A    -11.366306
       4A    -11.358344     5A    -11.302771     6A    -11.291361
       7A    -11.287818     8A    -11.286198     9A     -1.406689
      10A     -1.403739    11A     -1.165006    12A     -1.071301
      13A     -0.985212    14A     -0.883734    15A     -0.829637
      16A     -0.719702    17A     -0.714016    18A     -0.687236
      19A     -0.638320    20A     -0.635547    21A     -0.599670
      22A     -0.597143    23A     -0.577674    24A     -0.551580
      25A     -0.468516    26A     -0.453057    27A     -0.413246
      28A     -0.401494

  @DF-RHF Final Energy:  -379.34560734393892

   => Energetics <=

    Nuclear Repulsion Energy =            322.4896901086186745
    One-Electron Energy =               -1155.1515689921332068
    Two-Electron Energy =                 453.3162715395756095
    Total Energy =                       -379.3456073439389229
  Basis Set: (AUG-CC-PVTZ AUX)
    Blend: AUG-CC-PVTZ-RI
    Molecular point group: c1

    Geometry (in Angstrom), charge = 0, multiplicity = 1:

       Center              X                  Y                   Z               Mass
    ------------   -----------------  -----------------  -----------------  -----------------
         O           -2.672798382399    -0.009504618272    -0.000013627987    15.994914619570
         O            2.684299617601    -0.009504618272    -0.000050627987    15.994914619570
         C           -1.435215382399    -0.009504618272     0.000012372013    12.000000000000
         C            1.446717617601    -0.009504618272    -0.000015627987    12.000000000000
         C            0.680344617601    -1.276139618272     0.000004372013    12.000000000000
         C           -0.720610982399    -1.190582318272     0.000043172013    12.000000000000
         C            0.680345617601     1.257131381728    -0.000004627987    12.000000000000
         C           -0.668843382399     1.257130381728     0.000036372013    12.000000000000
         H            1.265172617601    -2.192431618272     0.000007372013     1.007825032230
         H            1.265170617601     2.173424381728    -0.000008627987     1.007825032230
         H           -1.253670382399    -2.192433618272     0.000065372013     1.007825032230
         H           -1.253671382399     2.173422381728     0.000050372013     1.007825032230

  Basis Set: AUG-CC-PVTZ
    Blend: AUG-CC-PVTZ
  Basis Set: (AUG-CC-PVTZ AUX)
    Blend: AUG-CC-PVTZ-JKFIT
	 Reference Energy          =    -379.3456073439389229 [Eh]
	 Singles Energy            =      -0.0000000000000000 [Eh]
	 Same-Spin Energy          =      -0.3801506992370224 [Eh]
	 Opposite-Spin Energy      =      -1.1680068903563381 [Eh]
	 Correlation Energy        =      -1.5481575895933606 [Eh]
	 Total Energy              =    -380.8937649335322817 [Eh]

	 ================> DF-SCS-MP2 Energies <==================
	-----------------------------------------------------------
	 SCS Same-Spin Scale       =       0.3333333333333333 [-]
	 SCS Opposite-Spin Scale   =       1.2000000000000000 [-]
	 SCS Same-Spin Energy      =      -0.1267168997456741 [Eh]
	 SCS Opposite-Spin Energy  =      -1.4016082684276057 [Eh]
	 SCS Correlation Energy    =      -1.5283251681732799 [Eh]
	 SCS Total Energy          =    -380.8739325121122192 [Eh]
	-----------------------------------------------------------

  Dipole Moment: [D]
     X:     0.1343      Y:    -0.1251      Z:     0.0001     Total:     0.1835

*** Psi4 exiting successfully. Buy a developer a beer!
