                               Psi4 1.3.2 release

  ==> Input File <==

--------------------------------------------------------------------------
#psi4
#
memory 32 gb

molecule  {
0 1
  O       -2.6785490     0.0000000    -0.0000150
  O        2.6785490     0.0000000    -0.0000520
  C       -1.4409660     0.0000000     0.0000110
  C        1.4409670     0.0000000    -0.0000170
  C        0.6745940    -1.2666350     0.0000030
  C       -0.5463937    -1.1795897     0.0000485
  C        0.6745950     1.2666360    -0.0000060
  C       -0.6745940     1.2666350     0.0000350
  H        1.2594220    -2.1829270     0.0000060
  H        1.2594200     2.1829290    -0.0000100
  H       -1.2594210    -2.1829290     0.0000640
  H       -1.2594220     2.1829270     0.0000490
units angstrom
no_reorient  #important for SAPT in psi4, default
symmetry c1  #important for SAPT in psi4, default
}

set PROPERTIES_ORIGIN ["COM"]
properties('MP2/aug-cc-pvtz', properties = ['dipole'])
--------------------------------------------------------------------------

    Molecular point group: c1
  Charge       = 0
  Multiplicity = 1
  Basis Set: AUG-CC-PVTZ
    Blend: AUG-CC-PVTZ
  Basis Set: (AUG-CC-PVTZ AUX)
    Blend: AUG-CC-PVTZ-JKFIT

    Orbital Energies [Eh]
    ---------------------

    Doubly Occupied:

       1A    -20.588975     2A    -20.581216     3A    -11.371850
       4A    -11.364536     5A    -11.289171     6A    -11.285867
       7A    -11.281133     8A    -11.270234     9A     -1.407148
      10A     -1.402641    11A     -1.184200    12A     -1.090965
      13A     -0.971637    14A     -0.868030    15A     -0.840267
      16A     -0.726130    17A     -0.717533    18A     -0.681234
      19A     -0.647605    20A     -0.623582    21A     -0.607394
      22A     -0.600418    23A     -0.557445    24A     -0.550736
      25A     -0.471765    26A     -0.443484    27A     -0.436263
      28A     -0.414044

  @DF-RHF Final Energy:  -379.33024159104025

   => Energetics <=

    Nuclear Repulsion Energy =            323.8238366839935338
    One-Electron Energy =               -1157.7571549241833964
    Two-Electron Energy =                 454.6030766491496706
    Total Energy =                       -379.3302415910402487
  Basis Set: (AUG-CC-PVTZ AUX)
    Blend: AUG-CC-PVTZ-RI
    Molecular point group: c1

    Geometry (in Angstrom), charge = 0, multiplicity = 1:

       Center              X                  Y                   Z               Mass
    ------------   -----------------  -----------------  -----------------  -----------------
         O           -2.692790904349    -0.009669919266    -0.000014372286    15.994914619570
         O            2.664307095651    -0.009669919266    -0.000051372286    15.994914619570
         C           -1.455207904349    -0.009669919266     0.000011627714    12.000000000000
         C            1.426725095651    -0.009669919266    -0.000016372286    12.000000000000
         C            0.660352095651    -1.276304919266     0.000003627714    12.000000000000
         C           -0.560635604349    -1.189259619266     0.000049127714    12.000000000000
         C            0.660353095651     1.256966080734    -0.000005372286    12.000000000000
         C           -0.688835904349     1.256965080734     0.000035627714    12.000000000000
         H            1.245180095651    -2.192596919266     0.000006627714     1.007825032230
         H            1.245178095651     2.173259080734    -0.000009372286     1.007825032230
         H           -1.273662904349    -2.192598919266     0.000064627714     1.007825032230
         H           -1.273663904349     2.173257080734     0.000049627714     1.007825032230

  Basis Set: AUG-CC-PVTZ
    Blend: AUG-CC-PVTZ
  Basis Set: (AUG-CC-PVTZ AUX)
    Blend: AUG-CC-PVTZ-JKFIT
	 Reference Energy          =    -379.3302415910402487 [Eh]
	 Singles Energy            =      -0.0000000000000000 [Eh]
	 Same-Spin Energy          =      -0.3779885158367211 [Eh]
	 Opposite-Spin Energy      =      -1.1635073803895624 [Eh]
	 Correlation Energy        =      -1.5414958962262835 [Eh]
	 Total Energy              =    -380.8717374872665573 [Eh]

	 ================> DF-SCS-MP2 Energies <==================
	-----------------------------------------------------------
	 SCS Same-Spin Scale       =       0.3333333333333333 [-]
	 SCS Opposite-Spin Scale   =       1.2000000000000000 [-]
	 SCS Same-Spin Energy      =      -0.1259961719455737 [Eh]
	 SCS Opposite-Spin Energy  =      -1.3962088564674748 [Eh]
	 SCS Correlation Energy    =      -1.5222050284130484 [Eh]
	 SCS Total Energy          =    -380.8524466194533034 [Eh]
	-----------------------------------------------------------

  Dipole Moment: [D]
     X:     0.0564      Y:     0.1404      Z:     0.0001     Total:     0.1513

*** Psi4 exiting successfully. Buy a developer a beer!
