                               Psi4 1.4a3.dev225

  ==> Input File <==

--------------------------------------------------------------------------
#psi4
#
memory 32 gb

molecule  {
0 1
  O       -2.6785490     0.0000000    -0.0000150
  O        2.6785490     0.0000000    -0.0000520
  C       -1.4409660     0.0000000     0.0000110
  C        1.4409670     0.0000000    -0.0000170
  C        0.6745940    -1.2666350     0.0000030
  C       -0.6545950    -1.2666360     0.0000434
  C        0.6745950     1.2666360    -0.0000060
  C       -0.6745940     1.2666350     0.0000350
  H        1.2594220    -2.1829270     0.0000060
  H        1.2594200     2.1829290    -0.0000100
  H       -1.2594210    -2.1829290     0.0000640
  H       -1.2594220     2.1829270     0.0000490
units angstrom
no_reorient  #important for SAPT in psi4, default
symmetry c1  #important for SAPT in psi4, default
}

set PROPERTIES_ORIGIN ["COM"]
properties('MP2/aug-cc-pvtz', properties = ['dipole'])
--------------------------------------------------------------------------

    Molecular point group: c1
  Charge       = 0
  Multiplicity = 1
  Basis Set: AUG-CC-PVTZ
    Blend: AUG-CC-PVTZ
  Basis Set: (AUG-CC-PVTZ AUX)
    Blend: AUG-CC-PVTZ-JKFIT

    Orbital Energies [Eh]
    ---------------------

    Doubly Occupied:

       1A    -20.583150     2A    -20.582143     3A    -11.368034
       4A    -11.366847     5A    -11.289367     6A    -11.287739
       7A    -11.287600     8A    -11.284882     9A     -1.405246
      10A     -1.402546    11A     -1.163756    12A     -1.079411
      13A     -0.970065    14A     -0.875019    15A     -0.834030
      16A     -0.716772    17A     -0.714684    18A     -0.688395
      19A     -0.643462    20A     -0.629371    21A     -0.604715
      22A     -0.593797    23A     -0.583121    24A     -0.549680
      25A     -0.468143    26A     -0.447097    27A     -0.418288
      28A     -0.413201

  @DF-RHF Final Energy:  -379.36330831022593

   => Energetics <=

    Nuclear Repulsion Energy =            321.6424005860817488
    One-Electron Energy =               -1153.5102971988042100
    Two-Electron Energy =                 452.5045883024965292
    Total Energy =                       -379.3633083102259320
  Basis Set: (AUG-CC-PVTZ AUX)
    Blend: AUG-CC-PVTZ-RI
    Molecular point group: c1

    Geometry (in Angstrom), charge = 0, multiplicity = 1:

       Center              X                  Y                   Z               Mass
    ------------   -----------------  -----------------  -----------------  -----------------
         O           -2.680770889306     0.000000000000    -0.000013805730    15.994914619570
         O            2.676327110694     0.000000000000    -0.000050805730    15.994914619570
         C           -1.443187889306     0.000000000000     0.000012194270    12.000000000000
         C            1.438745110694     0.000000000000    -0.000015805730    12.000000000000
         C            0.672372110694    -1.266635000000     0.000004194270    12.000000000000
         C           -0.656816889306    -1.266636000000     0.000044594270    12.000000000000
         C            0.672373110694     1.266636000000    -0.000004805730    12.000000000000
         C           -0.676815889306     1.266635000000     0.000036194270    12.000000000000
         H            1.257200110694    -2.182927000000     0.000007194270     1.007825032230
         H            1.257198110694     2.182929000000    -0.000008805730     1.007825032230
         H           -1.261642889306    -2.182929000000     0.000065194270     1.007825032230
         H           -1.261643889306     2.182927000000     0.000050194270     1.007825032230

  Basis Set: AUG-CC-PVTZ
    Blend: AUG-CC-PVTZ
  Basis Set: (AUG-CC-PVTZ AUX)
    Blend: AUG-CC-PVTZ-JKFIT
	 Reference Energy          =    -379.3633083102259320 [Eh]
	 Singles Energy            =      -0.0000000000000000 [Eh]
	 Same-Spin Energy          =      -0.3777064109367336 [Eh]
	 Opposite-Spin Energy      =      -1.1636886708704084 [Eh]
	 Correlation Energy        =      -1.5413950818071420 [Eh]
	 Total Energy              =    -380.9047033920330705 [Eh]

	 ================> DF-SCS-MP2 Energies <==================
	-----------------------------------------------------------
	 SCS Same-Spin Scale       =       0.3333333333333333 [-]
	 SCS Opposite-Spin Scale   =       1.2000000000000000 [-]
	 SCS Same-Spin Energy      =      -0.1259021369789112 [Eh]
	 SCS Opposite-Spin Energy  =      -1.3964264050444901 [Eh]
	 SCS Correlation Energy    =      -1.5223285420234014 [Eh]
	 SCS Total Energy          =    -380.8856368522493199 [Eh]
	-----------------------------------------------------------

  Dipole Moment: [D]
     X:    -0.0095      Y:     0.0209      Z:     0.0001     Total:     0.0229

*** Psi4 exiting successfully. Buy a developer a beer!
