                               Psi4 1.3.2 release

  ==> Input File <==

--------------------------------------------------------------------------
#psi4
#
memory 32 gb

molecule  {
0 1
  O       -2.6785490     0.0000000    -0.0000150
  O        2.6785490     0.0000000    -0.0000520
  C       -1.4409660     0.0000000     0.0000110
  C        1.4409670     0.0000000    -0.0000170
  C        0.6745940    -1.2666350     0.0000030
  C       -0.7648179    -1.3170099     0.0000408
  C        0.6745950     1.2666360    -0.0000060
  C       -0.6745940     1.2666350     0.0000350
  H        1.2594220    -2.1829270     0.0000060
  H        1.2594200     2.1829290    -0.0000100
  H       -1.2594210    -2.1829290     0.0000640
  H       -1.2594220     2.1829270     0.0000490
units angstrom
no_reorient  #important for SAPT in psi4, default
symmetry c1  #important for SAPT in psi4, default
}

set PROPERTIES_ORIGIN ["COM"]
properties('MP2/aug-cc-pvtz', properties = ['dipole'])
--------------------------------------------------------------------------

    Molecular point group: c1
  Charge       = 0
  Multiplicity = 1
  Basis Set: AUG-CC-PVTZ
    Blend: AUG-CC-PVTZ
  Basis Set: (AUG-CC-PVTZ AUX)
    Blend: AUG-CC-PVTZ-JKFIT

    Orbital Energies [Eh]
    ---------------------

    Doubly Occupied:

       1A    -20.583448     2A    -20.578709     3A    -11.369065
       4A    -11.366165     5A    -11.300540     6A    -11.294759
       7A    -11.291334     8A    -11.288845     9A     -1.405592
      10A     -1.402605    11A     -1.152510    12A     -1.068261
      13A     -0.972552    14A     -0.885669    15A     -0.830177
      16A     -0.718789    17A     -0.708470    18A     -0.698458
      19A     -0.650899    20A     -0.633103    21A     -0.596560
      22A     -0.590990    23A     -0.588633    24A     -0.549888
      25A     -0.464754    26A     -0.453195    27A     -0.414165
      28A     -0.394355

  @DF-RHF Final Energy:  -379.34283771871128

   => Energetics <=

    Nuclear Repulsion Energy =            320.1653210169567387
    One-Electron Energy =               -1150.5113354526392868
    Two-Electron Energy =                 451.0031767169712111
    Total Energy =                       -379.3428377187112801
  Basis Set: (AUG-CC-PVTZ AUX)
    Blend: AUG-CC-PVTZ-RI
    Molecular point group: c1

    Geometry (in Angstrom), charge = 0, multiplicity = 1:

       Center              X                  Y                   Z               Mass
    ------------   -----------------  -----------------  -----------------  -----------------
         O           -2.668526295978     0.005596005185    -0.000013516898    15.994914619570
         O            2.688571704022     0.005596005185    -0.000050516898    15.994914619570
         C           -1.430943295978     0.005596005185     0.000012483102    12.000000000000
         C            1.450989704022     0.005596005185    -0.000015516898    12.000000000000
         C            0.684616704022    -1.261038994815     0.000004483102    12.000000000000
         C           -0.754795195978    -1.311413894815     0.000042283102    12.000000000000
         C            0.684617704022     1.272232005185    -0.000004516898    12.000000000000
         C           -0.664571295978     1.272231005185     0.000036483102    12.000000000000
         H            1.269444704022    -2.177330994815     0.000007483102     1.007825032230
         H            1.269442704022     2.188525005185    -0.000008516898     1.007825032230
         H           -1.249398295978    -2.177332994815     0.000065483102     1.007825032230
         H           -1.249399295978     2.188523005185     0.000050483102     1.007825032230

  Basis Set: AUG-CC-PVTZ
    Blend: AUG-CC-PVTZ
  Basis Set: (AUG-CC-PVTZ AUX)
    Blend: AUG-CC-PVTZ-JKFIT
	 Reference Energy          =    -379.3428377187112801 [Eh]
	 Singles Energy            =      -0.0000000000000000 [Eh]
	 Same-Spin Energy          =      -0.3790571661725766 [Eh]
	 Opposite-Spin Energy      =      -1.1673685517845462 [Eh]
	 Correlation Energy        =      -1.5464257179571228 [Eh]
	 Total Energy              =    -380.8892634366683865 [Eh]

	 ================> DF-SCS-MP2 Energies <==================
	-----------------------------------------------------------
	 SCS Same-Spin Scale       =       0.3333333333333333 [-]
	 SCS Opposite-Spin Scale   =       1.2000000000000000 [-]
	 SCS Same-Spin Energy      =      -0.1263523887241922 [Eh]
	 SCS Opposite-Spin Energy  =      -1.4008422621414554 [Eh]
	 SCS Correlation Energy    =      -1.5271946508656475 [Eh]
	 SCS Total Energy          =    -380.8700323695769043 [Eh]
	-----------------------------------------------------------

  Dipole Moment: [D]
     X:    -0.0254      Y:    -0.0265      Z:     0.0001     Total:     0.0367

*** Psi4 exiting successfully. Buy a developer a beer!
