                               Psi4 1.3.2 release

  ==> Input File <==

--------------------------------------------------------------------------
#psi4
#
memory 32 gb

molecule  {
0 1
  O       -2.6785490     0.0000000    -0.0000150
  O        2.6785490     0.0000000    -0.0000520
  C       -1.4409660     0.0000000     0.0000110
  C        1.4409670     0.0000000    -0.0000170
  C        0.6745940    -1.2666350     0.0000030
  C       -0.8111928    -1.3398048     0.0000392
  C        0.6745950     1.2666360    -0.0000060
  C       -0.6745940     1.2666350     0.0000350
  H        1.2594220    -2.1829270     0.0000060
  H        1.2594200     2.1829290    -0.0000100
  H       -1.2594210    -2.1829290     0.0000640
  H       -1.2594220     2.1829270     0.0000490
units angstrom
no_reorient  #important for SAPT in psi4, default
symmetry c1  #important for SAPT in psi4, default
}

set PROPERTIES_ORIGIN ["COM"]
properties('MP2/aug-cc-pvtz', properties = ['dipole'])
--------------------------------------------------------------------------

    Molecular point group: c1
  Charge       = 0
  Multiplicity = 1
  Basis Set: AUG-CC-PVTZ
    Blend: AUG-CC-PVTZ
  Basis Set: (AUG-CC-PVTZ AUX)
    Blend: AUG-CC-PVTZ-JKFIT

    Orbital Energies [Eh]
    ---------------------

    Doubly Occupied:

       1A    -20.584006     2A    -20.577076     3A    -11.370034
       4A    -11.366420     5A    -11.305973     6A    -11.298036
       7A    -11.292629     8A    -11.289375     9A     -1.405952
      10A     -1.402746    11A     -1.149163    12A     -1.064415
      13A     -0.973435    14A     -0.890609    15A     -0.830045
      16A     -0.724905    17A     -0.705214    18A     -0.701505
      19A     -0.654239    20A     -0.632951    21A     -0.597090
      22A     -0.590157    23A     -0.583408    24A     -0.550105
      25A     -0.463549    26A     -0.453998    27A     -0.414469
      28A     -0.385523

  @DF-RHF Final Energy:  -379.32059576750703

   => Energetics <=

    Nuclear Repulsion Energy =            319.5677055711007597
    One-Electron Energy =               -1149.2625446384397492
    Two-Electron Energy =                 450.3742432998319600
    Total Energy =                       -379.3205957675070294
  Basis Set: (AUG-CC-PVTZ AUX)
    Blend: AUG-CC-PVTZ-RI
    Molecular point group: c1

    Geometry (in Angstrom), charge = 0, multiplicity = 1:

       Center              X                  Y                   Z               Mass
    ------------   -----------------  -----------------  -----------------  -----------------
         O           -2.663374537213     0.008128276432    -0.000013339155    15.994914619570
         O            2.693723462787     0.008128276432    -0.000050339155    15.994914619570
         C           -1.425791537213     0.008128276432     0.000012660845    12.000000000000
         C            1.456141462787     0.008128276432    -0.000015339155    12.000000000000
         C            0.689768462787    -1.258506723568     0.000004660845    12.000000000000
         C           -0.796018337213    -1.331676523568     0.000040860845    12.000000000000
         C            0.689769462787     1.274764276432    -0.000004339155    12.000000000000
         C           -0.659419537213     1.274763276432     0.000036660845    12.000000000000
         H            1.274596462787    -2.174798723568     0.000007660845     1.007825032230
         H            1.274594462787     2.191057276432    -0.000008339155     1.007825032230
         H           -1.244246537213    -2.174800723568     0.000065660845     1.007825032230
         H           -1.244247537213     2.191055276432     0.000050660845     1.007825032230

  Basis Set: AUG-CC-PVTZ
    Blend: AUG-CC-PVTZ
  Basis Set: (AUG-CC-PVTZ AUX)
    Blend: AUG-CC-PVTZ-JKFIT
	 Reference Energy          =    -379.3205957675070294 [Eh]
	 Singles Energy            =      -0.0000000000000000 [Eh]
	 Same-Spin Energy          =      -0.3799530142177474 [Eh]
	 Opposite-Spin Energy      =      -1.1698184565324725 [Eh]
	 Correlation Energy        =      -1.5497714707502199 [Eh]
	 Total Energy              =    -380.8703672382572449 [Eh]

	 ================> DF-SCS-MP2 Energies <==================
	-----------------------------------------------------------
	 SCS Same-Spin Scale       =       0.3333333333333333 [-]
	 SCS Opposite-Spin Scale   =       1.2000000000000000 [-]
	 SCS Same-Spin Energy      =      -0.1266510047392491 [Eh]
	 SCS Opposite-Spin Energy  =      -1.4037821478389669 [Eh]
	 SCS Correlation Energy    =      -1.5304331525782160 [Eh]
	 SCS Total Energy          =    -380.8510289200852412 [Eh]
	-----------------------------------------------------------

  Dipole Moment: [D]
     X:    -0.0433      Y:    -0.0238      Z:     0.0001     Total:     0.0494

*** Psi4 exiting successfully. Buy a developer a beer!
