                               Psi4 1.3.2 release

  ==> Input File <==

--------------------------------------------------------------------------
#psi4
#
memory 32 gb

molecule  {
0 1
  O       -2.6785490     0.0000000    -0.0000150
  O        2.6785490     0.0000000    -0.0000520
  C       -1.2409660     0.0000000     0.0000152
  C        1.4409670     0.0000000    -0.0000170
  C        0.6745940    -1.2666350     0.0000030
  C       -0.6745950    -1.2666360     0.0000440
  C        0.6745950     1.2666360    -0.0000060
  C       -0.6745940     1.2666350     0.0000350
  H        1.2594220    -2.1829270     0.0000060
  H        1.2594200     2.1829290    -0.0000100
  H       -1.2594210    -2.1829290     0.0000640
  H       -1.2594220     2.1829270     0.0000490
units angstrom
no_reorient  #important for SAPT in psi4, default
symmetry c1  #important for SAPT in psi4, default
}

set PROPERTIES_ORIGIN ["COM"]
properties('MP2/aug-cc-pvtz', properties = ['dipole'])
--------------------------------------------------------------------------

    Molecular point group: c1
  Charge       = 0
  Multiplicity = 1
  Basis Set: AUG-CC-PVTZ
    Blend: AUG-CC-PVTZ
  Basis Set: (AUG-CC-PVTZ AUX)
    Blend: AUG-CC-PVTZ-JKFIT

    Orbital Energies [Eh]
    ---------------------

    Doubly Occupied:

       1A    -20.595329     2A    -20.565687     3A    -11.377006
       4A    -11.368173     5A    -11.299513     6A    -11.299487
       7A    -11.291871     8A    -11.291844     9A     -1.415434
      10A     -1.300298    11A     -1.183085    12A     -1.098096
      13A     -0.988654    14A     -0.893659    15A     -0.847496
      16A     -0.723021    17A     -0.721498    18A     -0.683143
      19A     -0.665523    20A     -0.635531    21A     -0.598250
      22A     -0.588098    23A     -0.541144    24A     -0.524281
      25A     -0.470335    26A     -0.456137    27A     -0.421386
      28A     -0.388697

  @DF-RHF Final Energy:  -379.28750065640725

   => Energetics <=

    Nuclear Repulsion Energy =            322.4082004221583588
    One-Electron Energy =               -1154.9260558159837728
    Two-Electron Energy =                 453.2303547374181107
    Total Energy =                       -379.2875006564072464
  Basis Set: (AUG-CC-PVTZ AUX)
    Blend: AUG-CC-PVTZ-RI
    Molecular point group: c1

    Geometry (in Angstrom), charge = 0, multiplicity = 1:

       Center              X                  Y                   Z               Mass
    ------------   -----------------  -----------------  -----------------  -----------------
         O           -2.700766977226     0.000000000000    -0.000014338959    15.994914619570
         O            2.656331022774     0.000000000000    -0.000051338959    15.994914619570
         C           -1.263183977226     0.000000000000     0.000015861041    12.000000000000
         C            1.418749022774     0.000000000000    -0.000016338959    12.000000000000
         C            0.652376022774    -1.266635000000     0.000003661041    12.000000000000
         C           -0.696812977226    -1.266636000000     0.000044661041    12.000000000000
         C            0.652377022774     1.266636000000    -0.000005338959    12.000000000000
         C           -0.696811977226     1.266635000000     0.000035661041    12.000000000000
         H            1.237204022774    -2.182927000000     0.000006661041     1.007825032230
         H            1.237202022774     2.182929000000    -0.000009338959     1.007825032230
         H           -1.281638977226    -2.182929000000     0.000064661041     1.007825032230
         H           -1.281639977226     2.182927000000     0.000049661041     1.007825032230

  Basis Set: AUG-CC-PVTZ
    Blend: AUG-CC-PVTZ
  Basis Set: (AUG-CC-PVTZ AUX)
    Blend: AUG-CC-PVTZ-JKFIT
	 Reference Energy          =    -379.2875006564072464 [Eh]
	 Singles Energy            =      -0.0000000000000000 [Eh]
	 Same-Spin Energy          =      -0.3882091315218363 [Eh]
	 Opposite-Spin Energy      =      -1.1841778360523365 [Eh]
	 Correlation Energy        =      -1.5723869675741728 [Eh]
	 Total Energy              =    -380.8598876239814217 [Eh]

	 ================> DF-SCS-MP2 Energies <==================
	-----------------------------------------------------------
	 SCS Same-Spin Scale       =       0.3333333333333333 [-]
	 SCS Opposite-Spin Scale   =       1.2000000000000000 [-]
	 SCS Same-Spin Energy      =      -0.1294030438406121 [Eh]
	 SCS Opposite-Spin Energy  =      -1.4210134032628037 [Eh]
	 SCS Correlation Energy    =      -1.5504164471034159 [Eh]
	 SCS Total Energy          =    -380.8379171035106765 [Eh]
	-----------------------------------------------------------

  Dipole Moment: [D]
     X:     0.1060      Y:    -0.0000      Z:     0.0002     Total:     0.1060

*** Psi4 exiting successfully. Buy a developer a beer!
