                               Psi4 1.4a3.dev225

  ==> Input File <==

--------------------------------------------------------------------------
#psi4
#
memory 32 gb

molecule  {
0 1
  O       -2.6785490     0.0000000    -0.0000150
  O        2.6785490     0.0000000    -0.0000520
  C       -1.4609660     0.0000000     0.0000106
  C        1.4409670     0.0000000    -0.0000170
  C        0.6745940    -1.2666350     0.0000030
  C       -0.6745950    -1.2666360     0.0000440
  C        0.6745950     1.2666360    -0.0000060
  C       -0.6745940     1.2666350     0.0000350
  H        1.2594220    -2.1829270     0.0000060
  H        1.2594200     2.1829290    -0.0000100
  H       -1.2594210    -2.1829290     0.0000640
  H       -1.2594220     2.1829270     0.0000490
units angstrom
no_reorient  #important for SAPT in psi4, default
symmetry c1  #important for SAPT in psi4, default
}

set PROPERTIES_ORIGIN ["COM"]
properties('MP2/aug-cc-pvtz', properties = ['dipole'])
--------------------------------------------------------------------------

    Molecular point group: c1
  Charge       = 0
  Multiplicity = 1
  Basis Set: AUG-CC-PVTZ
    Blend: AUG-CC-PVTZ
  Basis Set: (AUG-CC-PVTZ AUX)
    Blend: AUG-CC-PVTZ-JKFIT

    Orbital Energies [Eh]
    ---------------------

    Doubly Occupied:

       1A    -20.583774     2A    -20.581101     3A    -11.366667
       4A    -11.365993     5A    -11.288611     6A    -11.288580
       7A    -11.286920     8A    -11.286904     9A     -1.417654
      10A     -1.402737    11A     -1.159404    12A     -1.075228
      13A     -0.969119    14A     -0.875349    15A     -0.831433
      16A     -0.716139    17A     -0.714551    18A     -0.690734
      19A     -0.641212    20A     -0.631881    21A     -0.605249
      22A     -0.595209    23A     -0.586159    24A     -0.553559
      25A     -0.467165    26A     -0.445915    27A     -0.416362
      28A     -0.410795

  @DF-RHF Final Energy:  -379.36497310692755

   => Energetics <=

    Nuclear Repulsion Energy =            321.4626391842546695
    One-Electron Energy =               -1153.1464123784983258
    Two-Electron Energy =                 452.3188000873161627
    Total Energy =                       -379.3649731069275504
  Basis Set: (AUG-CC-PVTZ AUX)
    Blend: AUG-CC-PVTZ-RI
    Molecular point group: c1

    Geometry (in Angstrom), charge = 0, multiplicity = 1:

       Center              X                  Y                   Z               Mass
    ------------   -----------------  -----------------  -----------------  -----------------
         O           -2.676327314213     0.000000000000    -0.000013827948    15.994914619570
         O            2.680770685787     0.000000000000    -0.000050827948    15.994914619570
         C           -1.458744314213     0.000000000000     0.000011772052    12.000000000000
         C            1.443188685787     0.000000000000    -0.000015827948    12.000000000000
         C            0.676815685787    -1.266635000000     0.000004172052    12.000000000000
         C           -0.672373314213    -1.266636000000     0.000045172052    12.000000000000
         C            0.676816685787     1.266636000000    -0.000004827948    12.000000000000
         C           -0.672372314213     1.266635000000     0.000036172052    12.000000000000
         H            1.261643685787    -2.182927000000     0.000007172052     1.007825032230
         H            1.261641685787     2.182929000000    -0.000008827948     1.007825032230
         H           -1.257199314213    -2.182929000000     0.000065172052     1.007825032230
         H           -1.257200314213     2.182927000000     0.000050172052     1.007825032230

  Basis Set: AUG-CC-PVTZ
    Blend: AUG-CC-PVTZ
  Basis Set: (AUG-CC-PVTZ AUX)
    Blend: AUG-CC-PVTZ-JKFIT
	 Reference Energy          =    -379.3649731069275504 [Eh]
	 Singles Energy            =      -0.0000000000000000 [Eh]
	 Same-Spin Energy          =      -0.3771772089928209 [Eh]
	 Opposite-Spin Energy      =      -1.1627064269168486 [Eh]
	 Correlation Energy        =      -1.5398836359096695 [Eh]
	 Total Energy              =    -380.9048567428372394 [Eh]

	 ================> DF-SCS-MP2 Energies <==================
	-----------------------------------------------------------
	 SCS Same-Spin Scale       =       0.3333333333333333 [-]
	 SCS Opposite-Spin Scale   =       1.2000000000000000 [-]
	 SCS Same-Spin Energy      =      -0.1257257363309403 [Eh]
	 SCS Opposite-Spin Energy  =      -1.3952477123002183 [Eh]
	 SCS Correlation Energy    =      -1.5209734486311586 [Eh]
	 SCS Total Energy          =    -380.8859465555586894 [Eh]
	-----------------------------------------------------------

  Dipole Moment: [D]
     X:    -0.0901      Y:     0.0000      Z:     0.0001     Total:     0.0901

*** Psi4 exiting successfully. Buy a developer a beer!
