                               Psi4 1.4a3.dev225

  ==> Input File <==

--------------------------------------------------------------------------
#psi4
#
memory 32 gb

molecule  {
0 1
  O       -2.6785490     0.0000000    -0.0000150
  O        2.6785490     0.0000000    -0.0000520
  C       -1.4409660     0.0000000     0.0000110
  C        1.4409670     0.0000000    -0.0000170
  C        0.6745940    -1.2666350     0.0000030
  C       -0.6945950    -1.2666360     0.0000446
  C        0.6745950     1.2666360    -0.0000060
  C       -0.6745940     1.2666350     0.0000350
  H        1.2594220    -2.1829270     0.0000060
  H        1.2594200     2.1829290    -0.0000100
  H       -1.2594210    -2.1829290     0.0000640
  H       -1.2594220     2.1829270     0.0000490
units angstrom
no_reorient  #important for SAPT in psi4, default
symmetry c1  #important for SAPT in psi4, default
}

set PROPERTIES_ORIGIN ["COM"]
properties('MP2/aug-cc-pvtz', properties = ['dipole'])
--------------------------------------------------------------------------

    Molecular point group: c1
  Charge       = 0
  Multiplicity = 1
  Basis Set: AUG-CC-PVTZ
    Blend: AUG-CC-PVTZ
  Basis Set: (AUG-CC-PVTZ AUX)
    Blend: AUG-CC-PVTZ-JKFIT

    Orbital Energies [Eh]
    ---------------------

    Doubly Occupied:

       1A    -20.582625     2A    -20.581596     3A    -11.367260
       4A    -11.366057     5A    -11.292139     6A    -11.289654
       7A    -11.289478     8A    -11.287849     9A     -1.405422
      10A     -1.402730    11A     -1.160347    12A     -1.074961
      13A     -0.972690    14A     -0.878834    15A     -0.832315
      16A     -0.715467    17A     -0.714009    18A     -0.690581
      19A     -0.643327    20A     -0.632373    21A     -0.601104
      22A     -0.593328    23A     -0.586724    24A     -0.549941
      25A     -0.467279    26A     -0.450431    27A     -0.414143
      28A     -0.408439

  @DF-RHF Final Energy:  -379.36131571489409

   => Energetics <=

    Nuclear Repulsion Energy =            321.3619819558105064
    One-Electron Energy =               -1152.9443872390536399
    Two-Electron Energy =                 452.2210895683490435
    Total Energy =                       -379.3613157148940900
  Basis Set: (AUG-CC-PVTZ AUX)
    Blend: AUG-CC-PVTZ-RI
    Molecular point group: c1

    Geometry (in Angstrom), charge = 0, multiplicity = 1:

       Center              X                  Y                   Z               Mass
    ------------   -----------------  -----------------  -----------------  -----------------
         O           -2.676327314213     0.000000000000    -0.000013939038    15.994914619570
         O            2.680770685787     0.000000000000    -0.000050939038    15.994914619570
         C           -1.438744314213     0.000000000000     0.000012060962    12.000000000000
         C            1.443188685787     0.000000000000    -0.000015939038    12.000000000000
         C            0.676815685787    -1.266635000000     0.000004060962    12.000000000000
         C           -0.692373314213    -1.266636000000     0.000045660962    12.000000000000
         C            0.676816685787     1.266636000000    -0.000004939038    12.000000000000
         C           -0.672372314213     1.266635000000     0.000036060962    12.000000000000
         H            1.261643685787    -2.182927000000     0.000007060962     1.007825032230
         H            1.261641685787     2.182929000000    -0.000008939038     1.007825032230
         H           -1.257199314213    -2.182929000000     0.000065060962     1.007825032230
         H           -1.257200314213     2.182927000000     0.000050060962     1.007825032230

  Basis Set: AUG-CC-PVTZ
    Blend: AUG-CC-PVTZ
  Basis Set: (AUG-CC-PVTZ AUX)
    Blend: AUG-CC-PVTZ-JKFIT
	 Reference Energy          =    -379.3613157148940900 [Eh]
	 Singles Energy            =      -0.0000000000000000 [Eh]
	 Same-Spin Energy          =      -0.3782465530413303 [Eh]
	 Opposite-Spin Energy      =      -1.1648610622031372 [Eh]
	 Correlation Energy        =      -1.5431076152444676 [Eh]
	 Total Energy              =    -380.9044233301385702 [Eh]

	 ================> DF-SCS-MP2 Energies <==================
	-----------------------------------------------------------
	 SCS Same-Spin Scale       =       0.3333333333333333 [-]
	 SCS Opposite-Spin Scale   =       1.2000000000000000 [-]
	 SCS Same-Spin Energy      =      -0.1260821843471101 [Eh]
	 SCS Opposite-Spin Energy  =      -1.3978332746437647 [Eh]
	 SCS Correlation Energy    =      -1.5239154589908748 [Eh]
	 SCS Total Energy          =    -380.8852311738849608 [Eh]
	-----------------------------------------------------------

  Dipole Moment: [D]
     X:     0.0088      Y:    -0.0198      Z:     0.0001     Total:     0.0217

*** Psi4 exiting successfully. Buy a developer a beer!
