                               Psi4 1.3.2 release

  ==> Input File <==

--------------------------------------------------------------------------
#psi4
#
memory 32 gb

molecule  {
0 1
  O       -2.6785490     0.0000000    -0.0000150
  O        2.6785490     0.0000000    -0.0000520
  C       -1.4409660     0.0000000     0.0000110
  C        1.4409670     0.0000000    -0.0000170
  C        0.6745940    -1.2666350     0.0000030
  C       -0.6968176    -1.2798181     0.0000432
  C        0.6745950     1.2666360    -0.0000060
  C       -0.6745940     1.2666350     0.0000350
  H        1.2594220    -2.1829270     0.0000060
  H        1.2594200     2.1829290    -0.0000100
  H       -1.2594210    -2.1829290     0.0000640
  H       -1.2594220     2.1829270     0.0000490
units angstrom
no_reorient  #important for SAPT in psi4, default
symmetry c1  #important for SAPT in psi4, default
}

set PROPERTIES_ORIGIN ["COM"]
properties('MP2/aug-cc-pvtz', properties = ['dipole'])
--------------------------------------------------------------------------

    Molecular point group: c1
  Charge       = 0
  Multiplicity = 1
  Basis Set: AUG-CC-PVTZ
    Blend: AUG-CC-PVTZ
  Basis Set: (AUG-CC-PVTZ AUX)
    Blend: AUG-CC-PVTZ-JKFIT

    Orbital Energies [Eh]
    ---------------------

    Doubly Occupied:

       1A    -20.582635     2A    -20.581406     3A    -11.367550
       4A    -11.366652     5A    -11.291939     6A    -11.289830
       7A    -11.289760     8A    -11.288093     9A     -1.405303
      10A     -1.402611    11A     -1.159223    12A     -1.074823
      13A     -0.971596    14A     -0.878979    15A     -0.832115
      16A     -0.715222    17A     -0.713648    18A     -0.691623
      19A     -0.644563    20A     -0.632230    21A     -0.601106
      22A     -0.592776    23A     -0.587298    24A     -0.549775
      25A     -0.466990    26A     -0.450193    27A     -0.414161
      28A     -0.408032

  @DF-RHF Final Energy:  -379.36100328688428

   => Energetics <=

    Nuclear Repulsion Energy =            321.1482032536903262
    One-Electron Energy =               -1152.5181516522525271
    Two-Electron Energy =                 452.0089451116779173
    Total Energy =                       -379.3610032868842836
  Basis Set: (AUG-CC-PVTZ AUX)
    Blend: AUG-CC-PVTZ-RI
    Molecular point group: c1

    Geometry (in Angstrom), charge = 0, multiplicity = 1:

       Center              X                  Y                   Z               Mass
    ------------   -----------------  -----------------  -----------------  -----------------
         O           -2.676080406963     0.001464391281    -0.000013783513    15.994914619570
         O            2.681017593037     0.001464391281    -0.000050783513    15.994914619570
         C           -1.438497406963     0.001464391281     0.000012216487    12.000000000000
         C            1.443435593037     0.001464391281    -0.000015783513    12.000000000000
         C            0.677062593037    -1.265170608719     0.000004216487    12.000000000000
         C           -0.694349006963    -1.278353708719     0.000044416487    12.000000000000
         C            0.677063593037     1.268100391281    -0.000004783513    12.000000000000
         C           -0.672125406963     1.268099391281     0.000036216487    12.000000000000
         H            1.261890593037    -2.181462608719     0.000007216487     1.007825032230
         H            1.261888593037     2.184393391281    -0.000008783513     1.007825032230
         H           -1.256952406963    -2.181464608719     0.000065216487     1.007825032230
         H           -1.256953406963     2.184391391281     0.000050216487     1.007825032230

  Basis Set: AUG-CC-PVTZ
    Blend: AUG-CC-PVTZ
  Basis Set: (AUG-CC-PVTZ AUX)
    Blend: AUG-CC-PVTZ-JKFIT
	 Reference Energy          =    -379.3610032868842836 [Eh]
	 Singles Energy            =      -0.0000000000000000 [Eh]
	 Same-Spin Energy          =      -0.3781461778421266 [Eh]
	 Opposite-Spin Energy      =      -1.1647989711424900 [Eh]
	 Correlation Energy        =      -1.5429451489846167 [Eh]
	 Total Energy              =    -380.9039484358689265 [Eh]

	 ================> DF-SCS-MP2 Energies <==================
	-----------------------------------------------------------
	 SCS Same-Spin Scale       =       0.3333333333333333 [-]
	 SCS Opposite-Spin Scale   =       1.2000000000000000 [-]
	 SCS Same-Spin Energy      =      -0.1260487259473755 [Eh]
	 SCS Opposite-Spin Energy  =      -1.3977587653709880 [Eh]
	 SCS Correlation Energy    =      -1.5238074913183635 [Eh]
	 SCS Total Energy          =    -380.8848107782026204 [Eh]
	-----------------------------------------------------------

  Dipole Moment: [D]
     X:    -0.0060      Y:    -0.0109      Z:     0.0001     Total:     0.0125

*** Psi4 exiting successfully. Buy a developer a beer!
