                               Psi4 1.3.2 release

  ==> Input File <==

--------------------------------------------------------------------------
#psi4
#
memory 32 gb

molecule  {
0 1
  O       -2.6785490     0.0000000    -0.0000150
  O        2.6785490     0.0000000    -0.0000520
  C       -1.4187434     0.0131821     0.0000108
  C        1.4409670     0.0000000    -0.0000170
  C        0.6745940    -1.2666350     0.0000030
  C       -0.6745950    -1.2666360     0.0000440
  C        0.6745950     1.2666360    -0.0000060
  C       -0.6745940     1.2666350     0.0000350
  H        1.2594220    -2.1829270     0.0000060
  H        1.2594200     2.1829290    -0.0000100
  H       -1.2594210    -2.1829290     0.0000640
  H       -1.2594220     2.1829270     0.0000490
units angstrom
no_reorient  #important for SAPT in psi4, default
symmetry c1  #important for SAPT in psi4, default
}

set PROPERTIES_ORIGIN ["COM"]
properties('MP2/aug-cc-pvtz', properties = ['dipole'])
--------------------------------------------------------------------------

    Molecular point group: c1
  Charge       = 0
  Multiplicity = 1
  Basis Set: AUG-CC-PVTZ
    Blend: AUG-CC-PVTZ
  Basis Set: (AUG-CC-PVTZ AUX)
    Blend: AUG-CC-PVTZ-JKFIT

    Orbital Energies [Eh]
    ---------------------

    Doubly Occupied:

       1A    -20.583793     2A    -20.580812     3A    -11.368200
       4A    -11.367419     5A    -11.291546     6A    -11.289957
       7A    -11.288515     8A    -11.287959     9A     -1.405383
      10A     -1.389375    11A     -1.164843    12A     -1.079269
      13A     -0.973900    14A     -0.878770    15A     -0.834906
      16A     -0.716376    17A     -0.714395    18A     -0.688101
      19A     -0.645569    20A     -0.630409    21A     -0.599450
      22A     -0.592621    23A     -0.584022    24A     -0.545495
      25A     -0.468046    26A     -0.451699    27A     -0.413682
      28A     -0.412699

  @DF-RHF Final Energy:  -379.35896791047242

   => Energetics <=

    Nuclear Repulsion Energy =            321.5526272047579255
    One-Electron Energy =               -1153.3287647363908945
    Two-Electron Energy =                 452.4171696211604967
    Total Energy =                       -379.3589679104724155
  Basis Set: (AUG-CC-PVTZ AUX)
    Blend: AUG-CC-PVTZ-RI
    Molecular point group: c1

    Geometry (in Angstrom), charge = 0, multiplicity = 1:

       Center              X                  Y                   Z               Mass
    ------------   -----------------  -----------------  -----------------  -----------------
         O           -2.681017796556    -0.001464391281    -0.000013850166    15.994914619570
         O            2.676080203444    -0.001464391281    -0.000050850166    15.994914619570
         C           -1.421212196556     0.011717708719     0.000011949834    12.000000000000
         C            1.438498203444    -0.001464391281    -0.000015850166    12.000000000000
         C            0.672125203444    -1.268099391281     0.000004149834    12.000000000000
         C           -0.677063796556    -1.268100391281     0.000045149834    12.000000000000
         C            0.672126203444     1.265171608719    -0.000004850166    12.000000000000
         C           -0.677062796556     1.265170608719     0.000036149834    12.000000000000
         H            1.256953203444    -2.184391391281     0.000007149834     1.007825032230
         H            1.256951203444     2.181464608719    -0.000008850166     1.007825032230
         H           -1.261889796556    -2.184393391281     0.000065149834     1.007825032230
         H           -1.261890796556     2.181462608719     0.000050149834     1.007825032230

  Basis Set: AUG-CC-PVTZ
    Blend: AUG-CC-PVTZ
  Basis Set: (AUG-CC-PVTZ AUX)
    Blend: AUG-CC-PVTZ-JKFIT
	 Reference Energy          =    -379.3589679104724155 [Eh]
	 Singles Energy            =      -0.0000000000000000 [Eh]
	 Same-Spin Energy          =      -0.3788898833303502 [Eh]
	 Opposite-Spin Energy      =      -1.1660582381472238 [Eh]
	 Correlation Energy        =      -1.5449481214775740 [Eh]
	 Total Energy              =    -380.9039160319499615 [Eh]

	 ================> DF-SCS-MP2 Energies <==================
	-----------------------------------------------------------
	 SCS Same-Spin Scale       =       0.3333333333333333 [-]
	 SCS Opposite-Spin Scale   =       1.2000000000000000 [-]
	 SCS Same-Spin Energy      =      -0.1262966277767834 [Eh]
	 SCS Opposite-Spin Energy  =      -1.3992698857766686 [Eh]
	 SCS Correlation Energy    =      -1.5255665135534520 [Eh]
	 SCS Total Energy          =    -380.8845344240258441 [Eh]
	-----------------------------------------------------------

  Dipole Moment: [D]
     X:     0.0858      Y:     0.0476      Z:     0.0001     Total:     0.0981

*** Psi4 exiting successfully. Buy a developer a beer!
