                               Psi4 1.3.2 release

  ==> Input File <==

--------------------------------------------------------------------------
#psi4
#
memory 32 gb

molecule  {
0 1
  O       -2.6785490     0.0000000    -0.0000150
  O        2.6785490     0.0000000    -0.0000520
  C       -1.4409660     0.0000000     0.0000110
  C        1.4409670     0.0000000    -0.0000170
  C        0.6745940    -1.2666350     0.0000030
  C       -0.6308569    -1.2391184     0.0000455
  C        0.6745950     1.2666360    -0.0000060
  C       -0.6745940     1.2666350     0.0000350
  H        1.2594220    -2.1829270     0.0000060
  H        1.2594200     2.1829290    -0.0000100
  H       -1.2594210    -2.1829290     0.0000640
  H       -1.2594220     2.1829270     0.0000490
units angstrom
no_reorient  #important for SAPT in psi4, default
symmetry c1  #important for SAPT in psi4, default
}

set PROPERTIES_ORIGIN ["COM"]
properties('MP2/aug-cc-pvtz', properties = ['dipole'])
--------------------------------------------------------------------------

    Molecular point group: c1
  Charge       = 0
  Multiplicity = 1
  Basis Set: AUG-CC-PVTZ
    Blend: AUG-CC-PVTZ
  Basis Set: (AUG-CC-PVTZ AUX)
    Blend: AUG-CC-PVTZ-JKFIT

    Orbital Energies [Eh]
    ---------------------

    Doubly Occupied:

       1A    -20.584429     2A    -20.581897     3A    -11.368185
       4A    -11.366080     5A    -11.288997     6A    -11.287130
       7A    -11.286003     8A    -11.282152     9A     -1.405598
      10A     -1.402644    11A     -1.168293    12A     -1.081809
      13A     -0.971168    14A     -0.873330    15A     -0.835460
      16A     -0.719306    17A     -0.714993    18A     -0.685846
      19A     -0.642972    20A     -0.627302    21A     -0.605962
      22A     -0.595358    23A     -0.578329    24A     -0.549948
      25A     -0.469149    26A     -0.445558    27A     -0.423431
      28A     -0.413403

  @DF-RHF Final Energy:  -379.36049088558610

   => Energetics <=

    Nuclear Repulsion Energy =            322.2327873387409340
    One-Electron Energy =               -1154.6770875768679616
    Two-Electron Energy =                 453.0838093525408681
    Total Energy =                       -379.3604908855861026
  Basis Set: (AUG-CC-PVTZ AUX)
    Blend: AUG-CC-PVTZ-RI
    Molecular point group: c1

    Geometry (in Angstrom), charge = 0, multiplicity = 1:

       Center              X                  Y                   Z               Mass
    ------------   -----------------  -----------------  -----------------  -----------------
         O           -2.683407940054    -0.003056913050    -0.000014039018    15.994914619570
         O            2.673690059946    -0.003056913050    -0.000051039018    15.994914619570
         C           -1.445824940054    -0.003056913050     0.000011960982    12.000000000000
         C            1.436108059946    -0.003056913050    -0.000016039018    12.000000000000
         C            0.669735059946    -1.269691913050     0.000003960982    12.000000000000
         C           -0.635715840054    -1.242175313050     0.000046460982    12.000000000000
         C            0.669736059946     1.263579086950    -0.000005039018    12.000000000000
         C           -0.679452940054     1.263578086950     0.000035960982    12.000000000000
         H            1.254563059946    -2.185983913050     0.000006960982     1.007825032230
         H            1.254561059946     2.179872086950    -0.000009039018     1.007825032230
         H           -1.264279940054    -2.185985913050     0.000064960982     1.007825032230
         H           -1.264280940054     2.179870086950     0.000049960982     1.007825032230

  Basis Set: AUG-CC-PVTZ
    Blend: AUG-CC-PVTZ
  Basis Set: (AUG-CC-PVTZ AUX)
    Blend: AUG-CC-PVTZ-JKFIT
	 Reference Energy          =    -379.3604908855861026 [Eh]
	 Singles Energy            =      -0.0000000000000000 [Eh]
	 Same-Spin Energy          =      -0.3777467224692120 [Eh]
	 Opposite-Spin Energy      =      -1.1635100048218394 [Eh]
	 Correlation Energy        =      -1.5412567272910516 [Eh]
	 Total Energy              =    -380.9017476128771591 [Eh]

	 ================> DF-SCS-MP2 Energies <==================
	-----------------------------------------------------------
	 SCS Same-Spin Scale       =       0.3333333333333333 [-]
	 SCS Opposite-Spin Scale   =       1.2000000000000000 [-]
	 SCS Same-Spin Energy      =      -0.1259155741564040 [Eh]
	 SCS Opposite-Spin Energy  =      -1.3962120057862073 [Eh]
	 SCS Correlation Energy    =      -1.5221275799426113 [Eh]
	 SCS Total Energy          =    -380.8826184655287079 [Eh]
	-----------------------------------------------------------

  Dipole Moment: [D]
     X:     0.0136      Y:     0.0316      Z:     0.0001     Total:     0.0344

*** Psi4 exiting successfully. Buy a developer a beer!
