                               Psi4 1.4a3.dev225

  ==> Input File <==

--------------------------------------------------------------------------
#psi4
#
memory 32 gb

molecule  {
0 1
  O       -2.6785490     0.0000000    -0.0000150
  O        2.6785490     0.0000000    -0.0000520
  C       -1.4409660     0.0000000     0.0000110
  C        1.4409670     0.0000000    -0.0000170
  C        0.6745940    -1.2666350     0.0000030
  C       -0.6642417    -1.2837477     0.0000444
  C        0.6745950     1.2666360    -0.0000060
  C       -0.6745940     1.2666350     0.0000350
  H        1.2594220    -2.1829270     0.0000060
  H        1.2594200     2.1829290    -0.0000100
  H       -1.2594210    -2.1829290     0.0000640
  H       -1.2594220     2.1829270     0.0000490
units angstrom
no_reorient  #important for SAPT in psi4, default
symmetry c1  #important for SAPT in psi4, default
}

set PROPERTIES_ORIGIN ["COM"]
properties('MP2/aug-cc-pvtz', properties = ['dipole'])
--------------------------------------------------------------------------

    Molecular point group: c1
  Charge       = 0
  Multiplicity = 1
  Basis Set: AUG-CC-PVTZ
    Blend: AUG-CC-PVTZ
  Basis Set: (AUG-CC-PVTZ AUX)
    Blend: AUG-CC-PVTZ-JKFIT

    Orbital Energies [Eh]
    ---------------------

    Doubly Occupied:

       1A    -20.582588     2A    -20.582256     3A    -11.368299
       4A    -11.367301     5A    -11.289678     6A    -11.288306
       7A    -11.288082     8A    -11.285798     9A     -1.405090
      10A     -1.402430    11A     -1.161606    12A     -1.078483
      13A     -0.969171    14A     -0.875836    15A     -0.833319
      16A     -0.715528    17A     -0.714754    18A     -0.689961
      19A     -0.644545    20A     -0.630089    21A     -0.604195
      22A     -0.592978    23A     -0.584683    24A     -0.549503
      25A     -0.467651    26A     -0.447348    27A     -0.416435
      28A     -0.412954

  @DF-RHF Final Energy:  -379.36327388199663

   => Energetics <=

    Nuclear Repulsion Energy =            321.3161496216769137
    One-Electron Energy =               -1152.8611138507394571
    Two-Electron Energy =                 452.1816903470659099
    Total Energy =                       -379.3632738819966335
  Basis Set: (AUG-CC-PVTZ AUX)
    Blend: AUG-CC-PVTZ-RI
    Molecular point group: c1

    Geometry (in Angstrom), charge = 0, multiplicity = 1:

       Center              X                  Y                   Z               Mass
    ------------   -----------------  -----------------  -----------------  -----------------
         O           -2.679699243410     0.001900928098    -0.000013916820    15.994914619570
         O            2.677398756590     0.001900928098    -0.000050916820    15.994914619570
         C           -1.442116243410     0.001900928098     0.000012083180    12.000000000000
         C            1.439816756590     0.001900928098    -0.000015916820    12.000000000000
         C            0.673443756590    -1.264734071902     0.000004083180    12.000000000000
         C           -0.665391943410    -1.281846771902     0.000045483180    12.000000000000
         C            0.673444756590     1.268536928098    -0.000004916820    12.000000000000
         C           -0.675744243410     1.268535928098     0.000036083180    12.000000000000
         H            1.258271756590    -2.181026071902     0.000007083180     1.007825032230
         H            1.258269756590     2.184829928098    -0.000008916820     1.007825032230
         H           -1.260571243410    -2.181028071902     0.000065083180     1.007825032230
         H           -1.260572243410     2.184827928098     0.000050083180     1.007825032230

  Basis Set: AUG-CC-PVTZ
    Blend: AUG-CC-PVTZ
  Basis Set: (AUG-CC-PVTZ AUX)
    Blend: AUG-CC-PVTZ-JKFIT
	 Reference Energy          =    -379.3632738819966335 [Eh]
	 Singles Energy            =      -0.0000000000000000 [Eh]
	 Same-Spin Energy          =      -0.3776643828088783 [Eh]
	 Opposite-Spin Energy      =      -1.1637836499276810 [Eh]
	 Correlation Energy        =      -1.5414480327365594 [Eh]
	 Total Energy              =    -380.9047219147332157 [Eh]

	 ================> DF-SCS-MP2 Energies <==================
	-----------------------------------------------------------
	 SCS Same-Spin Scale       =       0.3333333333333333 [-]
	 SCS Opposite-Spin Scale   =       1.2000000000000000 [-]
	 SCS Same-Spin Energy      =      -0.1258881276029594 [Eh]
	 SCS Opposite-Spin Energy  =      -1.3965403799132172 [Eh]
	 SCS Correlation Energy    =      -1.5224285075161768 [Eh]
	 SCS Total Energy          =    -380.8857023895128009 [Eh]
	-----------------------------------------------------------

  Dipole Moment: [D]
     X:    -0.0252      Y:     0.0228      Z:     0.0001     Total:     0.0340

*** Psi4 exiting successfully. Buy a developer a beer!
