                               Psi4 1.3.2 release

  ==> Input File <==

--------------------------------------------------------------------------
#psi4
#
memory 32 gb

molecule  {
0 1
  O       -2.6785490     0.0000000    -0.0000150
  O        2.6785490     0.0000000    -0.0000520
  C       -1.4409660     0.0000000     0.0000110
  C        1.4409670     0.0000000    -0.0000170
  C        0.6745940    -1.2666350     0.0000030
  C       -0.7781281    -1.0955194     0.0000395
  C        0.6745950     1.2666360    -0.0000060
  C       -0.6745940     1.2666350     0.0000350
  H        1.2594220    -2.1829270     0.0000060
  H        1.2594200     2.1829290    -0.0000100
  H       -1.2594210    -2.1829290     0.0000640
  H       -1.2594220     2.1829270     0.0000490
units angstrom
no_reorient  #important for SAPT in psi4, default
symmetry c1  #important for SAPT in psi4, default
}

set PROPERTIES_ORIGIN ["COM"]
properties('MP2/aug-cc-pvtz', properties = ['dipole'])
--------------------------------------------------------------------------

    Molecular point group: c1
  Charge       = 0
  Multiplicity = 1
  Basis Set: AUG-CC-PVTZ
    Blend: AUG-CC-PVTZ
  Basis Set: (AUG-CC-PVTZ AUX)
    Blend: AUG-CC-PVTZ-JKFIT

    Orbital Energies [Eh]
    ---------------------

    Doubly Occupied:

       1A    -20.586531     2A    -20.576787     3A    -11.366698
       4A    -11.345274     5A    -11.319688     6A    -11.292477
       7A    -11.286129     8A    -11.284156     9A     -1.408468
      10A     -1.405154    11A     -1.170514    12A     -1.068285
      13A     -1.001904    14A     -0.890203    15A     -0.822965
      16A     -0.725012    17A     -0.713386    18A     -0.686386
      19A     -0.643991    20A     -0.631945    21A     -0.602473
      22A     -0.600781    23A     -0.557744    24A     -0.554229
      25A     -0.468303    26A     -0.453760    27A     -0.412147
      28A     -0.390050

  @DF-RHF Final Energy:  -379.29691756269818

   => Energetics <=

    Nuclear Repulsion Energy =            323.6476863984841543
    One-Electron Energy =               -1157.3583239992237850
    Two-Electron Energy =                 454.4137200380413901
    Total Energy =                       -379.2969175626981837
  Basis Set: (AUG-CC-PVTZ AUX)
    Blend: AUG-CC-PVTZ-RI
    Molecular point group: c1

    Geometry (in Angstrom), charge = 0, multiplicity = 1:

       Center              X                  Y                   Z               Mass
    ------------   -----------------  -----------------  -----------------  -----------------
         O           -2.667047674147    -0.019009236545    -0.000013372482    15.994914619570
         O            2.690050325853    -0.019009236545    -0.000050372482    15.994914619570
         C           -1.429464674147    -0.019009236545     0.000012627518    12.000000000000
         C            1.452468325853    -0.019009236545    -0.000015372482    12.000000000000
         C            0.686095325853    -1.285644236545     0.000004627518    12.000000000000
         C           -0.766626774147    -1.114528636545     0.000041127518    12.000000000000
         C            0.686096325853     1.247626763455    -0.000004372482    12.000000000000
         C           -0.663092674147     1.247625763455     0.000036627518    12.000000000000
         H            1.270923325853    -2.201936236545     0.000007627518     1.007825032230
         H            1.270921325853     2.163919763455    -0.000008372482     1.007825032230
         H           -1.247919674147    -2.201938236545     0.000065627518     1.007825032230
         H           -1.247920674147     2.163917763455     0.000050627518     1.007825032230

  Basis Set: AUG-CC-PVTZ
    Blend: AUG-CC-PVTZ
  Basis Set: (AUG-CC-PVTZ AUX)
    Blend: AUG-CC-PVTZ-JKFIT
	 Reference Energy          =    -379.2969175626981837 [Eh]
	 Singles Energy            =      -0.0000000000000000 [Eh]
	 Same-Spin Energy          =      -0.3836575693424733 [Eh]
	 Opposite-Spin Energy      =      -1.1744631985592775 [Eh]
	 Correlation Energy        =      -1.5581207679017508 [Eh]
	 Total Energy              =    -380.8550383305999389 [Eh]

	 ================> DF-SCS-MP2 Energies <==================
	-----------------------------------------------------------
	 SCS Same-Spin Scale       =       0.3333333333333333 [-]
	 SCS Opposite-Spin Scale   =       1.2000000000000000 [-]
	 SCS Same-Spin Energy      =      -0.1278858564474911 [Eh]
	 SCS Opposite-Spin Energy  =      -1.4093558382711329 [Eh]
	 SCS Correlation Energy    =      -1.5372416947186240 [Eh]
	 SCS Total Energy          =    -380.8341592574167862 [Eh]
	-----------------------------------------------------------

  Dipole Moment: [D]
     X:     0.2364      Y:    -0.2524      Z:     0.0001     Total:     0.3458

*** Psi4 exiting successfully. Buy a developer a beer!
