                               Psi4 1.3.2 release

  ==> Input File <==

--------------------------------------------------------------------------
#psi4
#
memory 32 gb

molecule  {
0 1
  O       -2.6785490     0.0000000    -0.0000150
  O        2.6785490     0.0000000    -0.0000520
  C       -1.4409660     0.0000000     0.0000110
  C        1.4409670     0.0000000    -0.0000170
  C        0.6743885    -1.2430884     0.0000029
  C       -0.6745950    -1.2666360     0.0000440
  C        0.6745950     1.2666360    -0.0000060
  C       -0.6745940     1.2666350     0.0000350
  H        1.2594220    -2.1829270     0.0000060
  H        1.2594200     2.1829290    -0.0000100
  H       -1.2594210    -2.1829290     0.0000640
  H       -1.2594220     2.1829270     0.0000490
units angstrom
no_reorient  #important for SAPT in psi4, default
symmetry c1  #important for SAPT in psi4, default
}

set PROPERTIES_ORIGIN ["COM"]
properties('MP2/aug-cc-pvtz', properties = ['dipole'])
--------------------------------------------------------------------------

    Molecular point group: c1
  Charge       = 0
  Multiplicity = 1
  Basis Set: AUG-CC-PVTZ
    Blend: AUG-CC-PVTZ
  Basis Set: (AUG-CC-PVTZ AUX)
    Blend: AUG-CC-PVTZ-JKFIT

    Orbital Energies [Eh]
    ---------------------

    Doubly Occupied:

       1A    -20.582600     2A    -20.582422     3A    -11.366590
       4A    -11.365883     5A    -11.290178     6A    -11.288974
       7A    -11.288160     8A    -11.287364     9A     -1.405611
      10A     -1.402828    11A     -1.163806    12A     -1.076896
      13A     -0.973774    14A     -0.877393    15A     -0.833207
      16A     -0.717233    17A     -0.714476    18A     -0.688020
      19A     -0.641679    20A     -0.631209    21A     -0.602754
      22A     -0.594547    23A     -0.583333    24A     -0.550127
      25A     -0.468224    26A     -0.449344    27A     -0.415125
      28A     -0.411708

  @DF-RHF Final Energy:  -379.36184348559777

   => Energetics <=

    Nuclear Repulsion Energy =            321.8555390440620840
    One-Electron Energy =               -1153.9278301910437676
    Two-Electron Energy =                 452.7104476613839097
    Total Energy =                       -379.3618434855977739
  Basis Set: (AUG-CC-PVTZ AUX)
    Blend: AUG-CC-PVTZ-RI
    Molecular point group: c1

    Geometry (in Angstrom), charge = 0, multiplicity = 1:

       Center              X                  Y                   Z               Mass
    ------------   -----------------  -----------------  -----------------  -----------------
         O           -2.678526272892    -0.002615777132    -0.000013861275    15.994914619570
         O            2.678571727108    -0.002615777132    -0.000050861275    15.994914619570
         C           -1.440943272892    -0.002615777132     0.000012138725    12.000000000000
         C            1.440989727108    -0.002615777132    -0.000015861275    12.000000000000
         C            0.674411227108    -1.245704177132     0.000004038725    12.000000000000
         C           -0.674572272892    -1.269251777132     0.000045138725    12.000000000000
         C            0.674617727108     1.264020222868    -0.000004861275    12.000000000000
         C           -0.674571272892     1.264019222868     0.000036138725    12.000000000000
         H            1.259444727108    -2.185542777132     0.000007138725     1.007825032230
         H            1.259442727108     2.180313222868    -0.000008861275     1.007825032230
         H           -1.259398272892    -2.185544777132     0.000065138725     1.007825032230
         H           -1.259399272892     2.180311222868     0.000050138725     1.007825032230

  Basis Set: AUG-CC-PVTZ
    Blend: AUG-CC-PVTZ
  Basis Set: (AUG-CC-PVTZ AUX)
    Blend: AUG-CC-PVTZ-JKFIT
	 Reference Energy          =    -379.3618434855977739 [Eh]
	 Singles Energy            =      -0.0000000000000000 [Eh]
	 Same-Spin Energy          =      -0.3782215655135703 [Eh]
	 Opposite-Spin Energy      =      -1.1645589161363530 [Eh]
	 Correlation Energy        =      -1.5427804816499233 [Eh]
	 Total Energy              =    -380.9046239672476872 [Eh]

	 ================> DF-SCS-MP2 Energies <==================
	-----------------------------------------------------------
	 SCS Same-Spin Scale       =       0.3333333333333333 [-]
	 SCS Opposite-Spin Scale   =       1.2000000000000000 [-]
	 SCS Same-Spin Energy      =      -0.1260738551711901 [Eh]
	 SCS Opposite-Spin Energy  =      -1.3974706993636234 [Eh]
	 SCS Correlation Energy    =      -1.5235445545348136 [Eh]
	 SCS Total Energy          =    -380.8853880401325682 [Eh]
	-----------------------------------------------------------

  Dipole Moment: [D]
     X:    -0.0296      Y:    -0.0171      Z:     0.0001     Total:     0.0342

*** Psi4 exiting successfully. Buy a developer a beer!
