                               Psi4 1.3.2 release

  ==> Input File <==

--------------------------------------------------------------------------
#psi4
#
memory 32 gb

molecule  {
0 1
  O       -2.6785490     0.0000000    -0.0000150
  O        2.6785490     0.0000000    -0.0000520
  C       -1.5274552    -0.0565448     0.0000121
  C        1.4409670     0.0000000    -0.0000170
  C        0.6745940    -1.2666350     0.0000030
  C       -0.6745950    -1.2666360     0.0000440
  C        0.6745950     1.2666360    -0.0000060
  C       -0.6745940     1.2666350     0.0000350
  H        1.2594220    -2.1829270     0.0000060
  H        1.2594200     2.1829290    -0.0000100
  H       -1.2594210    -2.1829290     0.0000640
  H       -1.2594220     2.1829270     0.0000490
units angstrom
no_reorient  #important for SAPT in psi4, default
symmetry c1  #important for SAPT in psi4, default
}

set PROPERTIES_ORIGIN ["COM"]
properties('MP2/aug-cc-pvtz', properties = ['dipole'])
--------------------------------------------------------------------------

    Molecular point group: c1
  Charge       = 0
  Multiplicity = 1
  Basis Set: AUG-CC-PVTZ
    Blend: AUG-CC-PVTZ
  Basis Set: (AUG-CC-PVTZ AUX)
    Blend: AUG-CC-PVTZ-JKFIT

    Orbital Energies [Eh]
    ---------------------

    Doubly Occupied:

       1A    -20.588868     2A    -20.576847     3A    -11.365623
       4A    -11.362350     5A    -11.290192     6A    -11.285689
       7A    -11.284776     8A    -11.277439     9A     -1.465956
      10A     -1.398988    11A     -1.151625    12A     -1.068838
      13A     -0.962799    14A     -0.869823    15A     -0.825132
      16A     -0.720696    17A     -0.717480    18A     -0.693440
      19A     -0.637300    20A     -0.633494    21A     -0.609687
      22A     -0.607212    23A     -0.591668    24A     -0.562057
      25A     -0.463527    26A     -0.432835    27A     -0.419477
      28A     -0.405958

  @DF-RHF Final Energy:  -379.35822657702306

   => Energetics <=

    Nuclear Repulsion Energy =            321.4270722079569964
    One-Electron Energy =               -1153.0310441573356002
    Two-Electron Energy =                 452.2457453723554863
    Total Energy =                       -379.3582265770230606
  Basis Set: (AUG-CC-PVTZ AUX)
    Blend: AUG-CC-PVTZ-RI
    Molecular point group: c1

    Geometry (in Angstrom), charge = 0, multiplicity = 1:

       Center              X                  Y                   Z               Mass
    ------------   -----------------  -----------------  -----------------  -----------------
         O           -2.668941070386     0.006281526623    -0.000013994582    15.994914619570
         O            2.688156929614     0.006281526623    -0.000050994582    15.994914619570
         C           -1.517847270386    -0.050263273377     0.000013105418    12.000000000000
         C            1.450574929614     0.006281526623    -0.000015994582    12.000000000000
         C            0.684201929614    -1.260353473377     0.000004005418    12.000000000000
         C           -0.664987070386    -1.260354473377     0.000045005418    12.000000000000
         C            0.684202929614     1.272917526623    -0.000004994582    12.000000000000
         C           -0.664986070386     1.272916526623     0.000036005418    12.000000000000
         H            1.269029929614    -2.176645473377     0.000007005418     1.007825032230
         H            1.269027929614     2.189210526623    -0.000008994582     1.007825032230
         H           -1.249813070386    -2.176647473377     0.000065005418     1.007825032230
         H           -1.249814070386     2.189208526623     0.000050005418     1.007825032230

  Basis Set: AUG-CC-PVTZ
    Blend: AUG-CC-PVTZ
  Basis Set: (AUG-CC-PVTZ AUX)
    Blend: AUG-CC-PVTZ-JKFIT
	 Reference Energy          =    -379.3582265770230606 [Eh]
	 Singles Energy            =      -0.0000000000000000 [Eh]
	 Same-Spin Energy          =      -0.3751250169622407 [Eh]
	 Opposite-Spin Energy      =      -1.1586391664136884 [Eh]
	 Correlation Energy        =      -1.5337641833759290 [Eh]
	 Total Energy              =    -380.8919907603989827 [Eh]

	 ================> DF-SCS-MP2 Energies <==================
	-----------------------------------------------------------
	 SCS Same-Spin Scale       =       0.3333333333333333 [-]
	 SCS Opposite-Spin Scale   =       1.2000000000000000 [-]
	 SCS Same-Spin Energy      =      -0.1250416723207469 [Eh]
	 SCS Opposite-Spin Energy  =      -1.3903669996964261 [Eh]
	 SCS Correlation Energy    =      -1.5154086720171729 [Eh]
	 SCS Total Energy          =    -380.8736352490402055 [Eh]
	-----------------------------------------------------------

  Dipole Moment: [D]
     X:    -0.4712      Y:    -0.2393      Z:     0.0001     Total:     0.5285

*** Psi4 exiting successfully. Buy a developer a beer!
