                               Psi4 1.3.2 release

  ==> Input File <==

--------------------------------------------------------------------------
#psi4
#
memory 32 gb

molecule  {
0 1
  O       -2.6785490     0.0000000    -0.0000150
  O        2.6785490     0.0000000    -0.0000520
  C       -1.4409660     0.0000000     0.0000110
  C        1.4409670     0.0000000    -0.0000170
  C        0.6745940    -1.2666350     0.0000030
  C       -0.6745950    -1.2666360     0.0000440
  C        0.6745950     1.2666360    -0.0000060
  C       -0.6745940     1.2666350     0.0000350
  H        1.2594220    -2.1829270     0.0000060
  H        1.2594200     2.1829290    -0.0000100
  H       -1.1518194    -2.0143411     0.0000603
  H       -1.2594220     2.1829270     0.0000490
units angstrom
no_reorient  #important for SAPT in psi4, default
symmetry c1  #important for SAPT in psi4, default
}

set PROPERTIES_ORIGIN ["COM"]
properties('MP2/aug-cc-pvtz', properties = ['dipole'])
--------------------------------------------------------------------------

    Molecular point group: c1
  Charge       = 0
  Multiplicity = 1
  Basis Set: AUG-CC-PVTZ
    Blend: AUG-CC-PVTZ
  Basis Set: (AUG-CC-PVTZ AUX)
    Blend: AUG-CC-PVTZ-JKFIT

    Orbital Energies [Eh]
    ---------------------

    Doubly Occupied:

       1A    -20.582364     2A    -20.582233     3A    -11.366627
       4A    -11.366077     5A    -11.289082     6A    -11.288898
       7A    -11.287258     8A    -11.266872     9A     -1.405380
      10A     -1.402664    11A     -1.164317    12A     -1.084262
      13A     -0.975607    14A     -0.891064    15A     -0.838963
      16A     -0.729729    17A     -0.715799    18A     -0.698964
      19A     -0.656010    20A     -0.633862    21A     -0.605244
      22A     -0.593378    23A     -0.590013    24A     -0.549762
      25A     -0.467887    26A     -0.449377    27A     -0.415160
      28A     -0.411950

  @DF-RHF Final Energy:  -379.32816275615420

   => Energetics <=

    Nuclear Repulsion Energy =            322.6436624280260617
    One-Electron Energy =               -1155.3260413073153359
    Two-Electron Energy =                 453.3542161231350178
    Total Energy =                       -379.3281627561541995
  Basis Set: (AUG-CC-PVTZ AUX)
    Blend: AUG-CC-PVTZ-RI
    Molecular point group: c1

    Geometry (in Angstrom), charge = 0, multiplicity = 1:

       Center              X                  Y                   Z               Mass
    ------------   -----------------  -----------------  -----------------  -----------------
         O           -2.679553012630    -0.001572906215    -0.000013837863    15.994914619570
         O            2.677544987370    -0.001572906215    -0.000050837863    15.994914619570
         C           -1.441970012630    -0.001572906215     0.000012162137    12.000000000000
         C            1.439962987370    -0.001572906215    -0.000015837863    12.000000000000
         C            0.673589987370    -1.268207906215     0.000004162137    12.000000000000
         C           -0.675599012630    -1.268208906215     0.000045162137    12.000000000000
         C            0.673590987370     1.265063093785    -0.000004837863    12.000000000000
         C           -0.675598012630     1.265062093785     0.000036162137    12.000000000000
         H            1.258417987370    -2.184499906215     0.000007162137     1.007825032230
         H            1.258415987370     2.181356093785    -0.000008837863     1.007825032230
         H           -1.152823412630    -2.015914006215     0.000061462137     1.007825032230
         H           -1.260426012630     2.181354093785     0.000050162137     1.007825032230

  Basis Set: AUG-CC-PVTZ
    Blend: AUG-CC-PVTZ
  Basis Set: (AUG-CC-PVTZ AUX)
    Blend: AUG-CC-PVTZ-JKFIT
	 Reference Energy          =    -379.3281627561541995 [Eh]
	 Singles Energy            =      -0.0000000000000000 [Eh]
	 Same-Spin Energy          =      -0.3776399906746578 [Eh]
	 Opposite-Spin Energy      =      -1.1638971798468585 [Eh]
	 Correlation Energy        =      -1.5415371705215164 [Eh]
	 Total Energy              =    -380.8696999266757075 [Eh]

	 ================> DF-SCS-MP2 Energies <==================
	-----------------------------------------------------------
	 SCS Same-Spin Scale       =       0.3333333333333333 [-]
	 SCS Opposite-Spin Scale   =       1.2000000000000000 [-]
	 SCS Same-Spin Energy      =      -0.1258799968915526 [Eh]
	 SCS Opposite-Spin Energy  =      -1.3966766158162300 [Eh]
	 SCS Correlation Energy    =      -1.5225566127077825 [Eh]
	 SCS Total Energy          =    -380.8507193688619736 [Eh]
	-----------------------------------------------------------

  Dipole Moment: [D]
     X:     0.0297      Y:     0.0053      Z:     0.0001     Total:     0.0302

*** Psi4 exiting successfully. Buy a developer a beer!
