                               Psi4 1.3.2 release

  ==> Input File <==

--------------------------------------------------------------------------
#psi4
#
memory 32 gb

molecule  {
0 1
  O       -2.6785490     0.0000000    -0.0000150
  O        2.6785490     0.0000000    -0.0000520
  C       -1.4409660     0.0000000     0.0000110
  C        1.4409670     0.0000000    -0.0000170
  C        0.6745940    -1.2666350     0.0000030
  C       -0.6526059    -1.2530681     0.0000448
  C        0.6745950     1.2666360    -0.0000060
  C       -0.6745940     1.2666350     0.0000350
  H        1.2594220    -2.1829270     0.0000060
  H        1.2594200     2.1829290    -0.0000100
  H       -1.2594210    -2.1829290     0.0000640
  H       -1.2594220     2.1829270     0.0000490
units angstrom
no_reorient  #important for SAPT in psi4, default
symmetry c1  #important for SAPT in psi4, default
}

set PROPERTIES_ORIGIN ["COM"]
properties('MP2/aug-cc-pvtz', properties = ['dipole'])
--------------------------------------------------------------------------

    Molecular point group: c1
  Charge       = 0
  Multiplicity = 1
  Basis Set: AUG-CC-PVTZ
    Blend: AUG-CC-PVTZ
  Basis Set: (AUG-CC-PVTZ AUX)
    Blend: AUG-CC-PVTZ-JKFIT

    Orbital Energies [Eh]
    ---------------------

    Doubly Occupied:

       1A    -20.583384     2A    -20.582130     3A    -11.367558
       4A    -11.366555     5A    -11.289148     6A    -11.287532
       7A    -11.287479     8A    -11.285125     9A     -1.405416
      10A     -1.402644    11A     -1.164993    12A     -1.079468
      13A     -0.971245    14A     -0.875082    15A     -0.834247
      16A     -0.717573    17A     -0.714692    18A     -0.687523
      19A     -0.642750    20A     -0.629230    21A     -0.604658
      22A     -0.594397    23A     -0.582024    24A     -0.549856
      25A     -0.468450    26A     -0.447289    27A     -0.418712
      28A     -0.413144

  @DF-RHF Final Energy:  -379.36276153980185

   => Energetics <=

    Nuclear Repulsion Energy =            321.8602871245597612
    One-Electron Energy =               -1153.9414938491418070
    Two-Electron Energy =                 452.7184451847801370
    Total Energy =                       -379.3627615398018520
  Basis Set: (AUG-CC-PVTZ AUX)
    Blend: AUG-CC-PVTZ-RI
    Molecular point group: c1

    Geometry (in Angstrom), charge = 0, multiplicity = 1:

       Center              X                  Y                   Z               Mass
    ------------   -----------------  -----------------  -----------------  -----------------
         O           -2.680991857187    -0.001507249563    -0.000013961256    15.994914619570
         O            2.676106142813    -0.001507249563    -0.000050961256    15.994914619570
         C           -1.443408857187    -0.001507249563     0.000012038744    12.000000000000
         C            1.438524142813    -0.001507249563    -0.000015961256    12.000000000000
         C            0.672151142813    -1.268142249563     0.000004038744    12.000000000000
         C           -0.655048757187    -1.254575349563     0.000045838744    12.000000000000
         C            0.672152142813     1.265128750437    -0.000004961256    12.000000000000
         C           -0.677036857187     1.265127750437     0.000036038744    12.000000000000
         H            1.256979142813    -2.184434249563     0.000007038744     1.007825032230
         H            1.256977142813     2.181421750437    -0.000008961256     1.007825032230
         H           -1.261863857187    -2.184436249563     0.000065038744     1.007825032230
         H           -1.261864857187     2.181419750437     0.000050038744     1.007825032230

  Basis Set: AUG-CC-PVTZ
    Blend: AUG-CC-PVTZ
  Basis Set: (AUG-CC-PVTZ AUX)
    Blend: AUG-CC-PVTZ-JKFIT
	 Reference Energy          =    -379.3627615398018520 [Eh]
	 Singles Energy            =      -0.0000000000000000 [Eh]
	 Same-Spin Energy          =      -0.3778236549672659 [Eh]
	 Opposite-Spin Energy      =      -1.1638064843070923 [Eh]
	 Correlation Energy        =      -1.5416301392743583 [Eh]
	 Total Energy              =    -380.9043916790761841 [Eh]

	 ================> DF-SCS-MP2 Energies <==================
	-----------------------------------------------------------
	 SCS Same-Spin Scale       =       0.3333333333333333 [-]
	 SCS Opposite-Spin Scale   =       1.2000000000000000 [-]
	 SCS Same-Spin Energy      =      -0.1259412183224220 [Eh]
	 SCS Opposite-Spin Energy  =      -1.3965677811685107 [Eh]
	 SCS Correlation Energy    =      -1.5225089994909327 [Eh]
	 SCS Total Energy          =    -380.8852705392927760 [Eh]
	-----------------------------------------------------------

  Dipole Moment: [D]
     X:     0.0064      Y:     0.0141      Z:     0.0001     Total:     0.0155

*** Psi4 exiting successfully. Buy a developer a beer!
