                               Psi4 1.3.2 release

  ==> Input File <==

--------------------------------------------------------------------------
#psi4
#
memory 32 gb

molecule  {
0 1
  O       -2.6785490     0.0000000    -0.0000150
  O        2.6785490     0.0000000    -0.0000520
  C       -1.4409660     0.0000000     0.0000110
  C        1.4409670     0.0000000    -0.0000170
  C        0.6745940    -1.2666350     0.0000030
  C       -0.5710619    -1.4377526     0.0000485
  C        0.6745950     1.2666360    -0.0000060
  C       -0.6745940     1.2666350     0.0000350
  H        1.2594220    -2.1829270     0.0000060
  H        1.2594200     2.1829290    -0.0000100
  H       -1.2594210    -2.1829290     0.0000640
  H       -1.2594220     2.1829270     0.0000490
units angstrom
no_reorient  #important for SAPT in psi4, default
symmetry c1  #important for SAPT in psi4, default
}

set PROPERTIES_ORIGIN ["COM"]
properties('MP2/aug-cc-pvtz', properties = ['dipole'])
--------------------------------------------------------------------------

    Molecular point group: c1
  Charge       = 0
  Multiplicity = 1
  Basis Set: AUG-CC-PVTZ
    Blend: AUG-CC-PVTZ
  Basis Set: (AUG-CC-PVTZ AUX)
    Blend: AUG-CC-PVTZ-JKFIT

    Orbital Energies [Eh]
    ---------------------

    Doubly Occupied:

       1A    -20.582746     2A    -20.582417     3A    -11.372663
       4A    -11.370706     5A    -11.291448     6A    -11.289822
       7A    -11.284368     8A    -11.269321     9A     -1.404633
      10A     -1.399273    11A     -1.161152    12A     -1.091411
      13A     -0.956331    14A     -0.871777    15A     -0.829439
      16A     -0.729379    17A     -0.713329    18A     -0.690171
      19A     -0.651811    20A     -0.628572    21A     -0.607951
      22A     -0.589762    23A     -0.572181    24A     -0.546941
      25A     -0.469113    26A     -0.436378    27A     -0.422544
      28A     -0.414390

  @DF-RHF Final Energy:  -379.33016020906848

   => Energetics <=

    Nuclear Repulsion Energy =            319.8250333511618351
    One-Electron Energy =               -1149.8503333462413138
    Two-Electron Energy =                 450.6951397860109410
    Total Energy =                       -379.3301602090684810
  Basis Set: (AUG-CC-PVTZ AUX)
    Blend: AUG-CC-PVTZ-RI
    Molecular point group: c1

    Geometry (in Angstrom), charge = 0, multiplicity = 1:

       Center              X                  Y                   Z               Mass
    ------------   -----------------  -----------------  -----------------  -----------------
         O           -2.690050529372     0.019009236545    -0.000014372286    15.994914619570
         O            2.667047470628     0.019009236545    -0.000051372286    15.994914619570
         C           -1.452467529372     0.019009236545     0.000011627714    12.000000000000
         C            1.429465470628     0.019009236545    -0.000016372286    12.000000000000
         C            0.663092470628    -1.247625763455     0.000003627714    12.000000000000
         C           -0.582563429372    -1.418743363455     0.000049127714    12.000000000000
         C            0.663093470628     1.285645236545    -0.000005372286    12.000000000000
         C           -0.686095529372     1.285644236545     0.000035627714    12.000000000000
         H            1.247920470628    -2.163917763455     0.000006627714     1.007825032230
         H            1.247918470628     2.201938236545    -0.000009372286     1.007825032230
         H           -1.270922529372    -2.163919763455     0.000064627714     1.007825032230
         H           -1.270923529372     2.201936236545     0.000049627714     1.007825032230

  Basis Set: AUG-CC-PVTZ
    Blend: AUG-CC-PVTZ
  Basis Set: (AUG-CC-PVTZ AUX)
    Blend: AUG-CC-PVTZ-JKFIT
	 Reference Energy          =    -379.3301602090684810 [Eh]
	 Singles Energy            =      -0.0000000000000000 [Eh]
	 Same-Spin Energy          =      -0.3769290326456700 [Eh]
	 Opposite-Spin Energy      =      -1.1632879247198260 [Eh]
	 Correlation Energy        =      -1.5402169573654960 [Eh]
	 Total Energy              =    -380.8703771664339683 [Eh]

	 ================> DF-SCS-MP2 Energies <==================
	-----------------------------------------------------------
	 SCS Same-Spin Scale       =       0.3333333333333333 [-]
	 SCS Opposite-Spin Scale   =       1.2000000000000000 [-]
	 SCS Same-Spin Energy      =      -0.1256430108818900 [Eh]
	 SCS Opposite-Spin Energy  =      -1.3959455096637912 [Eh]
	 SCS Correlation Energy    =      -1.5215885205456812 [Eh]
	 SCS Total Energy          =    -380.8517487296141439 [Eh]
	-----------------------------------------------------------

  Dipole Moment: [D]
     X:    -0.1950      Y:     0.1819      Z:     0.0001     Total:     0.2666

*** Psi4 exiting successfully. Buy a developer a beer!
