                               Psi4 1.3.2 release

  ==> Input File <==

--------------------------------------------------------------------------
#psi4
#
memory 32 gb

molecule  {
0 1
  O       -2.6717694    -0.1293626    -0.0000131
  O        2.6785490     0.0000000    -0.0000520
  C       -1.4409660     0.0000000     0.0000110
  C        1.4409670     0.0000000    -0.0000170
  C        0.6745940    -1.2666350     0.0000030
  C       -0.6745950    -1.2666360     0.0000440
  C        0.6745950     1.2666360    -0.0000060
  C       -0.6745940     1.2666350     0.0000350
  H        1.2594220    -2.1829270     0.0000060
  H        1.2594200     2.1829290    -0.0000100
  H       -1.2594210    -2.1829290     0.0000640
  H       -1.2594220     2.1829270     0.0000490
units angstrom
no_reorient  #important for SAPT in psi4, default
symmetry c1  #important for SAPT in psi4, default
}

set PROPERTIES_ORIGIN ["COM"]
properties('MP2/aug-cc-pvtz', properties = ['dipole'])
--------------------------------------------------------------------------

    Molecular point group: c1
  Charge       = 0
  Multiplicity = 1
  Basis Set: AUG-CC-PVTZ
    Blend: AUG-CC-PVTZ
  Basis Set: (AUG-CC-PVTZ AUX)
    Blend: AUG-CC-PVTZ-JKFIT

    Orbital Energies [Eh]
    ---------------------

    Doubly Occupied:

       1A    -20.582313     2A    -20.582108     3A    -11.367169
       4A    -11.366835     5A    -11.294038     6A    -11.292318
       7A    -11.284660     8A    -11.282747     9A     -1.405600
      10A     -1.402763    11A     -1.161896    12A     -1.076758
      13A     -0.971268    14A     -0.876751    15A     -0.833054
      16A     -0.716025    17A     -0.714391    18A     -0.689625
      19A     -0.642946    20A     -0.630771    21A     -0.603290
      22A     -0.593595    23A     -0.584411    24A     -0.549863
      25A     -0.466807    26A     -0.448339    27A     -0.417417
      28A     -0.409172

  @DF-RHF Final Energy:  -379.36013992470316

   => Energetics <=

    Nuclear Repulsion Energy =            321.5899824197047678
    One-Electron Energy =               -1153.4063877375212996
    Two-Electron Energy =                 452.4562653931134264
    Total Energy =                       -379.3601399247031623
  Basis Set: (AUG-CC-PVTZ AUX)
    Blend: AUG-CC-PVTZ-RI
    Molecular point group: c1

    Geometry (in Angstrom), charge = 0, multiplicity = 1:

       Center              X                  Y                   Z               Mass
    ------------   -----------------  -----------------  -----------------  -----------------
         O           -2.672773371315    -0.110207609175    -0.000012253721    15.994914619570
         O            2.677545028685     0.019154990825    -0.000051153721    15.994914619570
         C           -1.441969971315     0.019154990825     0.000011846279    12.000000000000
         C            1.439963028685     0.019154990825    -0.000016153721    12.000000000000
         C            0.673590028685    -1.247480009175     0.000003846279    12.000000000000
         C           -0.675598971315    -1.247481009175     0.000044846279    12.000000000000
         C            0.673591028685     1.285790990825    -0.000005153721    12.000000000000
         C           -0.675597971315     1.285789990825     0.000035846279    12.000000000000
         H            1.258418028685    -2.163772009175     0.000006846279     1.007825032230
         H            1.258416028685     2.202083990825    -0.000009153721     1.007825032230
         H           -1.260424971315    -2.163774009175     0.000064846279     1.007825032230
         H           -1.260425971315     2.202081990825     0.000049846279     1.007825032230

  Basis Set: AUG-CC-PVTZ
    Blend: AUG-CC-PVTZ
  Basis Set: (AUG-CC-PVTZ AUX)
    Blend: AUG-CC-PVTZ-JKFIT
	 Reference Energy          =    -379.3601399247031623 [Eh]
	 Singles Energy            =      -0.0000000000000000 [Eh]
	 Same-Spin Energy          =      -0.3780471861516260 [Eh]
	 Opposite-Spin Energy      =      -1.1644139050275495 [Eh]
	 Correlation Energy        =      -1.5424610911791754 [Eh]
	 Total Energy              =    -380.9026010158823397 [Eh]

	 ================> DF-SCS-MP2 Energies <==================
	-----------------------------------------------------------
	 SCS Same-Spin Scale       =       0.3333333333333333 [-]
	 SCS Opposite-Spin Scale   =       1.2000000000000000 [-]
	 SCS Same-Spin Energy      =      -0.1260157287172086 [Eh]
	 SCS Opposite-Spin Energy  =      -1.3972966860330593 [Eh]
	 SCS Correlation Energy    =      -1.5233124147502679 [Eh]
	 SCS Total Energy          =    -380.8834523394534131 [Eh]
	-----------------------------------------------------------

  Dipole Moment: [D]
     X:    -0.0230      Y:     0.2884      Z:     0.0001     Total:     0.2893

*** Psi4 exiting successfully. Buy a developer a beer!
