                               Psi4 1.4a3.dev225

  ==> Input File <==

--------------------------------------------------------------------------
#psi4
#
memory 32 gb

molecule  {
0 1
  O       -2.6785490     0.0000000    -0.0000150
  O        2.6785490     0.0000000    -0.0000520
  C       -1.4409660     0.0000000     0.0000110
  C        1.4409670     0.0000000    -0.0000170
  C        0.6745940    -1.2666350     0.0000030
  C       -0.6245950    -1.2666360     0.0000425
  C        0.6745950     1.2666360    -0.0000060
  C       -0.6745940     1.2666350     0.0000350
  H        1.2594220    -2.1829270     0.0000060
  H        1.2594200     2.1829290    -0.0000100
  H       -1.2594210    -2.1829290     0.0000640
  H       -1.2594220     2.1829270     0.0000490
units angstrom
no_reorient  #important for SAPT in psi4, default
symmetry c1  #important for SAPT in psi4, default
}

set PROPERTIES_ORIGIN ["COM"]
properties('MP2/aug-cc-pvtz', properties = ['dipole'])
--------------------------------------------------------------------------

    Molecular point group: c1
  Charge       = 0
  Multiplicity = 1
  Basis Set: AUG-CC-PVTZ
    Blend: AUG-CC-PVTZ
  Basis Set: (AUG-CC-PVTZ AUX)
    Blend: AUG-CC-PVTZ-JKFIT

    Orbital Energies [Eh]
    ---------------------

    Doubly Occupied:

       1A    -20.584297     2A    -20.581820     3A    -11.369504
       4A    -11.366576     5A    -11.289393     6A    -11.287613
       7A    -11.285394     8A    -11.279761     9A     -1.405184
      10A     -1.402436    11A     -1.166774    12A     -1.082985
      13A     -0.968053    14A     -0.871935    15A     -0.835570
      16A     -0.718153    17A     -0.714917    18A     -0.686939
      19A     -0.644220    20A     -0.626727    21A     -0.606930
      22A     -0.594283    23A     -0.579957    24A     -0.549547
      25A     -0.468709    26A     -0.444230    27A     -0.424865
      28A     -0.413631

  @DF-RHF Final Energy:  -379.36137711164696

   => Energetics <=

    Nuclear Repulsion Energy =            321.8720878095974172
    One-Electron Energy =               -1153.9661216091224105
    Two-Electron Energy =                 452.7326566878780909
    Total Energy =                       -379.3613771116469593
  Basis Set: (AUG-CC-PVTZ AUX)
    Blend: AUG-CC-PVTZ-RI
    Molecular point group: c1

    Geometry (in Angstrom), charge = 0, multiplicity = 1:

       Center              X                  Y                   Z               Mass
    ------------   -----------------  -----------------  -----------------  -----------------
         O           -2.684103570626     0.000000000000    -0.000013705750    15.994914619570
         O            2.672994429374     0.000000000000    -0.000050705750    15.994914619570
         C           -1.446520570626     0.000000000000     0.000012294250    12.000000000000
         C            1.435412429374     0.000000000000    -0.000015705750    12.000000000000
         C            0.669039429374    -1.266635000000     0.000004294250    12.000000000000
         C           -0.630149570626    -1.266636000000     0.000043794250    12.000000000000
         C            0.669040429374     1.266636000000    -0.000004705750    12.000000000000
         C           -0.680148570626     1.266635000000     0.000036294250    12.000000000000
         H            1.253867429374    -2.182927000000     0.000007294250     1.007825032230
         H            1.253865429374     2.182929000000    -0.000008705750     1.007825032230
         H           -1.264975570626    -2.182929000000     0.000065294250     1.007825032230
         H           -1.264976570626     2.182927000000     0.000050294250     1.007825032230

  Basis Set: AUG-CC-PVTZ
    Blend: AUG-CC-PVTZ
  Basis Set: (AUG-CC-PVTZ AUX)
    Blend: AUG-CC-PVTZ-JKFIT
	 Reference Energy          =    -379.3613771116469593 [Eh]
	 Singles Energy            =      -0.0000000000000000 [Eh]
	 Same-Spin Energy          =      -0.3774064376484346 [Eh]
	 Opposite-Spin Energy      =      -1.1630181973607334 [Eh]
	 Correlation Energy        =      -1.5404246350091682 [Eh]
	 Total Energy              =    -380.9018017466561332 [Eh]

	 ================> DF-SCS-MP2 Energies <==================
	-----------------------------------------------------------
	 SCS Same-Spin Scale       =       0.3333333333333333 [-]
	 SCS Opposite-Spin Scale   =       1.2000000000000000 [-]
	 SCS Same-Spin Energy      =      -0.1258021458828115 [Eh]
	 SCS Opposite-Spin Energy  =      -1.3956218368328801 [Eh]
	 SCS Correlation Energy    =      -1.5214239827156917 [Eh]
	 SCS Total Energy          =    -380.8828010943626623 [Eh]
	-----------------------------------------------------------

  Dipole Moment: [D]
     X:    -0.0241      Y:     0.0542      Z:     0.0001     Total:     0.0593

*** Psi4 exiting successfully. Buy a developer a beer!
