                               Psi4 1.3.2 release

  ==> Input File <==

--------------------------------------------------------------------------
#psi4
#
memory 32 gb

molecule  {
0 1
  O       -2.6785490     0.0000000    -0.0000150
  O        2.6785490     0.0000000    -0.0000520
  C       -1.4409660     0.0000000     0.0000110
  C        1.4409670     0.0000000    -0.0000170
  C        0.6745940    -1.2666350     0.0000030
  C       -0.6745950    -1.2666360     0.0000440
  C        0.6745950     1.2666360    -0.0000060
  C       -0.6745940     1.2666350     0.0000350
  H        1.2594220    -2.1829270     0.0000060
  H        1.2594200     2.1829290    -0.0000100
  H       -1.3132218    -2.2672230     0.0000658
  H       -1.2594220     2.1829270     0.0000490
units angstrom
no_reorient  #important for SAPT in psi4, default
symmetry c1  #important for SAPT in psi4, default
}

set PROPERTIES_ORIGIN ["COM"]
properties('MP2/aug-cc-pvtz', properties = ['dipole'])
--------------------------------------------------------------------------

    Molecular point group: c1
  Charge       = 0
  Multiplicity = 1
  Basis Set: AUG-CC-PVTZ
    Blend: AUG-CC-PVTZ
  Basis Set: (AUG-CC-PVTZ AUX)
    Blend: AUG-CC-PVTZ-JKFIT

    Orbital Energies [Eh]
    ---------------------

    Doubly Occupied:

       1A    -20.582624     2A    -20.582513     3A    -11.367781
       4A    -11.367517     5A    -11.298636     6A    -11.289845
       7A    -11.288713     8A    -11.288228     9A     -1.405450
      10A     -1.402752    11A     -1.161700    12A     -1.075365
      13A     -0.970590    14A     -0.873429    15A     -0.830819
      16A     -0.716163    17A     -0.711981    18A     -0.685175
      19A     -0.638919    20A     -0.626042    21A     -0.601425
      22A     -0.593788    23A     -0.578416    24A     -0.549939
      25A     -0.467819    26A     -0.448352    27A     -0.415255
      28A     -0.412087

  @DF-RHF Final Energy:  -379.35539187065058

   => Energetics <=

    Nuclear Repulsion Energy =            321.0237035384463979
    One-Electron Energy =               -1152.2955448757654722
    Two-Electron Energy =                 451.9164494666684959
    Total Energy =                       -379.3553918706505783
  Basis Set: (AUG-CC-PVTZ AUX)
    Blend: AUG-CC-PVTZ-RI
    Molecular point group: c1

    Geometry (in Angstrom), charge = 0, multiplicity = 1:

       Center              X                  Y                   Z               Mass
    ------------   -----------------  -----------------  -----------------  -----------------
         O           -2.678047146324     0.000786453574    -0.000013889178    15.994914619570
         O            2.679050853676     0.000786453574    -0.000050889178    15.994914619570
         C           -1.440464146324     0.000786453574     0.000012110822    12.000000000000
         C            1.441468853676     0.000786453574    -0.000015889178    12.000000000000
         C            0.675095853676    -1.265848546426     0.000004110822    12.000000000000
         C           -0.674093146324    -1.265849546426     0.000045110822    12.000000000000
         C            0.675096853676     1.267422453574    -0.000004889178    12.000000000000
         C           -0.674092146324     1.267421453574     0.000036110822    12.000000000000
         H            1.259923853676    -2.182140546426     0.000007110822     1.007825032230
         H            1.259921853676     2.183715453574    -0.000008889178     1.007825032230
         H           -1.312719946324    -2.266436546426     0.000066910822     1.007825032230
         H           -1.258920146324     2.183713453574     0.000050110822     1.007825032230

  Basis Set: AUG-CC-PVTZ
    Blend: AUG-CC-PVTZ
  Basis Set: (AUG-CC-PVTZ AUX)
    Blend: AUG-CC-PVTZ-JKFIT
	 Reference Energy          =    -379.3553918706505783 [Eh]
	 Singles Energy            =      -0.0000000000000000 [Eh]
	 Same-Spin Energy          =      -0.3782728659071307 [Eh]
	 Opposite-Spin Energy      =      -1.1651617101467147 [Eh]
	 Correlation Energy        =      -1.5434345760538455 [Eh]
	 Total Energy              =    -380.8988264467044473 [Eh]

	 ================> DF-SCS-MP2 Energies <==================
	-----------------------------------------------------------
	 SCS Same-Spin Scale       =       0.3333333333333333 [-]
	 SCS Opposite-Spin Scale   =       1.2000000000000000 [-]
	 SCS Same-Spin Energy      =      -0.1260909553023769 [Eh]
	 SCS Opposite-Spin Energy  =      -1.3981940521760576 [Eh]
	 SCS Correlation Energy    =      -1.5242850074784347 [Eh]
	 SCS Total Energy          =    -380.8796768781290325 [Eh]
	-----------------------------------------------------------

  Dipole Moment: [D]
     X:    -0.0048      Y:     0.0133      Z:     0.0001     Total:     0.0142

*** Psi4 exiting successfully. Buy a developer a beer!
