                               Psi4 1.4a3.dev225

  ==> Input File <==

--------------------------------------------------------------------------
#psi4
#
memory 32 gb

molecule  {
0 1
  O       -2.6785490     0.0000000    -0.0000150
  O        2.6785490     0.0000000    -0.0000520
  C       -1.4409660     0.0000000     0.0000110
  C        1.4409670     0.0000000    -0.0000170
  C        0.6745940    -1.2666350     0.0000030
  C       -0.7004783    -1.2238569     0.0000429
  C        0.6745950     1.2666360    -0.0000060
  C       -0.6745940     1.2666350     0.0000350
  H        1.2594220    -2.1829270     0.0000060
  H        1.2594200     2.1829290    -0.0000100
  H       -1.2594210    -2.1829290     0.0000640
  H       -1.2594220     2.1829270     0.0000490
units angstrom
no_reorient  #important for SAPT in psi4, default
symmetry c1  #important for SAPT in psi4, default
}

set PROPERTIES_ORIGIN ["COM"]
properties('MP2/aug-cc-pvtz', properties = ['dipole'])
--------------------------------------------------------------------------

    Molecular point group: c1
  Charge       = 0
  Multiplicity = 1
  Basis Set: AUG-CC-PVTZ
    Blend: AUG-CC-PVTZ
  Basis Set: (AUG-CC-PVTZ AUX)
    Blend: AUG-CC-PVTZ-JKFIT

    Orbital Energies [Eh]
    ---------------------

    Doubly Occupied:

       1A    -20.582876     2A    -20.581621     3A    -11.366558
       4A    -11.363215     5A    -11.295409     6A    -11.290016
       7A    -11.288644     8A    -11.287046     9A     -1.405971
      10A     -1.403145    11A     -1.163220    12A     -1.073983
      13A     -0.977756    14A     -0.880216    15A     -0.831869
      16A     -0.717506    17A     -0.714182    18A     -0.688208
      19A     -0.640050    20A     -0.633648    21A     -0.600503
      22A     -0.595161    23A     -0.583446    24A     -0.550613
      25A     -0.468096    26A     -0.451535    27A     -0.413841
      28A     -0.407050

  @DF-RHF Final Energy:  -379.35770466449452

   => Energetics <=

    Nuclear Repulsion Energy =            321.9764450506926892
    One-Electron Energy =               -1154.1575326240636059
    Two-Electron Energy =                 452.8233829088763400
    Total Energy =                       -379.3577046644945199
  Basis Set: (AUG-CC-PVTZ AUX)
    Blend: AUG-CC-PVTZ-RI
    Molecular point group: c1

    Geometry (in Angstrom), charge = 0, multiplicity = 1:

       Center              X                  Y                   Z               Mass
    ------------   -----------------  -----------------  -----------------  -----------------
         O           -2.675673742079    -0.004752303582    -0.000013750186    15.994914619570
         O            2.681424257921    -0.004752303582    -0.000050750186    15.994914619570
         C           -1.438090742079    -0.004752303582     0.000012249814    12.000000000000
         C            1.443842257921    -0.004752303582    -0.000015750186    12.000000000000
         C            0.677469257921    -1.271387303582     0.000004249814    12.000000000000
         C           -0.697603042079    -1.228609203582     0.000044149814    12.000000000000
         C            0.677470257921     1.261883696418    -0.000004750186    12.000000000000
         C           -0.671718742079     1.261882696418     0.000036249814    12.000000000000
         H            1.262297257921    -2.187679303582     0.000007249814     1.007825032230
         H            1.262295257921     2.178176696418    -0.000008750186     1.007825032230
         H           -1.256545742079    -2.187681303582     0.000065249814     1.007825032230
         H           -1.256546742079     2.178174696418     0.000050249814     1.007825032230

  Basis Set: AUG-CC-PVTZ
    Blend: AUG-CC-PVTZ
  Basis Set: (AUG-CC-PVTZ AUX)
    Blend: AUG-CC-PVTZ-JKFIT
	 Reference Energy          =    -379.3577046644945199 [Eh]
	 Singles Energy            =      -0.0000000000000000 [Eh]
	 Same-Spin Energy          =      -0.3788966161627786 [Eh]
	 Opposite-Spin Energy      =      -1.1657931939652033 [Eh]
	 Correlation Energy        =      -1.5446898101279820 [Eh]
	 Total Energy              =    -380.9023944746224970 [Eh]

	 ================> DF-SCS-MP2 Energies <==================
	-----------------------------------------------------------
	 SCS Same-Spin Scale       =       0.3333333333333333 [-]
	 SCS Opposite-Spin Scale   =       1.2000000000000000 [-]
	 SCS Same-Spin Energy      =      -0.1262988720542595 [Eh]
	 SCS Opposite-Spin Energy  =      -1.3989518327582440 [Eh]
	 SCS Correlation Energy    =      -1.5252507048125035 [Eh]
	 SCS Total Energy          =    -380.8829553693070125 [Eh]
	-----------------------------------------------------------

  Dipole Moment: [D]
     X:     0.0665      Y:    -0.0607      Z:     0.0001     Total:     0.0900

*** Psi4 exiting successfully. Buy a developer a beer!
