                               Psi4 1.3.2 release

  ==> Input File <==

--------------------------------------------------------------------------
#psi4
#
memory 32 gb

molecule  {
0 1
  O       -2.6785490     0.0000000    -0.0000150
  O        2.6785490     0.0000000    -0.0000520
  C       -1.4409660     0.0000000     0.0000110
  C        1.4409670     0.0000000    -0.0000170
  C        0.6745940    -1.2666350     0.0000030
  C       -0.8745950    -1.2666361     0.0000501
  C        0.6745950     1.2666360    -0.0000060
  C       -0.6745940     1.2666350     0.0000350
  H        1.2594220    -2.1829270     0.0000060
  H        1.2594200     2.1829290    -0.0000100
  H       -1.2594210    -2.1829290     0.0000640
  H       -1.2594220     2.1829270     0.0000490
units angstrom
no_reorient  #important for SAPT in psi4, default
symmetry c1  #important for SAPT in psi4, default
}

set PROPERTIES_ORIGIN ["COM"]
properties('MP2/aug-cc-pvtz', properties = ['dipole'])
--------------------------------------------------------------------------

    Molecular point group: c1
  Charge       = 0
  Multiplicity = 1
  Basis Set: AUG-CC-PVTZ
    Blend: AUG-CC-PVTZ
  Basis Set: (AUG-CC-PVTZ AUX)
    Blend: AUG-CC-PVTZ-JKFIT

    Orbital Energies [Eh]
    ---------------------

    Doubly Occupied:

       1A    -20.585492     2A    -20.574084     3A    -11.369509
       4A    -11.357560     5A    -11.317090     6A    -11.299763
       7A    -11.291605     8A    -11.287787     9A     -1.407353
      10A     -1.404489    11A     -1.150389    12A     -1.061344
      13A     -0.982418    14A     -0.892243    15A     -0.830811
      16A     -0.725399    17A     -0.706700    18A     -0.699189
      19A     -0.651468    20A     -0.633732    21A     -0.596775
      22A     -0.593087    23A     -0.574606    24A     -0.552229
      25A     -0.461147    26A     -0.459517    27A     -0.413802
      28A     -0.374463

  @DF-RHF Final Energy:  -379.30304041405441

   => Energetics <=

    Nuclear Repulsion Energy =            320.3854641541649357
    One-Electron Energy =               -1150.8689034834144422
    Two-Electron Energy =                 451.1803989151950418
    Total Energy =                       -379.3030404140544078
  Basis Set: (AUG-CC-PVTZ AUX)
    Blend: AUG-CC-PVTZ-RI
    Molecular point group: c1

    Geometry (in Angstrom), charge = 0, multiplicity = 1:

       Center              X                  Y                   Z               Mass
    ------------   -----------------  -----------------  -----------------  -----------------
         O           -2.656331226293     0.000000011109    -0.000014550029    15.994914619570
         O            2.700766773707     0.000000011109    -0.000051550029    15.994914619570
         C           -1.418748226293     0.000000011109     0.000011449971    12.000000000000
         C            1.463184773707     0.000000011109    -0.000016550029    12.000000000000
         C            0.696811773707    -1.266634988891     0.000003449971    12.000000000000
         C           -0.852377226293    -1.266636088891     0.000050549971    12.000000000000
         C            0.696812773707     1.266636011109    -0.000005550029    12.000000000000
         C           -0.652376226293     1.266635011109     0.000035449971    12.000000000000
         H            1.281639773707    -2.182926988891     0.000006449971     1.007825032230
         H            1.281637773707     2.182929011109    -0.000009550029     1.007825032230
         H           -1.237203226293    -2.182928988891     0.000064449971     1.007825032230
         H           -1.237204226293     2.182927011109     0.000049449971     1.007825032230

  Basis Set: AUG-CC-PVTZ
    Blend: AUG-CC-PVTZ
  Basis Set: (AUG-CC-PVTZ AUX)
    Blend: AUG-CC-PVTZ-JKFIT
	 Reference Energy          =    -379.3030404140544078 [Eh]
	 Singles Energy            =      -0.0000000000000000 [Eh]
	 Same-Spin Energy          =      -0.3825571336241707 [Eh]
	 Opposite-Spin Energy      =      -1.1742595720814080 [Eh]
	 Correlation Energy        =      -1.5568167057055786 [Eh]
	 Total Energy              =    -380.8598571197599654 [Eh]

	 ================> DF-SCS-MP2 Energies <==================
	-----------------------------------------------------------
	 SCS Same-Spin Scale       =       0.3333333333333333 [-]
	 SCS Opposite-Spin Scale   =       1.2000000000000000 [-]
	 SCS Same-Spin Energy      =      -0.1275190445413902 [Eh]
	 SCS Opposite-Spin Energy  =      -1.4091114864976895 [Eh]
	 SCS Correlation Energy    =      -1.5366305310390798 [Eh]
	 SCS Total Energy          =    -380.8396709450934736 [Eh]
	-----------------------------------------------------------

  Dipole Moment: [D]
     X:    -0.0128      Y:    -0.1477      Z:     0.0001     Total:     0.1482

*** Psi4 exiting successfully. Buy a developer a beer!
