                               Psi4 1.3.2 release

  ==> Input File <==

--------------------------------------------------------------------------
#psi4
#
memory 32 gb

molecule  {
0 1
  O       -2.6785490     0.0000000    -0.0000150
  O        2.6785490     0.0000000    -0.0000520
  C       -1.4409660     0.0000000     0.0000110
  C        1.4409670     0.0000000    -0.0000170
  C        0.6745940    -1.2666350     0.0000030
  C       -0.6745950    -1.2666360     0.0000440
  C        0.6745950     1.2666360    -0.0000060
  C       -0.6745940     1.2666350     0.0000350
  H        1.2594220    -2.1829270     0.0000060
  H        1.2594200     2.1829290    -0.0000100
  H       -1.3670226    -2.3515169     0.0000677
  H       -1.2594220     2.1829270     0.0000490
units angstrom
no_reorient  #important for SAPT in psi4, default
symmetry c1  #important for SAPT in psi4, default
}

set PROPERTIES_ORIGIN ["COM"]
properties('MP2/aug-cc-pvtz', properties = ['dipole'])
--------------------------------------------------------------------------

    Molecular point group: c1
  Charge       = 0
  Multiplicity = 1
  Basis Set: AUG-CC-PVTZ
    Blend: AUG-CC-PVTZ
  Basis Set: (AUG-CC-PVTZ AUX)
    Blend: AUG-CC-PVTZ-JKFIT

    Orbital Energies [Eh]
    ---------------------

    Doubly Occupied:

       1A    -20.583025     2A    -20.582714     3A    -11.368651
       4A    -11.368149     5A    -11.307528     6A    -11.290423
       7A    -11.289156     8A    -11.288737     9A     -1.405703
      10A     -1.402957    11A     -1.161802    12A     -1.074371
      13A     -0.970316    14A     -0.871345    15A     -0.829138
      16A     -0.716544    17A     -0.710869    18A     -0.682535
      19A     -0.637681    20A     -0.620916    21A     -0.600022
      22A     -0.594151    23A     -0.567057    24A     -0.550168
      25A     -0.468010    26A     -0.447568    27A     -0.415533
      28A     -0.412457

  @DF-RHF Final Energy:  -379.34031299124297

   => Energetics <=

    Nuclear Repulsion Energy =            320.5961347641916177
    One-Electron Energy =               -1151.4378419723855131
    Two-Electron Energy =                 451.5013942169508709
    Total Energy =                       -379.3403129912429677
  Basis Set: (AUG-CC-PVTZ AUX)
    Blend: AUG-CC-PVTZ-RI
    Molecular point group: c1

    Geometry (in Angstrom), charge = 0, multiplicity = 1:

       Center              X                  Y                   Z               Mass
    ------------   -----------------  -----------------  -----------------  -----------------
         O           -2.677545190889     0.001572906215    -0.000013906905    15.994914619570
         O            2.679552809111     0.001572906215    -0.000050906905    15.994914619570
         C           -1.439962190889     0.001572906215     0.000012093095    12.000000000000
         C            1.441970809111     0.001572906215    -0.000015906905    12.000000000000
         C            0.675597809111    -1.265062093785     0.000004093095    12.000000000000
         C           -0.673591190889    -1.265063093785     0.000045093095    12.000000000000
         C            0.675598809111     1.268208906215    -0.000004906905    12.000000000000
         C           -0.673590190889     1.268207906215     0.000036093095    12.000000000000
         H            1.260425809111    -2.181354093785     0.000007093095     1.007825032230
         H            1.260423809111     2.184501906215    -0.000008906905     1.007825032230
         H           -1.366018790889    -2.349943993785     0.000068793095     1.007825032230
         H           -1.258418190889     2.184499906215     0.000050093095     1.007825032230

  Basis Set: AUG-CC-PVTZ
    Blend: AUG-CC-PVTZ
  Basis Set: (AUG-CC-PVTZ AUX)
    Blend: AUG-CC-PVTZ-JKFIT
	 Reference Energy          =    -379.3403129912429677 [Eh]
	 Singles Energy            =      -0.0000000000000000 [Eh]
	 Same-Spin Energy          =      -0.3786542508519767 [Eh]
	 Opposite-Spin Energy      =      -1.1664851406595784 [Eh]
	 Correlation Energy        =      -1.5451393915115552 [Eh]
	 Total Energy              =    -380.8854523827545222 [Eh]

	 ================> DF-SCS-MP2 Energies <==================
	-----------------------------------------------------------
	 SCS Same-Spin Scale       =       0.3333333333333333 [-]
	 SCS Opposite-Spin Scale   =       1.2000000000000000 [-]
	 SCS Same-Spin Energy      =      -0.1262180836173256 [Eh]
	 SCS Opposite-Spin Energy  =      -1.3997821687914940 [Eh]
	 SCS Correlation Energy    =      -1.5260002524088194 [Eh]
	 SCS Total Energy          =    -380.8663132436518026 [Eh]
	-----------------------------------------------------------

  Dipole Moment: [D]
     X:    -0.0030      Y:     0.0377      Z:     0.0001     Total:     0.0378

*** Psi4 exiting successfully. Buy a developer a beer!
