                               Psi4 1.3.2 release

  ==> Input File <==

--------------------------------------------------------------------------
#psi4
#
memory 32 gb

molecule  {
0 1
  O       -2.6785490     0.0000000    -0.0000150
  O        2.6785490     0.0000000    -0.0000520
  C       -1.4409660     0.0000000     0.0000110
  C        1.4409670     0.0000000    -0.0000170
  C        0.6745940    -1.2666350     0.0000030
  C       -0.6228284    -1.3521943     0.0000462
  C        0.6745950     1.2666360    -0.0000060
  C       -0.6745940     1.2666350     0.0000350
  H        1.2594220    -2.1829270     0.0000060
  H        1.2594200     2.1829290    -0.0000100
  H       -1.2594210    -2.1829290     0.0000640
  H       -1.2594220     2.1829270     0.0000490
units angstrom
no_reorient  #important for SAPT in psi4, default
symmetry c1  #important for SAPT in psi4, default
}

set PROPERTIES_ORIGIN ["COM"]
properties('MP2/aug-cc-pvtz', properties = ['dipole'])
--------------------------------------------------------------------------

    Molecular point group: c1
  Charge       = 0
  Multiplicity = 1
  Basis Set: AUG-CC-PVTZ
    Blend: AUG-CC-PVTZ
  Basis Set: (AUG-CC-PVTZ AUX)
    Blend: AUG-CC-PVTZ-JKFIT

    Orbital Energies [Eh]
    ---------------------

    Doubly Occupied:

       1A    -20.582962     2A    -20.582161     3A    -11.371749
       4A    -11.368595     5A    -11.290635     6A    -11.289038
       7A    -11.285852     8A    -11.277287     9A     -1.404488
      10A     -1.401414    11A     -1.160811    12A     -1.084167
      13A     -0.962058    14A     -0.872698    15A     -0.832511
      16A     -0.718553    17A     -0.714221    18A     -0.691237
      19A     -0.649049    20A     -0.627936    21A     -0.607626
      22A     -0.591176    23A     -0.580469    24A     -0.548398
      25A     -0.467862    26A     -0.438878    27A     -0.424875
      28A     -0.414094

  @DF-RHF Final Energy:  -379.35586420212661

   => Energetics <=

    Nuclear Repulsion Energy =            320.6257995307428246
    One-Electron Energy =               -1151.4817263195302530
    Two-Electron Energy =                 451.5000625866608175
    Total Energy =                       -379.3558642021266110
  Basis Set: (AUG-CC-PVTZ AUX)
    Blend: AUG-CC-PVTZ-RI
    Molecular point group: c1

    Geometry (in Angstrom), charge = 0, multiplicity = 1:

       Center              X                  Y                   Z               Mass
    ------------   -----------------  -----------------  -----------------  -----------------
         O           -2.684299821120     0.009504618272    -0.000014116781    15.994914619570
         O            2.672798178880     0.009504618272    -0.000051116781    15.994914619570
         C           -1.446716821120     0.009504618272     0.000011883219    12.000000000000
         C            1.435216178880     0.009504618272    -0.000016116781    12.000000000000
         C            0.668843178880    -1.257130381728     0.000003883219    12.000000000000
         C           -0.628579221120    -1.342689681728     0.000047083219    12.000000000000
         C            0.668844178880     1.276140618272    -0.000005116781    12.000000000000
         C           -0.680344821120     1.276139618272     0.000035883219    12.000000000000
         H            1.253671178880    -2.173422381728     0.000006883219     1.007825032230
         H            1.253669178880     2.192433618272    -0.000009116781     1.007825032230
         H           -1.265171821120    -2.173424381728     0.000064883219     1.007825032230
         H           -1.265172821120     2.192431618272     0.000049883219     1.007825032230

  Basis Set: AUG-CC-PVTZ
    Blend: AUG-CC-PVTZ
  Basis Set: (AUG-CC-PVTZ AUX)
    Blend: AUG-CC-PVTZ-JKFIT
	 Reference Energy          =    -379.3558642021266110 [Eh]
	 Singles Energy            =      -0.0000000000000000 [Eh]
	 Same-Spin Energy          =      -0.3769393368718865 [Eh]
	 Opposite-Spin Energy      =      -1.1628470476521247 [Eh]
	 Correlation Energy        =      -1.5397863845240112 [Eh]
	 Total Energy              =    -380.8956505866506177 [Eh]

	 ================> DF-SCS-MP2 Energies <==================
	-----------------------------------------------------------
	 SCS Same-Spin Scale       =       0.3333333333333333 [-]
	 SCS Opposite-Spin Scale   =       1.2000000000000000 [-]
	 SCS Same-Spin Energy      =      -0.1256464456239622 [Eh]
	 SCS Opposite-Spin Energy  =      -1.3954164571825496 [Eh]
	 SCS Correlation Energy    =      -1.5210629028065117 [Eh]
	 SCS Total Energy          =    -380.8769271049331451 [Eh]
	-----------------------------------------------------------

  Dipole Moment: [D]
     X:    -0.1141      Y:     0.1044      Z:     0.0001     Total:     0.1546

*** Psi4 exiting successfully. Buy a developer a beer!
