                               Psi4 1.3.2 release

  ==> Input File <==

--------------------------------------------------------------------------
#psi4
#
memory 32 gb

molecule  {
0 1
  O       -2.6785490     0.0000000    -0.0000150
  O        2.6785490     0.0000000    -0.0000520
  C       -1.4847041    -0.0275176     0.0000136
  C        1.4409670     0.0000000    -0.0000170
  C        0.6745940    -1.2666350     0.0000030
  C       -0.6745950    -1.2666360     0.0000440
  C        0.6745950     1.2666360    -0.0000060
  C       -0.6745940     1.2666350     0.0000350
  H        1.2594220    -2.1829270     0.0000060
  H        1.2594200     2.1829290    -0.0000100
  H       -1.2594210    -2.1829290     0.0000640
  H       -1.2594220     2.1829270     0.0000490
units angstrom
no_reorient  #important for SAPT in psi4, default
symmetry c1  #important for SAPT in psi4, default
}

set PROPERTIES_ORIGIN ["COM"]
properties('MP2/aug-cc-pvtz', properties = ['dipole'])
--------------------------------------------------------------------------

    Molecular point group: c1
  Charge       = 0
  Multiplicity = 1
  Basis Set: AUG-CC-PVTZ
    Blend: AUG-CC-PVTZ
  Basis Set: (AUG-CC-PVTZ AUX)
    Blend: AUG-CC-PVTZ-JKFIT

    Orbital Energies [Eh]
    ---------------------

    Doubly Occupied:

       1A    -20.585473     2A    -20.579599     3A    -11.366235
       4A    -11.364729     5A    -11.289465     6A    -11.287530
       7A    -11.286715     8A    -11.283012     9A     -1.434244
      10A     -1.401452    11A     -1.156558    12A     -1.072962
      13A     -0.966756    14A     -0.873366    15A     -0.829270
      16A     -0.717499    17A     -0.714524    18A     -0.692130
      19A     -0.639038    20A     -0.633095    21A     -0.606818
      22A     -0.598637    23A     -0.587790    24A     -0.557484
      25A     -0.466105    26A     -0.441822    27A     -0.417723
      28A     -0.409210

  @DF-RHF Final Energy:  -379.36482418303717

   => Energetics <=

    Nuclear Repulsion Energy =            321.4350336976465314
    One-Electron Energy =               -1153.0812384229529926
    Two-Electron Energy =                 452.2813805422692894
    Total Energy =                       -379.3648241830371717
  Basis Set: (AUG-CC-PVTZ AUX)
    Blend: AUG-CC-PVTZ-RI
    Molecular point group: c1

    Geometry (in Angstrom), charge = 0, multiplicity = 1:

       Center              X                  Y                   Z               Mass
    ------------   -----------------  -----------------  -----------------  -----------------
         O           -2.673690263465     0.003056913050    -0.000014161216    15.994914619570
         O            2.683407736535     0.003056913050    -0.000051161216    15.994914619570
         C           -1.479845363465    -0.024460686950     0.000014438784    12.000000000000
         C            1.445825736535     0.003056913050    -0.000016161216    12.000000000000
         C            0.679452736535    -1.263578086950     0.000003838784    12.000000000000
         C           -0.669736263465    -1.263579086950     0.000044838784    12.000000000000
         C            0.679453736535     1.269692913050    -0.000005161216    12.000000000000
         C           -0.669735263465     1.269691913050     0.000035838784    12.000000000000
         H            1.264280736535    -2.179870086950     0.000006838784     1.007825032230
         H            1.264278736535     2.185985913050    -0.000009161216     1.007825032230
         H           -1.254562263465    -2.179872086950     0.000064838784     1.007825032230
         H           -1.254563263465     2.185983913050     0.000049838784     1.007825032230

  Basis Set: AUG-CC-PVTZ
    Blend: AUG-CC-PVTZ
  Basis Set: (AUG-CC-PVTZ AUX)
    Blend: AUG-CC-PVTZ-JKFIT
	 Reference Energy          =    -379.3648241830371717 [Eh]
	 Singles Energy            =      -0.0000000000000000 [Eh]
	 Same-Spin Energy          =      -0.3763629787279851 [Eh]
	 Opposite-Spin Energy      =      -1.1611038277249404 [Eh]
	 Correlation Energy        =      -1.5374668064529255 [Eh]
	 Total Energy              =    -380.9022909894900977 [Eh]

	 ================> DF-SCS-MP2 Energies <==================
	-----------------------------------------------------------
	 SCS Same-Spin Scale       =       0.3333333333333333 [-]
	 SCS Opposite-Spin Scale   =       1.2000000000000000 [-]
	 SCS Same-Spin Energy      =      -0.1254543262426617 [Eh]
	 SCS Opposite-Spin Energy  =      -1.3933245932699283 [Eh]
	 SCS Correlation Energy    =      -1.5187789195125900 [Eh]
	 SCS Total Energy          =    -380.8836031025497846 [Eh]
	-----------------------------------------------------------

  Dipole Moment: [D]
     X:    -0.2119      Y:    -0.1085      Z:     0.0001     Total:     0.2380

*** Psi4 exiting successfully. Buy a developer a beer!
