                               Psi4 1.3.2 release

  ==> Input File <==

--------------------------------------------------------------------------
#psi4
#
memory 32 gb

molecule  {
0 1
  O       -2.6785490     0.0000000    -0.0000150
  O        2.6785490     0.0000000    -0.0000520
  C       -1.3043682     0.0731688     0.0000097
  C        1.4409670     0.0000000    -0.0000170
  C        0.6745940    -1.2666350     0.0000030
  C       -0.6745950    -1.2666360     0.0000440
  C        0.6745950     1.2666360    -0.0000060
  C       -0.6745940     1.2666350     0.0000350
  H        1.2594220    -2.1829270     0.0000060
  H        1.2594200     2.1829290    -0.0000100
  H       -1.2594210    -2.1829290     0.0000640
  H       -1.2594220     2.1829270     0.0000490
units angstrom
no_reorient  #important for SAPT in psi4, default
symmetry c1  #important for SAPT in psi4, default
}

set PROPERTIES_ORIGIN ["COM"]
properties('MP2/aug-cc-pvtz', properties = ['dipole'])
--------------------------------------------------------------------------

    Molecular point group: c1
  Charge       = 0
  Multiplicity = 1
  Basis Set: AUG-CC-PVTZ
    Blend: AUG-CC-PVTZ
  Basis Set: (AUG-CC-PVTZ AUX)
    Blend: AUG-CC-PVTZ-JKFIT

    Orbital Energies [Eh]
    ---------------------

    Doubly Occupied:

       1A    -20.591410     2A    -20.571141     3A    -11.374151
       4A    -11.367560     5A    -11.305772     6A    -11.295302
       7A    -11.287408     8A    -11.286086     9A     -1.412049
      10A     -1.325362    11A     -1.180072    12A     -1.090670
      13A     -0.987284    14A     -0.887342    15A     -0.842509
      16A     -0.724604    17A     -0.713973    18A     -0.684053
      19A     -0.658253    20A     -0.632527    21A     -0.595426
      22A     -0.587406    23A     -0.562203    24A     -0.529279
      25A     -0.467046    26A     -0.458415    27A     -0.418176
      28A     -0.398730

  @DF-RHF Final Energy:  -379.31192646717807

   => Energetics <=

    Nuclear Repulsion Energy =            322.0510884946773444
    One-Electron Energy =               -1154.2576105206171633
    Two-Electron Energy =                 452.8945955587618073
    Total Energy =                       -379.3119264671780684
  Basis Set: (AUG-CC-PVTZ AUX)
    Blend: AUG-CC-PVTZ-RI
    Molecular point group: c1

    Geometry (in Angstrom), charge = 0, multiplicity = 1:

       Center              X                  Y                   Z               Mass
    ------------   -----------------  -----------------  -----------------  -----------------
         O           -2.693723666306    -0.008128276432    -0.000013727968    15.994914619570
         O            2.663374333694    -0.008128276432    -0.000050727968    15.994914619570
         C           -1.319542866306     0.065040523568     0.000010972032    12.000000000000
         C            1.425792333694    -0.008128276432    -0.000015727968    12.000000000000
         C            0.659419333694    -1.274763276432     0.000004272032    12.000000000000
         C           -0.689769666306    -1.274764276432     0.000045272032    12.000000000000
         C            0.659420333694     1.258507723568    -0.000004727968    12.000000000000
         C           -0.689768666306     1.258506723568     0.000036272032    12.000000000000
         H            1.244247333694    -2.191055276432     0.000007272032     1.007825032230
         H            1.244245333694     2.174800723568    -0.000008727968     1.007825032230
         H           -1.274595666306    -2.191057276432     0.000065272032     1.007825032230
         H           -1.274596666306     2.174798723568     0.000050272032     1.007825032230

  Basis Set: AUG-CC-PVTZ
    Blend: AUG-CC-PVTZ
  Basis Set: (AUG-CC-PVTZ AUX)
    Blend: AUG-CC-PVTZ-JKFIT
	 Reference Energy          =    -379.3119264671780684 [Eh]
	 Singles Energy            =      -0.0000000000000000 [Eh]
	 Same-Spin Energy          =      -0.3848600631323350 [Eh]
	 Opposite-Spin Energy      =      -1.1777279766503472 [Eh]
	 Correlation Energy        =      -1.5625880397826823 [Eh]
	 Total Energy              =    -380.8745145069607361 [Eh]

	 ================> DF-SCS-MP2 Energies <==================
	-----------------------------------------------------------
	 SCS Same-Spin Scale       =       0.3333333333333333 [-]
	 SCS Opposite-Spin Scale   =       1.2000000000000000 [-]
	 SCS Same-Spin Energy      =      -0.1282866877107783 [Eh]
	 SCS Opposite-Spin Energy  =      -1.4132735719804166 [Eh]
	 SCS Correlation Energy    =      -1.5415602596911948 [Eh]
	 SCS Total Energy          =    -380.8534867268692778 [Eh]
	-----------------------------------------------------------

  Dipole Moment: [D]
     X:     0.2406      Y:     0.2349      Z:     0.0001     Total:     0.3363

*** Psi4 exiting successfully. Buy a developer a beer!
