                               Psi4 1.3.2 release

  ==> Input File <==

--------------------------------------------------------------------------
#psi4
#
memory 32 gb

molecule  {
0 1
  O       -2.6785490     0.0000000    -0.0000150
  O        2.6785490     0.0000000    -0.0000520
  C       -1.4409660     0.0000000     0.0000110
  C        1.4409670     0.0000000    -0.0000170
  C        0.6745940    -1.2666350     0.0000030
  C       -0.6745950    -1.2666360     0.0000440
  C        0.6745950     1.2666360    -0.0000060
  C       -0.6745940     1.2666350     0.0000350
  H        1.2594220    -2.1829270     0.0000060
  H        1.2594200     2.1829290    -0.0000100
  H       -1.2056202    -2.0986350     0.0000622
  H       -1.2594220     2.1829270     0.0000490
units angstrom
no_reorient  #important for SAPT in psi4, default
symmetry c1  #important for SAPT in psi4, default
}

set PROPERTIES_ORIGIN ["COM"]
properties('MP2/aug-cc-pvtz', properties = ['dipole'])
--------------------------------------------------------------------------

    Molecular point group: c1
  Charge       = 0
  Multiplicity = 1
  Basis Set: AUG-CC-PVTZ
    Blend: AUG-CC-PVTZ
  Basis Set: (AUG-CC-PVTZ AUX)
    Blend: AUG-CC-PVTZ-JKFIT

    Orbital Energies [Eh]
    ---------------------

    Doubly Occupied:

       1A    -20.582289     2A    -20.582288     3A    -11.366748
       4A    -11.366469     5A    -11.289087     6A    -11.288743
       7A    -11.287476     8A    -11.277748     9A     -1.405302
      10A     -1.402601    11A     -1.162764    12A     -1.079970
      13A     -0.972944    14A     -0.882643    15A     -0.835933
      16A     -0.720057    17A     -0.715769    18A     -0.694751
      19A     -0.650239    20A     -0.633066    21A     -0.604298
      22A     -0.593402    23A     -0.588284    24A     -0.549742
      25A     -0.467749    26A     -0.449138    27A     -0.415054
      28A     -0.411838

  @DF-RHF Final Energy:  -379.35711242180111

   => Energetics <=

    Nuclear Repulsion Energy =            322.0329546781475187
    One-Electron Energy =               -1154.2273510936822731
    Two-Electron Energy =                 452.8372839937337062
    Total Energy =                       -379.3571124218011050
  Basis Set: (AUG-CC-PVTZ AUX)
    Blend: AUG-CC-PVTZ-RI
    Molecular point group: c1

    Geometry (in Angstrom), charge = 0, multiplicity = 1:

       Center              X                  Y                   Z               Mass
    ------------   -----------------  -----------------  -----------------  -----------------
         O           -2.679051057195    -0.000786453574    -0.000013855590    15.994914619570
         O            2.678046942805    -0.000786453574    -0.000050855590    15.994914619570
         C           -1.441468057195    -0.000786453574     0.000012144410    12.000000000000
         C            1.440464942805    -0.000786453574    -0.000015855590    12.000000000000
         C            0.674091942805    -1.267421453574     0.000004144410    12.000000000000
         C           -0.675097057195    -1.267422453574     0.000045144410    12.000000000000
         C            0.674092942805     1.265849546426    -0.000004855590    12.000000000000
         C           -0.675096057195     1.265848546426     0.000036144410    12.000000000000
         H            1.258919942805    -2.183713453574     0.000007144410     1.007825032230
         H            1.258917942805     2.182142546426    -0.000008855590     1.007825032230
         H           -1.206122257195    -2.099421453574     0.000063344410     1.007825032230
         H           -1.259924057195     2.182140546426     0.000050144410     1.007825032230

  Basis Set: AUG-CC-PVTZ
    Blend: AUG-CC-PVTZ
  Basis Set: (AUG-CC-PVTZ AUX)
    Blend: AUG-CC-PVTZ-JKFIT
	 Reference Energy          =    -379.3571124218011050 [Eh]
	 Singles Energy            =      -0.0000000000000000 [Eh]
	 Same-Spin Energy          =      -0.3777355980220168 [Eh]
	 Opposite-Spin Energy      =      -1.1638087910792718 [Eh]
	 Correlation Energy        =      -1.5415443891012885 [Eh]
	 Total Energy              =    -380.8986568109023665 [Eh]

	 ================> DF-SCS-MP2 Energies <==================
	-----------------------------------------------------------
	 SCS Same-Spin Scale       =       0.3333333333333333 [-]
	 SCS Opposite-Spin Scale   =       1.2000000000000000 [-]
	 SCS Same-Spin Energy      =      -0.1259118660073389 [Eh]
	 SCS Opposite-Spin Energy  =      -1.3965705492951261 [Eh]
	 SCS Correlation Energy    =      -1.5224824153024650 [Eh]
	 SCS Total Energy          =    -380.8795948371035820 [Eh]
	-----------------------------------------------------------

  Dipole Moment: [D]
     X:     0.0115      Y:    -0.0025      Z:     0.0001     Total:     0.0118

*** Psi4 exiting successfully. Buy a developer a beer!
