                               Psi4 1.3.2 release

  ==> Input File <==

--------------------------------------------------------------------------
#psi4
#
memory 32 gb

molecule  {
0 1
  O       -2.6785490     0.0000000    -0.0000150
  O        2.6785490     0.0000000    -0.0000520
  C       -1.5691673    -0.0870463     0.0000127
  C        1.4409670     0.0000000    -0.0000170
  C        0.6745940    -1.2666350     0.0000030
  C       -0.6745950    -1.2666360     0.0000440
  C        0.6745950     1.2666360    -0.0000060
  C       -0.6745940     1.2666350     0.0000350
  H        1.2594220    -2.1829270     0.0000060
  H        1.2594200     2.1829290    -0.0000100
  H       -1.2594210    -2.1829290     0.0000640
  H       -1.2594220     2.1829270     0.0000490
units angstrom
no_reorient  #important for SAPT in psi4, default
symmetry c1  #important for SAPT in psi4, default
}

set PROPERTIES_ORIGIN ["COM"]
properties('MP2/aug-cc-pvtz', properties = ['dipole'])
--------------------------------------------------------------------------

    Molecular point group: c1
  Charge       = 0
  Multiplicity = 1
  Basis Set: AUG-CC-PVTZ
    Blend: AUG-CC-PVTZ
  Basis Set: (AUG-CC-PVTZ AUX)
    Blend: AUG-CC-PVTZ-JKFIT

    Orbital Energies [Eh]
    ---------------------

    Doubly Occupied:

       1A    -20.592992     2A    -20.574062     3A    -11.365584
       4A    -11.359859     5A    -11.291311     6A    -11.285265
       7A    -11.280319     8A    -11.271434     9A     -1.498828
      10A     -1.396457    11A     -1.147215    12A     -1.064629
      13A     -0.959680    14A     -0.866381    15A     -0.820901
      16A     -0.726786    17A     -0.722697    18A     -0.692747
      19A     -0.638779    20A     -0.630548    21A     -0.626403
      22A     -0.605690    23A     -0.596043    24A     -0.563447
      25A     -0.460443    26A     -0.421720    27A     -0.420704
      28A     -0.401998

  @DF-RHF Final Energy:  -379.34269027519912

   => Energetics <=

    Nuclear Repulsion Energy =            321.4686965605851015
    One-Electron Energy =               -1153.0569334569083821
    Two-Electron Energy =                 452.2455466211241060
    Total Energy =                       -379.3426902751991179
  Basis Set: (AUG-CC-PVTZ AUX)
    Blend: AUG-CC-PVTZ-RI
    Molecular point group: c1

    Geometry (in Angstrom), charge = 0, multiplicity = 1:

       Center              X                  Y                   Z               Mass
    ------------   -----------------  -----------------  -----------------  -----------------
         O           -2.664307299170     0.009669919266    -0.000014061236    15.994914619570
         O            2.692790700830     0.009669919266    -0.000051061236    15.994914619570
         C           -1.554925599170    -0.077376380734     0.000013638764    12.000000000000
         C            1.455208700830     0.009669919266    -0.000016061236    12.000000000000
         C            0.688835700830    -1.256965080734     0.000003938764    12.000000000000
         C           -0.660353299170    -1.256966080734     0.000044938764    12.000000000000
         C            0.688836700830     1.276305919266    -0.000005061236    12.000000000000
         C           -0.660352299170     1.276304919266     0.000035938764    12.000000000000
         H            1.273663700830    -2.173257080734     0.000006938764     1.007825032230
         H            1.273661700830     2.192598919266    -0.000009061236     1.007825032230
         H           -1.245179299170    -2.173259080734     0.000064938764     1.007825032230
         H           -1.245180299170     2.192596919266     0.000049938764     1.007825032230

  Basis Set: AUG-CC-PVTZ
    Blend: AUG-CC-PVTZ
  Basis Set: (AUG-CC-PVTZ AUX)
    Blend: AUG-CC-PVTZ-JKFIT
	 Reference Energy          =    -379.3426902751991179 [Eh]
	 Singles Energy            =      -0.0000000000000000 [Eh]
	 Same-Spin Energy          =      -0.3742178770547284 [Eh]
	 Opposite-Spin Energy      =      -1.1567886416542743 [Eh]
	 Correlation Energy        =      -1.5310065187090027 [Eh]
	 Total Energy              =    -380.8736967939080955 [Eh]

	 ================> DF-SCS-MP2 Energies <==================
	-----------------------------------------------------------
	 SCS Same-Spin Scale       =       0.3333333333333333 [-]
	 SCS Opposite-Spin Scale   =       1.2000000000000000 [-]
	 SCS Same-Spin Energy      =      -0.1247392923515761 [Eh]
	 SCS Opposite-Spin Energy  =      -1.3881463699851291 [Eh]
	 SCS Correlation Energy    =      -1.5128856623367053 [Eh]
	 SCS Total Energy          =    -380.8555759375358321 [Eh]
	-----------------------------------------------------------

  Dipole Moment: [D]
     X:    -0.7729      Y:    -0.3990      Z:     0.0001     Total:     0.8698

*** Psi4 exiting successfully. Buy a developer a beer!
