                               Psi4 1.4a3.dev225

  ==> Input File <==

--------------------------------------------------------------------------
#psi4
#
memory 32 gb

molecule  {
0 1
  O       -2.6785490     0.0000000    -0.0000150
  O        2.6785490     0.0000000    -0.0000520
  C       -1.4409660     0.0000000     0.0000110
  C        1.4409670     0.0000000    -0.0000170
  C        0.6745940    -1.2666350     0.0000030
  C       -0.6745950    -1.2666360     0.0000440
  C        0.6745950     1.2666360    -0.0000060
  C       -0.6745940     1.2666350     0.0000350
  H        1.2594220    -2.1829270     0.0000060
  H        1.2594200     2.1829290    -0.0000100
  H       -1.2701812    -2.1997878     0.0000644
  H       -1.2594220     2.1829270     0.0000490
units angstrom
no_reorient  #important for SAPT in psi4, default
symmetry c1  #important for SAPT in psi4, default
}

set PROPERTIES_ORIGIN ["COM"]
properties('MP2/aug-cc-pvtz', properties = ['dipole'])
--------------------------------------------------------------------------

    Molecular point group: c1
  Charge       = 0
  Multiplicity = 1
  Basis Set: AUG-CC-PVTZ
    Blend: AUG-CC-PVTZ
  Basis Set: (AUG-CC-PVTZ AUX)
    Blend: AUG-CC-PVTZ-JKFIT

    Orbital Energies [Eh]
    ---------------------

    Doubly Occupied:

       1A    -20.582414     2A    -20.582399     3A    -11.367182
       4A    -11.367127     5A    -11.290947     6A    -11.289478
       7A    -11.288344     8A    -11.287882     9A     -1.405337
      10A     -1.402649    11A     -1.161882    12A     -1.076705
      13A     -0.971178    14A     -0.876113    15A     -0.832612
      16A     -0.715957    17A     -0.713827    18A     -0.688468
      19A     -0.642036    20A     -0.630244    21A     -0.602705
      22A     -0.593579    23A     -0.584024    24A     -0.549820
      25A     -0.467739    26A     -0.448751    27A     -0.415115
      28A     -0.411909

  @DF-RHF Final Energy:  -379.36225943517468

   => Energetics <=

    Nuclear Repulsion Energy =            321.3993745004011657
    One-Electron Energy =               -1153.0304169638436633
    Two-Electron Energy =                 452.2687830282678760
    Total Energy =                       -379.3622594351746784
  Basis Set: (AUG-CC-PVTZ AUX)
    Blend: AUG-CC-PVTZ-RI
    Molecular point group: c1

    Geometry (in Angstrom), charge = 0, multiplicity = 1:

       Center              X                  Y                   Z               Mass
    ------------   -----------------  -----------------  -----------------  -----------------
         O           -2.678448710299     0.000157290715    -0.000013876116    15.994914619570
         O            2.678649289701     0.000157290715    -0.000050876116    15.994914619570
         C           -1.440865710299     0.000157290715     0.000012123884    12.000000000000
         C            1.441067289701     0.000157290715    -0.000015876116    12.000000000000
         C            0.674694289701    -1.266477709285     0.000004123884    12.000000000000
         C           -0.674494710299    -1.266478709285     0.000045123884    12.000000000000
         C            0.674695289701     1.266793290715    -0.000004876116    12.000000000000
         C           -0.674493710299     1.266792290715     0.000036123884    12.000000000000
         H            1.259522289701    -2.182769709285     0.000007123884     1.007825032230
         H            1.259520289701     2.183086290715    -0.000008876116     1.007825032230
         H           -1.270080910299    -2.199630509285     0.000065523884     1.007825032230
         H           -1.259321710299     2.183084290715     0.000050123884     1.007825032230

  Basis Set: AUG-CC-PVTZ
    Blend: AUG-CC-PVTZ
  Basis Set: (AUG-CC-PVTZ AUX)
    Blend: AUG-CC-PVTZ-JKFIT
	 Reference Energy          =    -379.3622594351746784 [Eh]
	 Singles Energy            =      -0.0000000000000000 [Eh]
	 Same-Spin Energy          =      -0.3780134298179926 [Eh]
	 Opposite-Spin Energy      =      -1.1643818562452175 [Eh]
	 Correlation Energy        =      -1.5423952860632100 [Eh]
	 Total Energy              =    -380.9046547212378755 [Eh]

	 ================> DF-SCS-MP2 Energies <==================
	-----------------------------------------------------------
	 SCS Same-Spin Scale       =       0.3333333333333333 [-]
	 SCS Opposite-Spin Scale   =       1.2000000000000000 [-]
	 SCS Same-Spin Energy      =      -0.1260044766059975 [Eh]
	 SCS Opposite-Spin Energy  =      -1.3972582274942609 [Eh]
	 SCS Correlation Energy    =      -1.5232627041002584 [Eh]
	 SCS Total Energy          =    -380.8855221392749399 [Eh]
	-----------------------------------------------------------

  Dipole Moment: [D]
     X:    -0.0015      Y:     0.0018      Z:     0.0001     Total:     0.0023

*** Psi4 exiting successfully. Buy a developer a beer!
