                               Psi4 1.4a3.dev225

  ==> Input File <==

--------------------------------------------------------------------------
#psi4
#
memory 32 gb

molecule  {
0 1
  O       -2.6785490     0.0000000    -0.0000150
  O        2.6785490     0.0000000    -0.0000520
  C       -1.4409660     0.0000000     0.0000110
  C        1.4409670     0.0000000    -0.0000170
  C        0.6745940    -1.2666350     0.0000030
  C       -0.6745950    -1.2666360     0.0000440
  C        0.6745950     1.2666360    -0.0000060
  C       -0.6745940     1.2666350     0.0000350
  H        1.2594220    -2.1829270     0.0000060
  H        1.2594200     2.1829290    -0.0000100
  H       -1.2863214    -2.2250760     0.0000649
  H       -1.2594220     2.1829270     0.0000490
units angstrom
no_reorient  #important for SAPT in psi4, default
symmetry c1  #important for SAPT in psi4, default
}

set PROPERTIES_ORIGIN ["COM"]
properties('MP2/aug-cc-pvtz', properties = ['dipole'])
--------------------------------------------------------------------------

    Molecular point group: c1
  Charge       = 0
  Multiplicity = 1
  Basis Set: AUG-CC-PVTZ
    Blend: AUG-CC-PVTZ
  Basis Set: (AUG-CC-PVTZ AUX)
    Blend: AUG-CC-PVTZ-JKFIT

    Orbital Energies [Eh]
    ---------------------

    Doubly Occupied:

       1A    -20.582481     2A    -20.582438     3A    -11.367396
       4A    -11.367261     5A    -11.293834     6A    -11.289606
       7A    -11.288536     8A    -11.288005     9A     -1.405371
      10A     -1.402681    11A     -1.161782    12A     -1.076136
      13A     -0.970912    14A     -0.874978    15A     -0.831894
      16A     -0.716022    17A     -0.712993    18A     -0.687104
      19A     -0.640545    20A     -0.628847    21A     -0.602232
      22A     -0.593649    23A     -0.582260    24A     -0.549858
      25A     -0.467761    26A     -0.448619    27A     -0.415159
      28A     -0.411964

  @DF-RHF Final Energy:  -379.36039713002947

   => Energetics <=

    Nuclear Repulsion Energy =            321.2546133233793739
    One-Electron Energy =               -1152.7493747601756695
    Two-Electron Energy =                 452.1343643067668836
    Total Energy =                       -379.3603971300294688
  Basis Set: (AUG-CC-PVTZ AUX)
    Blend: AUG-CC-PVTZ-RI
    Molecular point group: c1

    Geometry (in Angstrom), charge = 0, multiplicity = 1:

       Center              X                  Y                   Z               Mass
    ------------   -----------------  -----------------  -----------------  -----------------
         O           -2.678298124042     0.000393226787    -0.000013880781    15.994914619570
         O            2.678799875958     0.000393226787    -0.000050880781    15.994914619570
         C           -1.440715124042     0.000393226787     0.000012119219    12.000000000000
         C            1.441217875958     0.000393226787    -0.000015880781    12.000000000000
         C            0.674844875958    -1.266241773213     0.000004119219    12.000000000000
         C           -0.674344124042    -1.266242773213     0.000045119219    12.000000000000
         C            0.674845875958     1.267029226787    -0.000004880781    12.000000000000
         C           -0.674343124042     1.267028226787     0.000036119219    12.000000000000
         H            1.259672875958    -2.182533773213     0.000007119219     1.007825032230
         H            1.259670875958     2.183322226787    -0.000008880781     1.007825032230
         H           -1.286070524042    -2.224682773213     0.000066019219     1.007825032230
         H           -1.259171124042     2.183320226787     0.000050119219     1.007825032230

  Basis Set: AUG-CC-PVTZ
    Blend: AUG-CC-PVTZ
  Basis Set: (AUG-CC-PVTZ AUX)
    Blend: AUG-CC-PVTZ-JKFIT
	 Reference Energy          =    -379.3603971300294688 [Eh]
	 Singles Energy            =      -0.0000000000000000 [Eh]
	 Same-Spin Energy          =      -0.3781050621819546 [Eh]
	 Opposite-Spin Energy      =      -1.1646406222565533 [Eh]
	 Correlation Energy        =      -1.5427456844385079 [Eh]
	 Total Energy              =    -380.9031428144679694 [Eh]

	 ================> DF-SCS-MP2 Energies <==================
	-----------------------------------------------------------
	 SCS Same-Spin Scale       =       0.3333333333333333 [-]
	 SCS Opposite-Spin Scale   =       1.2000000000000000 [-]
	 SCS Same-Spin Energy      =      -0.1260350207273182 [Eh]
	 SCS Opposite-Spin Energy  =      -1.3975687467078639 [Eh]
	 SCS Correlation Energy    =      -1.5236037674351821 [Eh]
	 SCS Total Energy          =    -380.8840008974646594 [Eh]
	-----------------------------------------------------------

  Dipole Moment: [D]
     X:    -0.0033      Y:     0.0053      Z:     0.0001     Total:     0.0062

*** Psi4 exiting successfully. Buy a developer a beer!
