                               Psi4 1.3.2 release

  ==> Input File <==

--------------------------------------------------------------------------
#psi4
#
memory 32 gb

molecule  {
0 1
  O       -2.6785490     0.0000000    -0.0000150
  O        2.6785490     0.0000000    -0.0000520
  C       -1.4629551    -0.0135679     0.0000123
  C        1.4409670     0.0000000    -0.0000170
  C        0.6745940    -1.2666350     0.0000030
  C       -0.6745950    -1.2666360     0.0000440
  C        0.6745950     1.2666360    -0.0000060
  C       -0.6745940     1.2666350     0.0000350
  H        1.2594220    -2.1829270     0.0000060
  H        1.2594200     2.1829290    -0.0000100
  H       -1.2594210    -2.1829290     0.0000640
  H       -1.2594220     2.1829270     0.0000490
units angstrom
no_reorient  #important for SAPT in psi4, default
symmetry c1  #important for SAPT in psi4, default
}

set PROPERTIES_ORIGIN ["COM"]
properties('MP2/aug-cc-pvtz', properties = ['dipole'])
--------------------------------------------------------------------------

    Molecular point group: c1
  Charge       = 0
  Multiplicity = 1
  Basis Set: AUG-CC-PVTZ
    Blend: AUG-CC-PVTZ
  Basis Set: (AUG-CC-PVTZ AUX)
    Blend: AUG-CC-PVTZ-JKFIT

    Orbital Energies [Eh]
    ---------------------

    Doubly Occupied:

       1A    -20.583914     2A    -20.580981     3A    -11.366639
       4A    -11.365892     5A    -11.289292     6A    -11.288413
       7A    -11.287326     8A    -11.285638     9A     -1.418973
      10A     -1.402640    11A     -1.159207    12A     -1.075034
      13A     -0.968999    14A     -0.875164    15A     -0.831238
      16A     -0.716471    17A     -0.714298    18A     -0.690857
      19A     -0.641036    20A     -0.631962    21A     -0.605442
      22A     -0.595439    23A     -0.586248    24A     -0.553913
      25A     -0.467067    26A     -0.445553    27A     -0.416533
      28A     -0.410615

  @DF-RHF Final Energy:  -379.36490428792018

   => Energetics <=

    Nuclear Repulsion Energy =            321.4596073214343050
    One-Electron Energy =               -1153.1394539524073934
    Two-Electron Energy =                 452.3149423430529055
    Total Energy =                       -379.3649042879201829
  Basis Set: (AUG-CC-PVTZ AUX)
    Blend: AUG-CC-PVTZ-RI
    Molecular point group: c1

    Geometry (in Angstrom), charge = 0, multiplicity = 1:

       Center              X                  Y                   Z               Mass
    ------------   -----------------  -----------------  -----------------  -----------------
         O           -2.676106346332     0.001507249563    -0.000014016800    15.994914619570
         O            2.680991653668     0.001507249563    -0.000051016800    15.994914619570
         C           -1.460512446332    -0.012060650437     0.000013283200    12.000000000000
         C            1.443409653668     0.001507249563    -0.000016016800    12.000000000000
         C            0.677036653668    -1.265127750437     0.000003983200    12.000000000000
         C           -0.672152346332    -1.265128750437     0.000044983200    12.000000000000
         C            0.677037653668     1.268143249563    -0.000005016800    12.000000000000
         C           -0.672151346332     1.268142249563     0.000035983200    12.000000000000
         H            1.261864653668    -2.181419750437     0.000006983200     1.007825032230
         H            1.261862653668     2.184436249563    -0.000009016800     1.007825032230
         H           -1.256978346332    -2.181421750437     0.000064983200     1.007825032230
         H           -1.256979346332     2.184434249563     0.000049983200     1.007825032230

  Basis Set: AUG-CC-PVTZ
    Blend: AUG-CC-PVTZ
  Basis Set: (AUG-CC-PVTZ AUX)
    Blend: AUG-CC-PVTZ-JKFIT
	 Reference Energy          =    -379.3649042879201829 [Eh]
	 Singles Energy            =      -0.0000000000000000 [Eh]
	 Same-Spin Energy          =      -0.3771144971570120 [Eh]
	 Opposite-Spin Energy      =      -1.1625832989526592 [Eh]
	 Correlation Energy        =      -1.5396977961096712 [Eh]
	 Total Energy              =    -380.9046020840298752 [Eh]

	 ================> DF-SCS-MP2 Energies <==================
	-----------------------------------------------------------
	 SCS Same-Spin Scale       =       0.3333333333333333 [-]
	 SCS Opposite-Spin Scale   =       1.2000000000000000 [-]
	 SCS Same-Spin Energy      =      -0.1257048323856707 [Eh]
	 SCS Opposite-Spin Energy  =      -1.3950999587431909 [Eh]
	 SCS Correlation Energy    =      -1.5208047911288616 [Eh]
	 SCS Total Energy          =    -380.8857090790490361 [Eh]
	-----------------------------------------------------------

  Dipole Moment: [D]
     X:    -0.0996      Y:    -0.0518      Z:     0.0001     Total:     0.1122

*** Psi4 exiting successfully. Buy a developer a beer!
