                               Psi4 1.3.2 release

  ==> Input File <==

--------------------------------------------------------------------------
#psi4
#
memory 32 gb

molecule  {
0 1
  O       -2.6785490     0.0000000    -0.0000150
  O        2.6785490     0.0000000    -0.0000520
  C       -1.5409660     0.0000000     0.0000089
  C        1.4409670     0.0000000    -0.0000170
  C        0.6745940    -1.2666350     0.0000030
  C       -0.6745950    -1.2666360     0.0000440
  C        0.6745950     1.2666360    -0.0000060
  C       -0.6745940     1.2666350     0.0000350
  H        1.2594220    -2.1829270     0.0000060
  H        1.2594200     2.1829290    -0.0000100
  H       -1.2594210    -2.1829290     0.0000640
  H       -1.2594220     2.1829270     0.0000490
units angstrom
no_reorient  #important for SAPT in psi4, default
symmetry c1  #important for SAPT in psi4, default
}

set PROPERTIES_ORIGIN ["COM"]
properties('MP2/aug-cc-pvtz', properties = ['dipole'])
--------------------------------------------------------------------------

    Molecular point group: c1
  Charge       = 0
  Multiplicity = 1
  Basis Set: AUG-CC-PVTZ
    Blend: AUG-CC-PVTZ
  Basis Set: (AUG-CC-PVTZ AUX)
    Blend: AUG-CC-PVTZ-JKFIT

    Orbital Energies [Eh]
    ---------------------

    Doubly Occupied:

       1A    -20.589770     2A    -20.575840     3A    -11.364840
       4A    -11.361501     5A    -11.285158     6A    -11.285130
       7A    -11.282485     8A    -11.282466     9A     -1.477669
      10A     -1.398077    11A     -1.148886    12A     -1.067698
      13A     -0.959087    14A     -0.869285    15A     -0.824179
      16A     -0.721011    17A     -0.719524    18A     -0.693895
      19A     -0.636405    20A     -0.633830    21A     -0.614609
      22A     -0.606829    23A     -0.593431    24A     -0.562849
      25A     -0.463064    26A     -0.431141    27A     -0.418741
      28A     -0.406022

  @DF-RHF Final Energy:  -379.35783786796856

   => Energetics <=

    Nuclear Repulsion Energy =            321.4500373584928639
    One-Electron Energy =               -1153.0689059058775001
    Two-Electron Energy =                 452.2610306794160806
    Total Energy =                       -379.3578378679685557
  Basis Set: (AUG-CC-PVTZ AUX)
    Blend: AUG-CC-PVTZ-RI
    Molecular point group: c1

    Geometry (in Angstrom), charge = 0, multiplicity = 1:

       Center              X                  Y                   Z               Mass
    ------------   -----------------  -----------------  -----------------  -----------------
         O           -2.667440164026     0.000000000000    -0.000013639096    15.994914619570
         O            2.689657835974     0.000000000000    -0.000050639096    15.994914619570
         C           -1.529857164026     0.000000000000     0.000010260904    12.000000000000
         C            1.452075835974     0.000000000000    -0.000015639096    12.000000000000
         C            0.685702835974    -1.266635000000     0.000004360904    12.000000000000
         C           -0.663486164026    -1.266636000000     0.000045360904    12.000000000000
         C            0.685703835974     1.266636000000    -0.000004639096    12.000000000000
         C           -0.663485164026     1.266635000000     0.000036360904    12.000000000000
         H            1.270530835974    -2.182927000000     0.000007360904     1.007825032230
         H            1.270528835974     2.182929000000    -0.000008639096     1.007825032230
         H           -1.248312164026    -2.182929000000     0.000065360904     1.007825032230
         H           -1.248313164026     2.182927000000     0.000050360904     1.007825032230

  Basis Set: AUG-CC-PVTZ
    Blend: AUG-CC-PVTZ
  Basis Set: (AUG-CC-PVTZ AUX)
    Blend: AUG-CC-PVTZ-JKFIT
	 Reference Energy          =    -379.3578378679685557 [Eh]
	 Singles Energy            =      -0.0000000000000000 [Eh]
	 Same-Spin Energy          =      -0.3745243701786782 [Eh]
	 Opposite-Spin Energy      =      -1.1574540162533928 [Eh]
	 Correlation Energy        =      -1.5319783864320711 [Eh]
	 Total Energy              =    -380.8898162544006141 [Eh]

	 ================> DF-SCS-MP2 Energies <==================
	-----------------------------------------------------------
	 SCS Same-Spin Scale       =       0.3333333333333333 [-]
	 SCS Opposite-Spin Scale   =       1.2000000000000000 [-]
	 SCS Same-Spin Energy      =      -0.1248414567262261 [Eh]
	 SCS Opposite-Spin Energy  =      -1.3889448195040714 [Eh]
	 SCS Correlation Energy    =      -1.5137862762302976 [Eh]
	 SCS Total Energy          =    -380.8716241441988473 [Eh]
	-----------------------------------------------------------

  Dipole Moment: [D]
     X:    -0.5644      Y:     0.0000      Z:     0.0001     Total:     0.5644

*** Psi4 exiting successfully. Buy a developer a beer!
