                               Psi4 1.3.2 release

  ==> Input File <==

--------------------------------------------------------------------------
#psi4
#
memory 32 gb

molecule  {
0 1
  O       -2.6785490     0.0000000    -0.0000150
  O        2.6785490     0.0000000    -0.0000520
  C       -1.4409660     0.0000000     0.0000110
  C        1.4409670     0.0000000    -0.0000170
  C        0.6672031    -1.4076637     0.0000036
  C       -0.6745950    -1.2666360     0.0000440
  C        0.6745950     1.2666360    -0.0000060
  C       -0.6745940     1.2666350     0.0000350
  H        1.2594220    -2.1829270     0.0000060
  H        1.2594200     2.1829290    -0.0000100
  H       -1.2594210    -2.1829290     0.0000640
  H       -1.2594220     2.1829270     0.0000490
units angstrom
no_reorient  #important for SAPT in psi4, default
symmetry c1  #important for SAPT in psi4, default
}

set PROPERTIES_ORIGIN ["COM"]
properties('MP2/aug-cc-pvtz', properties = ['dipole'])
--------------------------------------------------------------------------

    Molecular point group: c1
  Charge       = 0
  Multiplicity = 1
  Basis Set: AUG-CC-PVTZ
    Blend: AUG-CC-PVTZ
  Basis Set: (AUG-CC-PVTZ AUX)
    Blend: AUG-CC-PVTZ-JKFIT

    Orbital Energies [Eh]
    ---------------------

    Doubly Occupied:

       1A    -20.582949     2A    -20.580850     3A    -11.372172
       4A    -11.370466     5A    -11.292060     6A    -11.290313
       7A    -11.290022     8A    -11.284572     9A     -1.404881
      10A     -1.400488    11A     -1.153597    12A     -1.078820
      13A     -0.962439    14A     -0.881285    15A     -0.827816
      16A     -0.725373    17A     -0.712231    18A     -0.694281
      19A     -0.652949    20A     -0.630672    21A     -0.605233
      22A     -0.588980    23A     -0.579755    24A     -0.547922
      25A     -0.467247    26A     -0.438005    27A     -0.415422
      28A     -0.413199

  @DF-RHF Final Energy:  -379.34167275046030

   => Energetics <=

    Nuclear Repulsion Energy =            319.4761400576469441
    One-Electron Energy =               -1149.1476230013615805
    Two-Electron Energy =                 450.3298101932543318
    Total Energy =                       -379.3416727504603045
  Basis Set: (AUG-CC-PVTZ AUX)
    Blend: AUG-CC-PVTZ-RI
    Molecular point group: c1

    Geometry (in Angstrom), charge = 0, multiplicity = 1:

       Center              X                  Y                   Z               Mass
    ------------   -----------------  -----------------  -----------------  -----------------
         O           -2.677728051281     0.015666790469    -0.000013939038    15.994914619570
         O            2.679369948719     0.015666790469    -0.000050939038    15.994914619570
         C           -1.440145051281     0.015666790469     0.000012060962    12.000000000000
         C            1.441787948719     0.015666790469    -0.000015939038    12.000000000000
         C            0.668024048719    -1.391996909531     0.000004660962    12.000000000000
         C           -0.673774051281    -1.250969209531     0.000045060962    12.000000000000
         C            0.675415948719     1.282302790469    -0.000004939038    12.000000000000
         C           -0.673773051281     1.282301790469     0.000036060962    12.000000000000
         H            1.260242948719    -2.167260209531     0.000007060962     1.007825032230
         H            1.260240948719     2.198595790469    -0.000008939038     1.007825032230
         H           -1.258600051281    -2.167262209531     0.000065060962     1.007825032230
         H           -1.258601051281     2.198593790469     0.000050060962     1.007825032230

  Basis Set: AUG-CC-PVTZ
    Blend: AUG-CC-PVTZ
  Basis Set: (AUG-CC-PVTZ AUX)
    Blend: AUG-CC-PVTZ-JKFIT
	 Reference Energy          =    -379.3416727504603045 [Eh]
	 Singles Energy            =      -0.0000000000000000 [Eh]
	 Same-Spin Energy          =      -0.3773216397581551 [Eh]
	 Opposite-Spin Energy      =      -1.1645944694492032 [Eh]
	 Correlation Energy        =      -1.5419161092073583 [Eh]
	 Total Energy              =    -380.8835888596676682 [Eh]

	 ================> DF-SCS-MP2 Energies <==================
	-----------------------------------------------------------
	 SCS Same-Spin Scale       =       0.3333333333333333 [-]
	 SCS Opposite-Spin Scale   =       1.2000000000000000 [-]
	 SCS Same-Spin Energy      =      -0.1257738799193850 [Eh]
	 SCS Opposite-Spin Energy  =      -1.3975133633390437 [Eh]
	 SCS Correlation Energy    =      -1.5232872432584288 [Eh]
	 SCS Total Energy          =    -380.8649599937187418 [Eh]
	-----------------------------------------------------------

  Dipole Moment: [D]
     X:     0.1405      Y:     0.1138      Z:     0.0001     Total:     0.1808

*** Psi4 exiting successfully. Buy a developer a beer!
