                               Psi4 1.3.2 release

  ==> Input File <==

--------------------------------------------------------------------------
#psi4
#
memory 32 gb

molecule  {
0 1
  O       -2.6785490     0.0000000    -0.0000150
  O        2.6785490     0.0000000    -0.0000520
  C       -1.4409660     0.0000000     0.0000110
  C        1.4409670     0.0000000    -0.0000170
  C        0.6745940    -1.2666350     0.0000030
  C       -0.4745950    -1.2666359     0.0000379
  C        0.6745950     1.2666360    -0.0000060
  C       -0.6745940     1.2666350     0.0000350
  H        1.2594220    -2.1829270     0.0000060
  H        1.2594200     2.1829290    -0.0000100
  H       -1.2594210    -2.1829290     0.0000640
  H       -1.2594220     2.1829270     0.0000490
units angstrom
no_reorient  #important for SAPT in psi4, default
symmetry c1  #important for SAPT in psi4, default
}

set PROPERTIES_ORIGIN ["COM"]
properties('MP2/aug-cc-pvtz', properties = ['dipole'])
--------------------------------------------------------------------------

    Molecular point group: c1
  Charge       = 0
  Multiplicity = 1
  Basis Set: AUG-CC-PVTZ
    Blend: AUG-CC-PVTZ
  Basis Set: (AUG-CC-PVTZ AUX)
    Blend: AUG-CC-PVTZ-JKFIT

    Orbital Energies [Eh]
    ---------------------

    Doubly Occupied:

       1A    -20.589665     2A    -20.580918     3A    -11.376184
       4A    -11.366164     5A    -11.290370     6A    -11.287156
       7A    -11.273818     8A    -11.251541     9A     -1.405651
      10A     -1.402300    11A     -1.189634    12A     -1.100913
      13A     -0.958397    14A     -0.854062    15A     -0.844831
      16A     -0.722535    17A     -0.717966    18A     -0.681378
      19A     -0.651612    20A     -0.617961    21A     -0.611885
      22A     -0.599356    23A     -0.559236    24A     -0.549750
      25A     -0.471142    26A     -0.463095    27A     -0.423898
      28A     -0.414663

  @DF-RHF Final Energy:  -379.29392688108658

   => Energetics <=

    Nuclear Repulsion Energy =            323.3248212952713629
    One-Electron Energy =               -1156.7253327491603159
    Two-Electron Energy =                 454.1065845728023760
    Total Energy =                       -379.2939268810865769
  Basis Set: (AUG-CC-PVTZ AUX)
    Blend: AUG-CC-PVTZ-RI
    Molecular point group: c1

    Geometry (in Angstrom), charge = 0, multiplicity = 1:

       Center              X                  Y                   Z               Mass
    ------------   -----------------  -----------------  -----------------  -----------------
         O           -2.700766977226    -0.000000011109    -0.000013194739    15.994914619570
         O            2.656331022774    -0.000000011109    -0.000050194739    15.994914619570
         C           -1.463183977226    -0.000000011109     0.000012805261    12.000000000000
         C            1.418749022774    -0.000000011109    -0.000015194739    12.000000000000
         C            0.652376022774    -1.266635011109     0.000004805261    12.000000000000
         C           -0.496812977226    -1.266635911109     0.000039705261    12.000000000000
         C            0.652377022774     1.266635988891    -0.000004194739    12.000000000000
         C           -0.696811977226     1.266634988891     0.000036805261    12.000000000000
         H            1.237204022774    -2.182927011109     0.000007805261     1.007825032230
         H            1.237202022774     2.182928988891    -0.000008194739     1.007825032230
         H           -1.281638977226    -2.182929011109     0.000065805261     1.007825032230
         H           -1.281639977226     2.182926988891     0.000050805261     1.007825032230

  Basis Set: AUG-CC-PVTZ
    Blend: AUG-CC-PVTZ
  Basis Set: (AUG-CC-PVTZ AUX)
    Blend: AUG-CC-PVTZ-JKFIT
	 Reference Energy          =    -379.2939268810865769 [Eh]
	 Singles Energy            =      -0.0000000000000000 [Eh]
	 Same-Spin Energy          =      -0.3773240185413960 [Eh]
	 Opposite-Spin Energy      =      -1.1620690041908279 [Eh]
	 Correlation Energy        =      -1.5393930227322239 [Eh]
	 Total Energy              =    -380.8333199038187900 [Eh]

	 ================> DF-SCS-MP2 Energies <==================
	-----------------------------------------------------------
	 SCS Same-Spin Scale       =       0.3333333333333333 [-]
	 SCS Opposite-Spin Scale   =       1.2000000000000000 [-]
	 SCS Same-Spin Energy      =      -0.1257746728471320 [Eh]
	 SCS Opposite-Spin Energy  =      -1.3944828050289935 [Eh]
	 SCS Correlation Energy    =      -1.5202574778761255 [Eh]
	 SCS Total Energy          =    -380.8141843589626774 [Eh]
	-----------------------------------------------------------

  Dipole Moment: [D]
     X:    -0.0727      Y:     0.2610      Z:     0.0001     Total:     0.2710

*** Psi4 exiting successfully. Buy a developer a beer!
