                               Psi4 1.3.2 release

  ==> Input File <==

--------------------------------------------------------------------------
#psi4
#
memory 32 gb

molecule  {
0 1
  O       -2.6785490     0.0000000    -0.0000150
  O        2.6785490     0.0000000    -0.0000520
  C       -1.6409660     0.0000000     0.0000068
  C        1.4409670     0.0000000    -0.0000170
  C        0.6745940    -1.2666350     0.0000030
  C       -0.6745950    -1.2666360     0.0000440
  C        0.6745950     1.2666360    -0.0000060
  C       -0.6745940     1.2666350     0.0000350
  H        1.2594220    -2.1829270     0.0000060
  H        1.2594200     2.1829290    -0.0000100
  H       -1.2594210    -2.1829290     0.0000640
  H       -1.2594220     2.1829270     0.0000490
units angstrom
no_reorient  #important for SAPT in psi4, default
symmetry c1  #important for SAPT in psi4, default
}

set PROPERTIES_ORIGIN ["COM"]
properties('MP2/aug-cc-pvtz', properties = ['dipole'])
--------------------------------------------------------------------------

    Molecular point group: c1
  Charge       = 0
  Multiplicity = 1
  Basis Set: AUG-CC-PVTZ
    Blend: AUG-CC-PVTZ
  Basis Set: (AUG-CC-PVTZ AUX)
    Blend: AUG-CC-PVTZ-JKFIT

    Orbital Energies [Eh]
    ---------------------

    Doubly Occupied:

       1A    -20.599890     2A    -20.568635     3A    -11.362622
       4A    -11.355041     5A    -11.278958     6A    -11.278930
       7A    -11.275726     8A    -11.275706     9A     -1.564806
      10A     -1.391483    11A     -1.135407    12A     -1.058173
      13A     -0.944631    14A     -0.863951    15A     -0.814676
      16A     -0.743831    17A     -0.733106    18A     -0.690464
      19A     -0.667412    20A     -0.637275    21A     -0.627501
      22A     -0.603331    23A     -0.601201    24A     -0.561841
      25A     -0.455707    26A     -0.416679    27A     -0.405757
      28A     -0.398907

  @DF-RHF Final Energy:  -379.30020305039903

   => Energetics <=

    Nuclear Repulsion Energy =            321.7898498948429165
    One-Electron Energy =               -1153.5568147928770486
    Two-Electron Energy =                 452.4667618476350412
    Total Energy =                       -379.3002030503990341
  Basis Set: (AUG-CC-PVTZ AUX)
    Blend: AUG-CC-PVTZ-RI
    Molecular point group: c1

    Geometry (in Angstrom), charge = 0, multiplicity = 1:

       Center              X                  Y                   Z               Mass
    ------------   -----------------  -----------------  -----------------  -----------------
         O           -2.656331226293     0.000000000000    -0.000013405809    15.994914619570
         O            2.700766773707     0.000000000000    -0.000050405809    15.994914619570
         C           -1.618748226293     0.000000000000     0.000008394191    12.000000000000
         C            1.463184773707     0.000000000000    -0.000015405809    12.000000000000
         C            0.696811773707    -1.266635000000     0.000004594191    12.000000000000
         C           -0.652377226293    -1.266636000000     0.000045594191    12.000000000000
         C            0.696812773707     1.266636000000    -0.000004405809    12.000000000000
         C           -0.652376226293     1.266635000000     0.000036594191    12.000000000000
         H            1.281639773707    -2.182927000000     0.000007594191     1.007825032230
         H            1.281637773707     2.182929000000    -0.000008405809     1.007825032230
         H           -1.237203226293    -2.182929000000     0.000065594191     1.007825032230
         H           -1.237204226293     2.182927000000     0.000050594191     1.007825032230

  Basis Set: AUG-CC-PVTZ
    Blend: AUG-CC-PVTZ
  Basis Set: (AUG-CC-PVTZ AUX)
    Blend: AUG-CC-PVTZ-JKFIT
	 Reference Energy          =    -379.3002030503990341 [Eh]
	 Singles Energy            =      -0.0000000000000000 [Eh]
	 Same-Spin Energy          =      -0.3721514836989075 [Eh]
	 Opposite-Spin Energy      =      -1.1526170110697205 [Eh]
	 Correlation Energy        =      -1.5247684947686280 [Eh]
	 Total Energy              =    -380.8249715451676707 [Eh]

	 ================> DF-SCS-MP2 Energies <==================
	-----------------------------------------------------------
	 SCS Same-Spin Scale       =       0.3333333333333333 [-]
	 SCS Opposite-Spin Scale   =       1.2000000000000000 [-]
	 SCS Same-Spin Energy      =      -0.1240504945663025 [Eh]
	 SCS Opposite-Spin Energy  =      -1.3831404132836644 [Eh]
	 SCS Correlation Energy    =      -1.5071909078499670 [Eh]
	 SCS Total Energy          =    -380.8073939582490084 [Eh]
	-----------------------------------------------------------

  Dipole Moment: [D]
     X:    -1.3875      Y:     0.0000      Z:     0.0001     Total:     1.3875

*** Psi4 exiting successfully. Buy a developer a beer!
