                               Psi4 1.3.2 release

  ==> Input File <==

--------------------------------------------------------------------------
#psi4
#
memory 32 gb

molecule  {
0 1
  O       -2.6785490     0.0000000    -0.0000150
  O        2.6785490     0.0000000    -0.0000520
  C       -1.3507431     0.0503739     0.0000060
  C        1.4409670     0.0000000    -0.0000170
  C        0.6745940    -1.2666350     0.0000030
  C       -0.6745950    -1.2666360     0.0000440
  C        0.6745950     1.2666360    -0.0000060
  C       -0.6745940     1.2666350     0.0000350
  H        1.2594220    -2.1829270     0.0000060
  H        1.2594200     2.1829290    -0.0000100
  H       -1.2594210    -2.1829290     0.0000640
  H       -1.2594220     2.1829270     0.0000490
units angstrom
no_reorient  #important for SAPT in psi4, default
symmetry c1  #important for SAPT in psi4, default
}

set PROPERTIES_ORIGIN ["COM"]
properties('MP2/aug-cc-pvtz', properties = ['dipole'])
--------------------------------------------------------------------------

    Molecular point group: c1
  Charge       = 0
  Multiplicity = 1
  Basis Set: AUG-CC-PVTZ
    Blend: AUG-CC-PVTZ
  Basis Set: (AUG-CC-PVTZ AUX)
    Blend: AUG-CC-PVTZ-JKFIT

    Orbital Energies [Eh]
    ---------------------

    Doubly Occupied:

       1A    -20.588236     2A    -20.575521     3A    -11.371712
       4A    -11.367957     5A    -11.299780     6A    -11.292941
       7A    -11.287659     8A    -11.287648     9A     -1.409248
      10A     -1.349167    11A     -1.173944    12A     -1.085960
      13A     -0.981877    14A     -0.884041    15A     -0.839709
      16A     -0.720789    17A     -0.713723    18A     -0.685099
      19A     -0.653052    20A     -0.630950    21A     -0.593341
      22A     -0.587672    23A     -0.577335    24A     -0.534158
      25A     -0.467095    26A     -0.457941    27A     -0.416340
      28A     -0.405630

  @DF-RHF Final Energy:  -379.33591356630438

   => Energetics <=

    Nuclear Repulsion Energy =            321.8059323647049723
    One-Electron Energy =               -1153.8066409454779659
    Two-Electron Energy =                 452.6647950144686092
    Total Energy =                       -379.3359135663043844
  Basis Set: (AUG-CC-PVTZ AUX)
    Blend: AUG-CC-PVTZ-RI
    Molecular point group: c1

    Geometry (in Angstrom), charge = 0, multiplicity = 1:

       Center              X                  Y                   Z               Mass
    ------------   -----------------  -----------------  -----------------  -----------------
         O           -2.688571907541    -0.005596005185    -0.000013316937    15.994914619570
         O            2.668526092459    -0.005596005185    -0.000050316937    15.994914619570
         C           -1.360766007541     0.044777894815     0.000007683063    12.000000000000
         C            1.430944092459    -0.005596005185    -0.000015316937    12.000000000000
         C            0.664571092459    -1.272231005185     0.000004683063    12.000000000000
         C           -0.684617907541    -1.272232005185     0.000045683063    12.000000000000
         C            0.664572092459     1.261039994815    -0.000004316937    12.000000000000
         C           -0.684616907541     1.261038994815     0.000036683063    12.000000000000
         H            1.249399092459    -2.188523005185     0.000007683063     1.007825032230
         H            1.249397092459     2.177332994815    -0.000008316937     1.007825032230
         H           -1.269443907541    -2.188525005185     0.000065683063     1.007825032230
         H           -1.269444907541     2.177330994815     0.000050683063     1.007825032230

  Basis Set: AUG-CC-PVTZ
    Blend: AUG-CC-PVTZ
  Basis Set: (AUG-CC-PVTZ AUX)
    Blend: AUG-CC-PVTZ-JKFIT
	 Reference Energy          =    -379.3359135663043844 [Eh]
	 Singles Energy            =      -0.0000000000000000 [Eh]
	 Same-Spin Energy          =      -0.3822236466848132 [Eh]
	 Opposite-Spin Energy      =      -1.1725691662235314 [Eh]
	 Correlation Energy        =      -1.5547928129083446 [Eh]
	 Total Energy              =    -380.8907063792127019 [Eh]

	 ================> DF-SCS-MP2 Energies <==================
	-----------------------------------------------------------
	 SCS Same-Spin Scale       =       0.3333333333333333 [-]
	 SCS Opposite-Spin Scale   =       1.2000000000000000 [-]
	 SCS Same-Spin Energy      =      -0.1274078822282710 [Eh]
	 SCS Opposite-Spin Energy  =      -1.4070829994682377 [Eh]
	 SCS Correlation Energy    =      -1.5344908816965086 [Eh]
	 SCS Total Energy          =    -380.8704044480008974 [Eh]
	-----------------------------------------------------------

  Dipole Moment: [D]
     X:     0.2434      Y:     0.1696      Z:     0.0001     Total:     0.2967

*** Psi4 exiting successfully. Buy a developer a beer!
