                               Psi4 1.4a3.dev225

  ==> Input File <==

--------------------------------------------------------------------------
#psi4
#
memory 32 gb

molecule  {
0 1
  O       -2.6785490     0.0000000    -0.0000150
  O        2.6785490     0.0000000    -0.0000520
  C       -1.4409660     0.0000000     0.0000110
  C        1.4409670     0.0000000    -0.0000170
  C        0.6745940    -1.2666350     0.0000030
  C       -0.6487117    -1.3094151     0.0000451
  C        0.6745950     1.2666360    -0.0000060
  C       -0.6745940     1.2666350     0.0000350
  H        1.2594220    -2.1829270     0.0000060
  H        1.2594200     2.1829290    -0.0000100
  H       -1.2594210    -2.1829290     0.0000640
  H       -1.2594220     2.1829270     0.0000490
units angstrom
no_reorient  #important for SAPT in psi4, default
symmetry c1  #important for SAPT in psi4, default
}

set PROPERTIES_ORIGIN ["COM"]
properties('MP2/aug-cc-pvtz', properties = ['dipole'])
--------------------------------------------------------------------------

    Molecular point group: c1
  Charge       = 0
  Multiplicity = 1
  Basis Set: AUG-CC-PVTZ
    Blend: AUG-CC-PVTZ
  Basis Set: (AUG-CC-PVTZ AUX)
    Blend: AUG-CC-PVTZ-JKFIT

    Orbital Energies [Eh]
    ---------------------

    Doubly Occupied:

       1A    -20.582815     2A    -20.582151     3A    -11.369882
       4A    -11.367737     5A    -11.290067     6A    -11.288471
       7A    -11.287254     8A    -11.282445     9A     -1.404795
      10A     -1.402102    11A     -1.161188    12A     -1.080574
      13A     -0.966186    14A     -0.874383    15A     -0.833300
      16A     -0.715808    17A     -0.714780    18A     -0.690632
      19A     -0.646416    20A     -0.628980    21A     -0.605815
      22A     -0.592224    23A     -0.583535    24A     -0.549079
      25A     -0.467631    26A     -0.444658    27A     -0.419355
      28A     -0.413641

  @DF-RHF Final Energy:  -379.36207324309004

   => Energetics <=

    Nuclear Repulsion Energy =            321.0503954628172778
    One-Electron Energy =               -1152.3331335785187548
    Two-Electron Energy =                 451.9206648726114395
    Total Energy =                       -379.3620732430900375
  Basis Set: (AUG-CC-PVTZ AUX)
    Blend: AUG-CC-PVTZ-RI
    Molecular point group: c1

    Geometry (in Angstrom), charge = 0, multiplicity = 1:

       Center              X                  Y                   Z               Mass
    ------------   -----------------  -----------------  -----------------  -----------------
         O           -2.681424461440     0.004752303582    -0.000013994582    15.994914619570
         O            2.675673538560     0.004752303582    -0.000050994582    15.994914619570
         C           -1.443841461440     0.004752303582     0.000012005418    12.000000000000
         C            1.438091538560     0.004752303582    -0.000015994582    12.000000000000
         C            0.671718538560    -1.261882696418     0.000004005418    12.000000000000
         C           -0.651587161440    -1.304662796418     0.000046105418    12.000000000000
         C            0.671719538560     1.271388303582    -0.000004994582    12.000000000000
         C           -0.677469461440     1.271387303582     0.000036005418    12.000000000000
         H            1.256546538560    -2.178174696418     0.000007005418     1.007825032230
         H            1.256544538560     2.187681303582    -0.000008994582     1.007825032230
         H           -1.262296461440    -2.178176696418     0.000065005418     1.007825032230
         H           -1.262297461440     2.187679303582     0.000050005418     1.007825032230

  Basis Set: AUG-CC-PVTZ
    Blend: AUG-CC-PVTZ
  Basis Set: (AUG-CC-PVTZ AUX)
    Blend: AUG-CC-PVTZ-JKFIT
	 Reference Energy          =    -379.3620732430900375 [Eh]
	 Singles Energy            =      -0.0000000000000000 [Eh]
	 Same-Spin Energy          =      -0.3773114035915884 [Eh]
	 Opposite-Spin Energy      =      -1.1632790231589369 [Eh]
	 Correlation Energy        =      -1.5405904267505253 [Eh]
	 Total Energy              =    -380.9026636698405355 [Eh]

	 ================> DF-SCS-MP2 Energies <==================
	-----------------------------------------------------------
	 SCS Same-Spin Scale       =       0.3333333333333333 [-]
	 SCS Opposite-Spin Scale   =       1.2000000000000000 [-]
	 SCS Same-Spin Energy      =      -0.1257704678638628 [Eh]
	 SCS Opposite-Spin Energy  =      -1.3959348277907242 [Eh]
	 SCS Correlation Energy    =      -1.5217052956545869 [Eh]
	 SCS Total Energy          =    -380.8837785387446502 [Eh]
	-----------------------------------------------------------

  Dipole Moment: [D]
     X:    -0.0609      Y:     0.0553      Z:     0.0001     Total:     0.0823

*** Psi4 exiting successfully. Buy a developer a beer!
