                               Psi4 1.4a3.dev225

  ==> Input File <==

--------------------------------------------------------------------------
#psi4
#
memory 32 gb

molecule  {
0 1
  O       -2.6785490     0.0000000    -0.0000150
  O        2.6785490     0.0000000    -0.0000520
  C       -1.3909660     0.0000000     0.0000121
  C        1.4409670     0.0000000    -0.0000170
  C        0.6745940    -1.2666350     0.0000030
  C       -0.6745950    -1.2666360     0.0000440
  C        0.6745950     1.2666360    -0.0000060
  C       -0.6745940     1.2666350     0.0000350
  H        1.2594220    -2.1829270     0.0000060
  H        1.2594200     2.1829290    -0.0000100
  H       -1.2594210    -2.1829290     0.0000640
  H       -1.2594220     2.1829270     0.0000490
units angstrom
no_reorient  #important for SAPT in psi4, default
symmetry c1  #important for SAPT in psi4, default
}

set PROPERTIES_ORIGIN ["COM"]
properties('MP2/aug-cc-pvtz', properties = ['dipole'])
--------------------------------------------------------------------------

    Molecular point group: c1
  Charge       = 0
  Multiplicity = 1
  Basis Set: AUG-CC-PVTZ
    Blend: AUG-CC-PVTZ
  Basis Set: (AUG-CC-PVTZ AUX)
    Blend: AUG-CC-PVTZ-JKFIT

    Orbital Energies [Eh]
    ---------------------

    Doubly Occupied:

       1A    -20.585542     2A    -20.578829     3A    -11.369600
       4A    -11.367800     5A    -11.291676     6A    -11.291646
       7A    -11.289437     8A    -11.289419     9A     -1.406877
      10A     -1.372479    11A     -1.168212    12A     -1.081993
      13A     -0.976630    14A     -0.881110    15A     -0.837108
      16A     -0.716162    17A     -0.715673    18A     -0.686632
      19A     -0.648552    20A     -0.630306    21A     -0.593312
      22A     -0.592368    23A     -0.583516    24A     -0.540338
      25A     -0.468073    26A     -0.454947    27A     -0.414449
      28A     -0.410675

  @DF-RHF Final Energy:  -379.35251627490845

   => Energetics <=

    Nuclear Repulsion Energy =            321.6388568718623446
    One-Electron Energy =               -1153.4960220637465227
    Two-Electron Energy =                 452.5046489169757251
    Total Energy =                       -379.3525162749084529
  Basis Set: (AUG-CC-PVTZ AUX)
    Blend: AUG-CC-PVTZ-RI
    Molecular point group: c1

    Geometry (in Angstrom), charge = 0, multiplicity = 1:

       Center              X                  Y                   Z               Mass
    ------------   -----------------  -----------------  -----------------  -----------------
         O           -2.684103570626     0.000000000000    -0.000013994582    15.994914619570
         O            2.672994429374     0.000000000000    -0.000050994582    15.994914619570
         C           -1.396520570626     0.000000000000     0.000013105418    12.000000000000
         C            1.435412429374     0.000000000000    -0.000015994582    12.000000000000
         C            0.669039429374    -1.266635000000     0.000004005418    12.000000000000
         C           -0.680149570626    -1.266636000000     0.000045005418    12.000000000000
         C            0.669040429374     1.266636000000    -0.000004994582    12.000000000000
         C           -0.680148570626     1.266635000000     0.000036005418    12.000000000000
         H            1.253867429374    -2.182927000000     0.000007005418     1.007825032230
         H            1.253865429374     2.182929000000    -0.000008994582     1.007825032230
         H           -1.264975570626    -2.182929000000     0.000065005418     1.007825032230
         H           -1.264976570626     2.182927000000     0.000050005418     1.007825032230

  Basis Set: AUG-CC-PVTZ
    Blend: AUG-CC-PVTZ
  Basis Set: (AUG-CC-PVTZ AUX)
    Blend: AUG-CC-PVTZ-JKFIT
	 Reference Energy          =    -379.3525162749084529 [Eh]
	 Singles Energy            =      -0.0000000000000000 [Eh]
	 Same-Spin Energy          =      -0.3801115757242767 [Eh]
	 Opposite-Spin Energy      =      -1.1684402001127059 [Eh]
	 Correlation Energy        =      -1.5485517758369824 [Eh]
	 Total Energy              =    -380.9010680507454367 [Eh]

	 ================> DF-SCS-MP2 Energies <==================
	-----------------------------------------------------------
	 SCS Same-Spin Scale       =       0.3333333333333333 [-]
	 SCS Opposite-Spin Scale   =       1.2000000000000000 [-]
	 SCS Same-Spin Energy      =      -0.1267038585747589 [Eh]
	 SCS Opposite-Spin Energy  =      -1.4021282401352471 [Eh]
	 SCS Correlation Energy    =      -1.5288320987100059 [Eh]
	 SCS Total Energy          =    -380.8813483736184367 [Eh]
	-----------------------------------------------------------

  Dipole Moment: [D]
     X:     0.1706      Y:     0.0000      Z:     0.0001     Total:     0.1706

*** Psi4 exiting successfully. Buy a developer a beer!
