                               Psi4 1.3.2 release

  ==> Input File <==

--------------------------------------------------------------------------
#psi4
#
memory 32 gb

molecule  {
0 1
  O       -2.6785490     0.0000000    -0.0000150
  O        2.6785490     0.0000000    -0.0000520
  C       -1.4409660     0.0000000     0.0000110
  C        1.4409670     0.0000000    -0.0000170
  C        0.6737721    -1.2195490     0.0000029
  C       -0.6745950    -1.2666360     0.0000440
  C        0.6745950     1.2666360    -0.0000060
  C       -0.6745940     1.2666350     0.0000350
  H        1.2594220    -2.1829270     0.0000060
  H        1.2594200     2.1829290    -0.0000100
  H       -1.2594210    -2.1829290     0.0000640
  H       -1.2594220     2.1829270     0.0000490
units angstrom
no_reorient  #important for SAPT in psi4, default
symmetry c1  #important for SAPT in psi4, default
}

set PROPERTIES_ORIGIN ["COM"]
properties('MP2/aug-cc-pvtz', properties = ['dipole'])
--------------------------------------------------------------------------

    Molecular point group: c1
  Charge       = 0
  Multiplicity = 1
  Basis Set: AUG-CC-PVTZ
    Blend: AUG-CC-PVTZ
  Basis Set: (AUG-CC-PVTZ AUX)
    Blend: AUG-CC-PVTZ-JKFIT

    Orbital Energies [Eh]
    ---------------------

    Doubly Occupied:

       1A    -20.582814     2A    -20.582512     3A    -11.366170
       4A    -11.364651     5A    -11.291347     6A    -11.288562
       7A    -11.288323     8A    -11.286909     9A     -1.405933
      10A     -1.403009    11A     -1.165782    12A     -1.076665
      13A     -0.976441    14A     -0.878077    15A     -0.833050
      16A     -0.718761    17A     -0.714559    18A     -0.686742
      19A     -0.640668    20A     -0.631262    21A     -0.602702
      22A     -0.595633    23A     -0.580565    24A     -0.550465
      25A     -0.468790    26A     -0.449535    27A     -0.415189
      28A     -0.411542

  @DF-RHF Final Energy:  -379.35941749908869

   => Energetics <=

    Nuclear Repulsion Energy =            322.2176667710685365
    One-Electron Energy =               -1154.6408467746859969
    Two-Electron Energy =                 453.0637625045288246
    Total Energy =                       -379.3594174990886927
  Basis Set: (AUG-CC-PVTZ AUX)
    Blend: AUG-CC-PVTZ-RI
    Molecular point group: c1

    Geometry (in Angstrom), charge = 0, multiplicity = 1:

       Center              X                  Y                   Z               Mass
    ------------   -----------------  -----------------  -----------------  -----------------
         O           -2.678457797400    -0.005230754421    -0.000013861275    15.994914619570
         O            2.678640202600    -0.005230754421    -0.000050861275    15.994914619570
         C           -1.440874797400    -0.005230754421     0.000012138725    12.000000000000
         C            1.441058202600    -0.005230754421    -0.000015861275    12.000000000000
         C            0.673863302600    -1.224779754421     0.000004038725    12.000000000000
         C           -0.674503797400    -1.271866754421     0.000045138725    12.000000000000
         C            0.674686202600     1.261405245579    -0.000004861275    12.000000000000
         C           -0.674502797400     1.261404245579     0.000036138725    12.000000000000
         H            1.259513202600    -2.188157754421     0.000007138725     1.007825032230
         H            1.259511202600     2.177698245579    -0.000008861275     1.007825032230
         H           -1.259329797400    -2.188159754421     0.000065138725     1.007825032230
         H           -1.259330797400     2.177696245579     0.000050138725     1.007825032230

  Basis Set: AUG-CC-PVTZ
    Blend: AUG-CC-PVTZ
  Basis Set: (AUG-CC-PVTZ AUX)
    Blend: AUG-CC-PVTZ-JKFIT
	 Reference Energy          =    -379.3594174990886927 [Eh]
	 Singles Energy            =      -0.0000000000000000 [Eh]
	 Same-Spin Energy          =      -0.3785324063224571 [Eh]
	 Opposite-Spin Energy      =      -1.1649968553425505 [Eh]
	 Correlation Energy        =      -1.5435292616650076 [Eh]
	 Total Energy              =    -380.9029467607537072 [Eh]

	 ================> DF-SCS-MP2 Energies <==================
	-----------------------------------------------------------
	 SCS Same-Spin Scale       =       0.3333333333333333 [-]
	 SCS Opposite-Spin Scale   =       1.2000000000000000 [-]
	 SCS Same-Spin Energy      =      -0.1261774687741524 [Eh]
	 SCS Opposite-Spin Energy  =      -1.3979962264110606 [Eh]
	 SCS Correlation Energy    =      -1.5241736951852130 [Eh]
	 SCS Total Energy          =    -380.8835911942738903 [Eh]
	-----------------------------------------------------------

  Dipole Moment: [D]
     X:    -0.0610      Y:    -0.0332      Z:     0.0001     Total:     0.0695

*** Psi4 exiting successfully. Buy a developer a beer!
