                               Psi4 1.4a3.dev225

  ==> Input File <==

--------------------------------------------------------------------------
#psi4
#
memory 32 gb

molecule  {
0 1
  O       -2.6785490     0.0000000    -0.0000150
  O        2.6785490     0.0000000    -0.0000520
  C       -1.4909660     0.0000000     0.0000099
  C        1.4409670     0.0000000    -0.0000170
  C        0.6745940    -1.2666350     0.0000030
  C       -0.6745950    -1.2666360     0.0000440
  C        0.6745950     1.2666360    -0.0000060
  C       -0.6745940     1.2666350     0.0000350
  H        1.2594220    -2.1829270     0.0000060
  H        1.2594200     2.1829290    -0.0000100
  H       -1.2594210    -2.1829290     0.0000640
  H       -1.2594220     2.1829270     0.0000490
units angstrom
no_reorient  #important for SAPT in psi4, default
symmetry c1  #important for SAPT in psi4, default
}

set PROPERTIES_ORIGIN ["COM"]
properties('MP2/aug-cc-pvtz', properties = ['dipole'])
--------------------------------------------------------------------------

    Molecular point group: c1
  Charge       = 0
  Multiplicity = 1
  Basis Set: AUG-CC-PVTZ
    Blend: AUG-CC-PVTZ
  Basis Set: (AUG-CC-PVTZ AUX)
    Blend: AUG-CC-PVTZ-JKFIT

    Orbital Energies [Eh]
    ---------------------

    Doubly Occupied:

       1A    -20.585911     2A    -20.579165     3A    -11.366029
       4A    -11.364366     5A    -11.287413     6A    -11.287384
       7A    -11.285383     8A    -11.285366     9A     -1.439045
      10A     -1.401067    11A     -1.155499    12A     -1.072395
      13A     -0.965532    14A     -0.872981    15A     -0.828804
      16A     -0.716873    17A     -0.715591    18A     -0.692497
      19A     -0.638295    20A     -0.633631    21A     -0.606987
      22A     -0.599818    23A     -0.588446    24A     -0.558394
      25A     -0.465926    26A     -0.440979    27A     -0.417744
      28A     -0.409090

  @DF-RHF Final Energy:  -379.36540013556964

   => Energetics <=

    Nuclear Repulsion Energy =            321.4321273519917099
    One-Electron Energy =               -1153.0738313762985854
    Two-Electron Energy =                 452.2763038887371749
    Total Energy =                       -379.3654001355696437
  Basis Set: (AUG-CC-PVTZ AUX)
    Blend: AUG-CC-PVTZ-RI
    Molecular point group: c1

    Geometry (in Angstrom), charge = 0, multiplicity = 1:

       Center              X                  Y                   Z               Mass
    ------------   -----------------  -----------------  -----------------  -----------------
         O           -2.672994632893     0.000000000000    -0.000013750186    15.994914619570
         O            2.684103367107     0.000000000000    -0.000050750186    15.994914619570
         C           -1.485411632893     0.000000000000     0.000011149814    12.000000000000
         C            1.446521367107     0.000000000000    -0.000015750186    12.000000000000
         C            0.680148367107    -1.266635000000     0.000004249814    12.000000000000
         C           -0.669040632893    -1.266636000000     0.000045249814    12.000000000000
         C            0.680149367107     1.266636000000    -0.000004750186    12.000000000000
         C           -0.669039632893     1.266635000000     0.000036249814    12.000000000000
         H            1.264976367107    -2.182927000000     0.000007249814     1.007825032230
         H            1.264974367107     2.182929000000    -0.000008750186     1.007825032230
         H           -1.253866632893    -2.182929000000     0.000065249814     1.007825032230
         H           -1.253867632893     2.182927000000     0.000050249814     1.007825032230

  Basis Set: AUG-CC-PVTZ
    Blend: AUG-CC-PVTZ
  Basis Set: (AUG-CC-PVTZ AUX)
    Blend: AUG-CC-PVTZ-JKFIT
	 Reference Energy          =    -379.3654001355696437 [Eh]
	 Singles Energy            =      -0.0000000000000000 [Eh]
	 Same-Spin Energy          =      -0.3760963113482327 [Eh]
	 Opposite-Spin Energy      =      -1.1605790215781271 [Eh]
	 Correlation Energy        =      -1.5366753329263598 [Eh]
	 Total Energy              =    -380.9020754684959797 [Eh]

	 ================> DF-SCS-MP2 Energies <==================
	-----------------------------------------------------------
	 SCS Same-Spin Scale       =       0.3333333333333333 [-]
	 SCS Opposite-Spin Scale   =       1.2000000000000000 [-]
	 SCS Same-Spin Energy      =      -0.1253654371160776 [Eh]
	 SCS Opposite-Spin Energy  =      -1.3926948258937524 [Eh]
	 SCS Correlation Energy    =      -1.5180602630098299 [Eh]
	 SCS Total Energy          =    -380.8834603985794729 [Eh]
	-----------------------------------------------------------

  Dipole Moment: [D]
     X:    -0.2471      Y:     0.0000      Z:     0.0001     Total:     0.2471

*** Psi4 exiting successfully. Buy a developer a beer!
