                               Psi4 1.4a3.dev225

  ==> Input File <==

--------------------------------------------------------------------------
#psi4
#
memory 32 gb

molecule  {
0 1
  O       -2.6785490     0.0000000    -0.0000150
  O        2.6785490     0.0000000    -0.0000520
  C       -1.4409660     0.0000000     0.0000110
  C        1.4409670     0.0000000    -0.0000170
  C        0.6745940    -1.2666350     0.0000030
  C       -0.7245950    -1.2666360     0.0000455
  C        0.6745950     1.2666360    -0.0000060
  C       -0.6745940     1.2666350     0.0000350
  H        1.2594220    -2.1829270     0.0000060
  H        1.2594200     2.1829290    -0.0000100
  H       -1.2594210    -2.1829290     0.0000640
  H       -1.2594220     2.1829270     0.0000490
units angstrom
no_reorient  #important for SAPT in psi4, default
symmetry c1  #important for SAPT in psi4, default
}

set PROPERTIES_ORIGIN ["COM"]
properties('MP2/aug-cc-pvtz', properties = ['dipole'])
--------------------------------------------------------------------------

    Molecular point group: c1
  Charge       = 0
  Multiplicity = 1
  Basis Set: AUG-CC-PVTZ
    Blend: AUG-CC-PVTZ
  Basis Set: (AUG-CC-PVTZ AUX)
    Blend: AUG-CC-PVTZ-JKFIT

    Orbital Energies [Eh]
    ---------------------

    Doubly Occupied:

       1A    -20.583022     2A    -20.580411     3A    -11.367600
       4A    -11.364577     5A    -11.296762     6A    -11.291654
       7A    -11.289679     8A    -11.287877     9A     -1.405622
      10A     -1.402904    11A     -1.158170    12A     -1.071930
      13A     -0.974583    14A     -0.881479    15A     -0.831327
      16A     -0.715643    17A     -0.712638    18A     -0.692376
      19A     -0.644159    20A     -0.633747    21A     -0.597863
      22A     -0.593094    23A     -0.589000    24A     -0.550198
      25A     -0.466521    26A     -0.452609    27A     -0.413835
      28A     -0.402387

  @DF-RHF Final Energy:  -379.35676040647849

   => Energetics <=

    Nuclear Repulsion Energy =            321.1692739864958526
    One-Electron Energy =               -1152.5487336067717479
    Two-Electron Energy =                 452.0226992137973525
    Total Energy =                       -379.3567604064784859
  Basis Set: (AUG-CC-PVTZ AUX)
    Blend: AUG-CC-PVTZ-RI
    Molecular point group: c1

    Geometry (in Angstrom), charge = 0, multiplicity = 1:

       Center              X                  Y                   Z               Mass
    ------------   -----------------  -----------------  -----------------  -----------------
         O           -2.672994632893     0.000000000000    -0.000014039018    15.994914619570
         O            2.684103367107     0.000000000000    -0.000051039018    15.994914619570
         C           -1.435411632893     0.000000000000     0.000011960982    12.000000000000
         C            1.446521367107     0.000000000000    -0.000016039018    12.000000000000
         C            0.680148367107    -1.266635000000     0.000003960982    12.000000000000
         C           -0.719040632893    -1.266636000000     0.000046460982    12.000000000000
         C            0.680149367107     1.266636000000    -0.000005039018    12.000000000000
         C           -0.669039632893     1.266635000000     0.000035960982    12.000000000000
         H            1.264976367107    -2.182927000000     0.000006960982     1.007825032230
         H            1.264974367107     2.182929000000    -0.000009039018     1.007825032230
         H           -1.253866632893    -2.182929000000     0.000064960982     1.007825032230
         H           -1.253867632893     2.182927000000     0.000049960982     1.007825032230

  Basis Set: AUG-CC-PVTZ
    Blend: AUG-CC-PVTZ
  Basis Set: (AUG-CC-PVTZ AUX)
    Blend: AUG-CC-PVTZ-JKFIT
	 Reference Energy          =    -379.3567604064784859 [Eh]
	 Singles Energy            =      -0.0000000000000000 [Eh]
	 Same-Spin Energy          =      -0.3787546536796446 [Eh]
	 Opposite-Spin Energy      =      -1.1659611628105671 [Eh]
	 Correlation Energy        =      -1.5447158164902115 [Eh]
	 Total Energy              =    -380.9014762229687108 [Eh]

	 ================> DF-SCS-MP2 Energies <==================
	-----------------------------------------------------------
	 SCS Same-Spin Scale       =       0.3333333333333333 [-]
	 SCS Opposite-Spin Scale   =       1.2000000000000000 [-]
	 SCS Same-Spin Energy      =      -0.1262515512265482 [Eh]
	 SCS Opposite-Spin Energy  =      -1.3991533953726805 [Eh]
	 SCS Correlation Energy    =      -1.5254049465992285 [Eh]
	 SCS Total Energy          =    -380.8821653530777098 [Eh]
	-----------------------------------------------------------

  Dipole Moment: [D]
     X:     0.0202      Y:    -0.0475      Z:     0.0001     Total:     0.0516

*** Psi4 exiting successfully. Buy a developer a beer!
