                               Psi4 1.3.2 release

  ==> Input File <==

--------------------------------------------------------------------------
#psi4
#
memory 32 gb

molecule  {
0 1
  O       -2.6777951     0.0431910    -0.0000156
  O        2.6785490     0.0000000    -0.0000520
  C       -1.4409660     0.0000000     0.0000110
  C        1.4409670     0.0000000    -0.0000170
  C        0.6745940    -1.2666350     0.0000030
  C       -0.6745950    -1.2666360     0.0000440
  C        0.6745950     1.2666360    -0.0000060
  C       -0.6745940     1.2666350     0.0000350
  H        1.2594220    -2.1829270     0.0000060
  H        1.2594200     2.1829290    -0.0000100
  H       -1.2594210    -2.1829290     0.0000640
  H       -1.2594220     2.1829270     0.0000490
units angstrom
no_reorient  #important for SAPT in psi4, default
symmetry c1  #important for SAPT in psi4, default
}

set PROPERTIES_ORIGIN ["COM"]
properties('MP2/aug-cc-pvtz', properties = ['dipole'])
--------------------------------------------------------------------------

    Molecular point group: c1
  Charge       = 0
  Multiplicity = 1
  Basis Set: AUG-CC-PVTZ
    Blend: AUG-CC-PVTZ
  Basis Set: (AUG-CC-PVTZ AUX)
    Blend: AUG-CC-PVTZ-JKFIT

    Orbital Energies [Eh]
    ---------------------

    Doubly Occupied:

       1A    -20.582370     2A    -20.582347     3A    -11.367061
       4A    -11.367023     5A    -11.290971     6A    -11.289356
       7A    -11.287817     8A    -11.286192     9A     -1.405345
      10A     -1.402653    11A     -1.161963    12A     -1.077091
      13A     -0.971376    14A     -0.876944    15A     -0.833112
      16A     -0.715937    17A     -0.714489    18A     -0.689472
      19A     -0.643206    20A     -0.630972    21A     -0.603039
      22A     -0.593545    23A     -0.584942    24A     -0.549806
      25A     -0.467626    26A     -0.448777    27A     -0.415508
      28A     -0.411422

  @DF-RHF Final Energy:  -379.36261977700849

   => Energetics <=

    Nuclear Repulsion Energy =            321.5088023060060323
    One-Electron Energy =               -1153.2421169234651188
    Two-Electron Energy =                 452.3706948404505965
    Total Energy =                       -379.3626197770084900
  Basis Set: (AUG-CC-PVTZ AUX)
    Blend: AUG-CC-PVTZ-RI
    Molecular point group: c1

    Geometry (in Angstrom), charge = 0, multiplicity = 1:

       Center              X                  Y                   Z               Mass
    ------------   -----------------  -----------------  -----------------  -----------------
         O           -2.677906833310     0.036795618269    -0.000014383541    15.994914619570
         O            2.678437266690    -0.006395381731    -0.000050783541    15.994914619570
         C           -1.441077733310    -0.006395381731     0.000012216459    12.000000000000
         C            1.440855266690    -0.006395381731    -0.000015783541    12.000000000000
         C            0.674482266690    -1.273030381731     0.000004216459    12.000000000000
         C           -0.674706733310    -1.273031381731     0.000045216459    12.000000000000
         C            0.674483266690     1.260240618269    -0.000004783541    12.000000000000
         C           -0.674705733310     1.260239618269     0.000036216459    12.000000000000
         H            1.259310266690    -2.189322381731     0.000007216459     1.007825032230
         H            1.259308266690     2.176533618269    -0.000008783541     1.007825032230
         H           -1.259532733310    -2.189324381731     0.000065216459     1.007825032230
         H           -1.259533733310     2.176531618269     0.000050216459     1.007825032230

  Basis Set: AUG-CC-PVTZ
    Blend: AUG-CC-PVTZ
  Basis Set: (AUG-CC-PVTZ AUX)
    Blend: AUG-CC-PVTZ-JKFIT
	 Reference Energy          =    -379.3626197770084900 [Eh]
	 Singles Energy            =      -0.0000000000000000 [Eh]
	 Same-Spin Energy          =      -0.3779666510076998 [Eh]
	 Opposite-Spin Energy      =      -1.1642541803524065 [Eh]
	 Correlation Energy        =      -1.5422208313601062 [Eh]
	 Total Energy              =    -380.9048406083686018 [Eh]

	 ================> DF-SCS-MP2 Energies <==================
	-----------------------------------------------------------
	 SCS Same-Spin Scale       =       0.3333333333333333 [-]
	 SCS Opposite-Spin Scale   =       1.2000000000000000 [-]
	 SCS Same-Spin Energy      =      -0.1259888836692332 [Eh]
	 SCS Opposite-Spin Energy  =      -1.3971050164228878 [Eh]
	 SCS Correlation Energy    =      -1.5230939000921211 [Eh]
	 SCS Total Energy          =    -380.8857136771006253 [Eh]
	-----------------------------------------------------------

  Dipole Moment: [D]
     X:    -0.0026      Y:    -0.0964      Z:     0.0001     Total:     0.0964

*** Psi4 exiting successfully. Buy a developer a beer!
