                               Psi4 1.3.2 release

  ==> Input File <==

--------------------------------------------------------------------------
#psi4
#
memory 32 gb

molecule  {
0 1
  O       -2.6785490     0.0000000    -0.0000150
  O        2.6785490     0.0000000    -0.0000520
  C       -1.4409660     0.0000000     0.0000110
  C        1.4409670     0.0000000    -0.0000170
  C        0.6713075    -1.3607497     0.0000033
  C       -0.6745950    -1.2666360     0.0000440
  C        0.6745950     1.2666360    -0.0000060
  C       -0.6745940     1.2666350     0.0000350
  H        1.2594220    -2.1829270     0.0000060
  H        1.2594200     2.1829290    -0.0000100
  H       -1.2594210    -2.1829290     0.0000640
  H       -1.2594220     2.1829270     0.0000490
units angstrom
no_reorient  #important for SAPT in psi4, default
symmetry c1  #important for SAPT in psi4, default
}

set PROPERTIES_ORIGIN ["COM"]
properties('MP2/aug-cc-pvtz', properties = ['dipole'])
--------------------------------------------------------------------------

    Molecular point group: c1
  Charge       = 0
  Multiplicity = 1
  Basis Set: AUG-CC-PVTZ
    Blend: AUG-CC-PVTZ
  Basis Set: (AUG-CC-PVTZ AUX)
    Blend: AUG-CC-PVTZ-JKFIT

    Orbital Energies [Eh]
    ---------------------

    Doubly Occupied:

       1A    -20.582608     2A    -20.581392     3A    -11.370863
       4A    -11.369210     5A    -11.291182     6A    -11.289536
       7A    -11.289370     8A    -11.285224     9A     -1.404761
      10A     -1.401408    11A     -1.155930    12A     -1.078190
      13A     -0.964485    14A     -0.878541    15A     -0.830278
      16A     -0.718799    17A     -0.712886    18A     -0.694282
      19A     -0.650544    20A     -0.630455    21A     -0.604767
      22A     -0.590233    23A     -0.583265    24A     -0.548542
      25A     -0.466930    26A     -0.443096    27A     -0.415224
      28A     -0.412688

  @DF-RHF Final Energy:  -379.35394592416992

   => Energetics <=

    Nuclear Repulsion Energy =            320.1271741481505728
    One-Electron Energy =               -1150.4728623413921014
    Two-Electron Energy =                 450.9917422690716649
    Total Energy =                       -379.3539459241699205
  Basis Set: (AUG-CC-PVTZ AUX)
    Blend: AUG-CC-PVTZ-RI
    Molecular point group: c1

    Geometry (in Angstrom), charge = 0, multiplicity = 1:

       Center              X                  Y                   Z               Mass
    ------------   -----------------  -----------------  -----------------  -----------------
         O           -2.678184006521     0.010455143421    -0.000013905711    15.994914619570
         O            2.678913993479     0.010455143421    -0.000050905711    15.994914619570
         C           -1.440601006521     0.010455143421     0.000012094289    12.000000000000
         C            1.441331993479     0.010455143421    -0.000015905711    12.000000000000
         C            0.671672493479    -1.350294556579     0.000004394289    12.000000000000
         C           -0.674230006521    -1.256180856579     0.000045094289    12.000000000000
         C            0.674959993479     1.277091143421    -0.000004905711    12.000000000000
         C           -0.674229006521     1.277090143421     0.000036094289    12.000000000000
         H            1.259786993479    -2.172471856579     0.000007094289     1.007825032230
         H            1.259784993479     2.193384143421    -0.000008905711     1.007825032230
         H           -1.259056006521    -2.172473856579     0.000065094289     1.007825032230
         H           -1.259057006521     2.193382143421     0.000050094289     1.007825032230

  Basis Set: AUG-CC-PVTZ
    Blend: AUG-CC-PVTZ
  Basis Set: (AUG-CC-PVTZ AUX)
    Blend: AUG-CC-PVTZ-JKFIT
	 Reference Energy          =    -379.3539459241699205 [Eh]
	 Singles Energy            =      -0.0000000000000000 [Eh]
	 Same-Spin Energy          =      -0.3773538337808376 [Eh]
	 Opposite-Spin Energy      =      -1.1640554395963840 [Eh]
	 Correlation Energy        =      -1.5414092733772216 [Eh]
	 Total Energy              =    -380.8953551975471328 [Eh]

	 ================> DF-SCS-MP2 Energies <==================
	-----------------------------------------------------------
	 SCS Same-Spin Scale       =       0.3333333333333333 [-]
	 SCS Opposite-Spin Scale   =       1.2000000000000000 [-]
	 SCS Same-Spin Energy      =      -0.1257846112602792 [Eh]
	 SCS Opposite-Spin Energy  =      -1.3968665275156609 [Eh]
	 SCS Correlation Energy    =      -1.5226511387759400 [Eh]
	 SCS Total Energy          =    -380.8765970629458479 [Eh]
	-----------------------------------------------------------

  Dipole Moment: [D]
     X:     0.1008      Y:     0.0747      Z:     0.0001     Total:     0.1254

*** Psi4 exiting successfully. Buy a developer a beer!
