                               Psi4 1.3.2 release

  ==> Input File <==

--------------------------------------------------------------------------
#psi4
#
memory 32 gb

molecule  {
0 1
  O       -2.6785490     0.0000000    -0.0000150
  O        2.6785490     0.0000000    -0.0000520
  C       -1.3962942     0.0259744     0.0000085
  C        1.4409670     0.0000000    -0.0000170
  C        0.6745940    -1.2666350     0.0000030
  C       -0.6745950    -1.2666360     0.0000440
  C        0.6745950     1.2666360    -0.0000060
  C       -0.6745940     1.2666350     0.0000350
  H        1.2594220    -2.1829270     0.0000060
  H        1.2594200     2.1829290    -0.0000100
  H       -1.2594210    -2.1829290     0.0000640
  H       -1.2594220     2.1829270     0.0000490
units angstrom
no_reorient  #important for SAPT in psi4, default
symmetry c1  #important for SAPT in psi4, default
}

set PROPERTIES_ORIGIN ["COM"]
properties('MP2/aug-cc-pvtz', properties = ['dipole'])
--------------------------------------------------------------------------

    Molecular point group: c1
  Charge       = 0
  Multiplicity = 1
  Basis Set: AUG-CC-PVTZ
    Blend: AUG-CC-PVTZ
  Basis Set: (AUG-CC-PVTZ AUX)
    Blend: AUG-CC-PVTZ-JKFIT

    Orbital Energies [Eh]
    ---------------------

    Doubly Occupied:

       1A    -20.585238     2A    -20.579175     3A    -11.369358
       4A    -11.367716     5A    -11.294179     6A    -11.290825
       7A    -11.288502     8A    -11.287906     9A     -1.406615
      10A     -1.375459    11A     -1.167810    12A     -1.081449
      13A     -0.976504    14A     -0.880557    15A     -0.836598
      16A     -0.717564    17A     -0.714067    18A     -0.686903
      19A     -0.647995    20A     -0.630245    21A     -0.594970
      22A     -0.592406    23A     -0.583090    24A     -0.541316
      25A     -0.468001    26A     -0.454194    27A     -0.414352
      28A     -0.411002

  @DF-RHF Final Energy:  -379.35309740472542

   => Energetics <=

    Nuclear Repulsion Energy =            321.6217420376096925
    One-Electron Energy =               -1153.4616849970439034
    Two-Electron Energy =                 452.4868455547087933
    Total Energy =                       -379.3530974047254176
  Basis Set: (AUG-CC-PVTZ AUX)
    Blend: AUG-CC-PVTZ-RI
    Molecular point group: c1

    Geometry (in Angstrom), charge = 0, multiplicity = 1:

       Center              X                  Y                   Z               Mass
    ------------   -----------------  -----------------  -----------------  -----------------
         O           -2.683511664206    -0.002885479923    -0.000013594661    15.994914619570
         O            2.673586335794    -0.002885479923    -0.000050594661    15.994914619570
         C           -1.401256864206     0.023088920077     0.000009905339    12.000000000000
         C            1.436004335794    -0.002885479923    -0.000015594661    12.000000000000
         C            0.669631335794    -1.269520479923     0.000004405339    12.000000000000
         C           -0.679557664206    -1.269521479923     0.000045405339    12.000000000000
         C            0.669632335794     1.263750520077    -0.000004594661    12.000000000000
         C           -0.679556664206     1.263749520077     0.000036405339    12.000000000000
         H            1.254459335794    -2.185812479923     0.000007405339     1.007825032230
         H            1.254457335794     2.180043520077    -0.000008594661     1.007825032230
         H           -1.264383664206    -2.185814479923     0.000065405339     1.007825032230
         H           -1.264384664206     2.180041520077     0.000050405339     1.007825032230

  Basis Set: AUG-CC-PVTZ
    Blend: AUG-CC-PVTZ
  Basis Set: (AUG-CC-PVTZ AUX)
    Blend: AUG-CC-PVTZ-JKFIT
	 Reference Energy          =    -379.3530974047254176 [Eh]
	 Singles Energy            =      -0.0000000000000000 [Eh]
	 Same-Spin Energy          =      -0.3799134734095868 [Eh]
	 Opposite-Spin Energy      =      -1.1680571524262024 [Eh]
	 Correlation Energy        =      -1.5479706258357893 [Eh]
	 Total Energy              =    -380.9010680305611913 [Eh]

	 ================> DF-SCS-MP2 Energies <==================
	-----------------------------------------------------------
	 SCS Same-Spin Scale       =       0.3333333333333333 [-]
	 SCS Opposite-Spin Scale   =       1.2000000000000000 [-]
	 SCS Same-Spin Energy      =      -0.1266378244698623 [Eh]
	 SCS Opposite-Spin Energy  =      -1.4016685829114428 [Eh]
	 SCS Correlation Energy    =      -1.5283064073813051 [Eh]
	 SCS Total Energy          =    -380.8814038121067256 [Eh]
	-----------------------------------------------------------

  Dipole Moment: [D]
     X:     0.1562      Y:     0.0915      Z:     0.0001     Total:     0.1811

*** Psi4 exiting successfully. Buy a developer a beer!
