                               Psi4 1.4a3.dev225

  ==> Input File <==

--------------------------------------------------------------------------
#psi4
#
memory 32 gb

molecule  {
0 1
  O       -2.6785490     0.0000000    -0.0000150
  O        2.6785490     0.0000000    -0.0000520
  C       -1.4209660     0.0000000     0.0000114
  C        1.4409670     0.0000000    -0.0000170
  C        0.6745940    -1.2666350     0.0000030
  C       -0.6745950    -1.2666360     0.0000440
  C        0.6745950     1.2666360    -0.0000060
  C       -0.6745940     1.2666350     0.0000350
  H        1.2594220    -2.1829270     0.0000060
  H        1.2594200     2.1829290    -0.0000100
  H       -1.2594210    -2.1829290     0.0000640
  H       -1.2594220     2.1829270     0.0000490
units angstrom
no_reorient  #important for SAPT in psi4, default
symmetry c1  #important for SAPT in psi4, default
}

set PROPERTIES_ORIGIN ["COM"]
properties('MP2/aug-cc-pvtz', properties = ['dipole'])
--------------------------------------------------------------------------

    Molecular point group: c1
  Charge       = 0
  Multiplicity = 1
  Basis Set: AUG-CC-PVTZ
    Blend: AUG-CC-PVTZ
  Basis Set: (AUG-CC-PVTZ AUX)
    Blend: AUG-CC-PVTZ-JKFIT

    Orbital Energies [Eh]
    ---------------------

    Doubly Occupied:

       1A    -20.583645     2A    -20.580976     3A    -11.368080
       4A    -11.367383     5A    -11.290273     6A    -11.290242
       7A    -11.288563     8A    -11.288548     9A     -1.405263
      10A     -1.390821    11A     -1.164503    12A     -1.079058
      13A     -0.973561    14A     -0.878612    15A     -0.834753
      16A     -0.715901    17A     -0.714799    18A     -0.688229
      19A     -0.645324    20A     -0.630459    21A     -0.599812
      22A     -0.592667    23A     -0.584174    24A     -0.545921
      25A     -0.468055    26A     -0.451468    27A     -0.413537
      28A     -0.412932

  @DF-RHF Final Energy:  -379.35961851143043

   => Energetics <=

    Nuclear Repulsion Energy =            321.5464754391051088
    One-Electron Energy =               -1153.3170670555314246
    Two-Electron Energy =                 452.4109731049959464
    Total Energy =                       -379.3596185114304262
  Basis Set: (AUG-CC-PVTZ AUX)
    Blend: AUG-CC-PVTZ-RI
    Molecular point group: c1

    Geometry (in Angstrom), charge = 0, multiplicity = 1:

       Center              X                  Y                   Z               Mass
    ------------   -----------------  -----------------  -----------------  -----------------
         O           -2.680770889306     0.000000000000    -0.000013916820    15.994914619570
         O            2.676327110694     0.000000000000    -0.000050916820    15.994914619570
         C           -1.423187889306     0.000000000000     0.000012483180    12.000000000000
         C            1.438745110694     0.000000000000    -0.000015916820    12.000000000000
         C            0.672372110694    -1.266635000000     0.000004083180    12.000000000000
         C           -0.676816889306    -1.266636000000     0.000045083180    12.000000000000
         C            0.672373110694     1.266636000000    -0.000004916820    12.000000000000
         C           -0.676815889306     1.266635000000     0.000036083180    12.000000000000
         H            1.257200110694    -2.182927000000     0.000007083180     1.007825032230
         H            1.257198110694     2.182929000000    -0.000008916820     1.007825032230
         H           -1.261642889306    -2.182929000000     0.000065083180     1.007825032230
         H           -1.261643889306     2.182927000000     0.000050083180     1.007825032230

  Basis Set: AUG-CC-PVTZ
    Blend: AUG-CC-PVTZ
  Basis Set: (AUG-CC-PVTZ AUX)
    Blend: AUG-CC-PVTZ-JKFIT
	 Reference Energy          =    -379.3596185114304262 [Eh]
	 Singles Energy            =      -0.0000000000000000 [Eh]
	 Same-Spin Energy          =      -0.3787834074256036 [Eh]
	 Opposite-Spin Energy      =      -1.1658498383347147 [Eh]
	 Correlation Energy        =      -1.5446332457603182 [Eh]
	 Total Energy              =    -380.9042517571907638 [Eh]

	 ================> DF-SCS-MP2 Energies <==================
	-----------------------------------------------------------
	 SCS Same-Spin Scale       =       0.3333333333333333 [-]
	 SCS Opposite-Spin Scale   =       1.2000000000000000 [-]
	 SCS Same-Spin Energy      =      -0.1262611358085345 [Eh]
	 SCS Opposite-Spin Energy  =      -1.3990198060016577 [Eh]
	 SCS Correlation Energy    =      -1.5252809418101922 [Eh]
	 SCS Total Energy          =    -380.8848994532406209 [Eh]
	-----------------------------------------------------------

  Dipole Moment: [D]
     X:     0.0779      Y:     0.0000      Z:     0.0001     Total:     0.0779

*** Psi4 exiting successfully. Buy a developer a beer!
