                               Psi4 1.3.2 release

  ==> Input File <==

--------------------------------------------------------------------------
#psi4
#
memory 32 gb

molecule  {
0 1
  O       -2.6785490     0.0000000    -0.0000150
  O        2.6785490     0.0000000    -0.0000520
  C       -1.4409660     0.0000000     0.0000110
  C        1.4409670     0.0000000    -0.0000170
  C        0.6745940    -1.2666350     0.0000030
  C       -0.7192668    -1.2926104     0.0000424
  C        0.6745950     1.2666360    -0.0000060
  C       -0.6745940     1.2666350     0.0000350
  H        1.2594220    -2.1829270     0.0000060
  H        1.2594200     2.1829290    -0.0000100
  H       -1.2594210    -2.1829290     0.0000640
  H       -1.2594220     2.1829270     0.0000490
units angstrom
no_reorient  #important for SAPT in psi4, default
symmetry c1  #important for SAPT in psi4, default
}

set PROPERTIES_ORIGIN ["COM"]
properties('MP2/aug-cc-pvtz', properties = ['dipole'])
--------------------------------------------------------------------------

    Molecular point group: c1
  Charge       = 0
  Multiplicity = 1
  Basis Set: AUG-CC-PVTZ
    Blend: AUG-CC-PVTZ
  Basis Set: (AUG-CC-PVTZ AUX)
    Blend: AUG-CC-PVTZ-JKFIT

    Orbital Energies [Eh]
    ---------------------

    Doubly Occupied:

       1A    -20.582901     2A    -20.580472     3A    -11.368058
       4A    -11.366373     5A    -11.294802     6A    -11.291517
       7A    -11.290216     8A    -11.288352     9A     -1.405352
      10A     -1.402592    11A     -1.156739    12A     -1.072559
      13A     -0.971861    14A     -0.881104    15A     -0.831269
      16A     -0.715735    17A     -0.711976    18A     -0.693957
      19A     -0.646538    20A     -0.632861    21A     -0.599119
      22A     -0.592101    23A     -0.588860    24A     -0.549783
      25A     -0.466237    26A     -0.451382    27A     -0.414039
      28A     -0.403482

  @DF-RHF Final Energy:  -379.35700203005661

   => Energetics <=

    Nuclear Repulsion Energy =            320.8090774453067979
    One-Electron Energy =               -1151.8316815027333178
    Two-Electron Energy =                 451.6656020273699141
    Total Energy =                       -379.3570020300566057
  Basis Set: (AUG-CC-PVTZ AUX)
    Blend: AUG-CC-PVTZ-RI
    Molecular point group: c1

    Geometry (in Angstrom), charge = 0, multiplicity = 1:

       Center              X                  Y                   Z               Mass
    ------------   -----------------  -----------------  -----------------  -----------------
         O           -2.673586539313     0.002885479923    -0.000013694641    15.994914619570
         O            2.683511460687     0.002885479923    -0.000050694641    15.994914619570
         C           -1.436003539313     0.002885479923     0.000012305359    12.000000000000
         C            1.445929460687     0.002885479923    -0.000015694641    12.000000000000
         C            0.679556460687    -1.263749520077     0.000004305359    12.000000000000
         C           -0.714304339313    -1.289724920077     0.000043705359    12.000000000000
         C            0.679557460687     1.269521479923    -0.000004694641    12.000000000000
         C           -0.669631539313     1.269520479923     0.000036305359    12.000000000000
         H            1.264384460687    -2.180041520077     0.000007305359     1.007825032230
         H            1.264382460687     2.185814479923    -0.000008694641     1.007825032230
         H           -1.254458539313    -2.180043520077     0.000065305359     1.007825032230
         H           -1.254459539313     2.185812479923     0.000050305359     1.007825032230

  Basis Set: AUG-CC-PVTZ
    Blend: AUG-CC-PVTZ
  Basis Set: (AUG-CC-PVTZ AUX)
    Blend: AUG-CC-PVTZ-JKFIT
	 Reference Energy          =    -379.3570020300566057 [Eh]
	 Singles Energy            =      -0.0000000000000000 [Eh]
	 Same-Spin Energy          =      -0.3783925503503203 [Eh]
	 Opposite-Spin Energy      =      -1.1655076745550670 [Eh]
	 Correlation Energy        =      -1.5439002249053873 [Eh]
	 Total Energy              =    -380.9009022549619772 [Eh]

	 ================> DF-SCS-MP2 Energies <==================
	-----------------------------------------------------------
	 SCS Same-Spin Scale       =       0.3333333333333333 [-]
	 SCS Opposite-Spin Scale   =       1.2000000000000000 [-]
	 SCS Same-Spin Energy      =      -0.1261308501167734 [Eh]
	 SCS Opposite-Spin Energy  =      -1.3986092094660802 [Eh]
	 SCS Correlation Energy    =      -1.5247400595828537 [Eh]
	 SCS Total Energy          =    -380.8817420896394879 [Eh]
	-----------------------------------------------------------

  Dipole Moment: [D]
     X:    -0.0120      Y:    -0.0189      Z:     0.0001     Total:     0.0224

*** Psi4 exiting successfully. Buy a developer a beer!
