                               Psi4 1.4a3.dev225

  ==> Input File <==

--------------------------------------------------------------------------
#psi4
#
memory 32 gb

molecule  {
0 1
  O       -2.6785490     0.0000000    -0.0000150
  O        2.6785490     0.0000000    -0.0000520
  C       -1.4409660     0.0000000     0.0000110
  C        1.4409670     0.0000000    -0.0000170
  C        0.6745940    -1.2666350     0.0000030
  C       -0.6745950    -1.2666360     0.0000440
  C        0.6745950     1.2666360    -0.0000060
  C       -0.6745940     1.2666350     0.0000350
  H        1.2594220    -2.1829270     0.0000060
  H        1.2594200     2.1829290    -0.0000100
  H       -1.2325206    -2.1407820     0.0000631
  H       -1.2594220     2.1829270     0.0000490
units angstrom
no_reorient  #important for SAPT in psi4, default
symmetry c1  #important for SAPT in psi4, default
}

set PROPERTIES_ORIGIN ["COM"]
properties('MP2/aug-cc-pvtz', properties = ['dipole'])
--------------------------------------------------------------------------

    Molecular point group: c1
  Charge       = 0
  Multiplicity = 1
  Basis Set: AUG-CC-PVTZ
    Blend: AUG-CC-PVTZ
  Basis Set: (AUG-CC-PVTZ AUX)
    Blend: AUG-CC-PVTZ-JKFIT

    Orbital Energies [Eh]
    ---------------------

    Doubly Occupied:

       1A    -20.582328     2A    -20.582312     3A    -11.366876
       4A    -11.366737     5A    -11.289228     6A    -11.288727
       7A    -11.287627     8A    -11.283162     9A     -1.405298
      10A     -1.402605    11A     -1.162290    12A     -1.078396
      13A     -0.972054    14A     -0.879493    15A     -0.834476
      16A     -0.716833    17A     -0.715782    18A     -0.692096
      19A     -0.646697    20A     -0.632310    21A     -0.603702
      22A     -0.593456    23A     -0.586929    24A     -0.549760
      25A     -0.467725    26A     -0.448998    27A     -0.415057
      28A     -0.411839

  @DF-RHF Final Energy:  -379.36218061593001

   => Energetics <=

    Nuclear Repulsion Energy =            321.7574809024494584
    One-Electron Energy =               -1153.7137378878785512
    Two-Electron Energy =                 452.5940763694990210
    Total Energy =                       -379.3621806159300149
  Basis Set: (AUG-CC-PVTZ AUX)
    Blend: AUG-CC-PVTZ-RI
    Molecular point group: c1

    Geometry (in Angstrom), charge = 0, multiplicity = 1:

       Center              X                  Y                   Z               Mass
    ------------   -----------------  -----------------  -----------------  -----------------
         O           -2.678800079477    -0.000393226787    -0.000013863987    15.994914619570
         O            2.678297920523    -0.000393226787    -0.000050863987    15.994914619570
         C           -1.441217079477    -0.000393226787     0.000012136013    12.000000000000
         C            1.440715920523    -0.000393226787    -0.000015863987    12.000000000000
         C            0.674342920523    -1.267028226787     0.000004136013    12.000000000000
         C           -0.674846079477    -1.267029226787     0.000045136013    12.000000000000
         C            0.674343920523     1.266242773213    -0.000004863987    12.000000000000
         C           -0.674845079477     1.266241773213     0.000036136013    12.000000000000
         H            1.259170920523    -2.183320226787     0.000007136013     1.007825032230
         H            1.259168920523     2.182535773213    -0.000008863987     1.007825032230
         H           -1.232771679477    -2.141175226787     0.000064236013     1.007825032230
         H           -1.259673079477     2.182533773213     0.000050136013     1.007825032230

  Basis Set: AUG-CC-PVTZ
    Blend: AUG-CC-PVTZ
  Basis Set: (AUG-CC-PVTZ AUX)
    Blend: AUG-CC-PVTZ-JKFIT
	 Reference Energy          =    -379.3621806159300149 [Eh]
	 Singles Energy            =      -0.0000000000000000 [Eh]
	 Same-Spin Energy          =      -0.3778320387591885 [Eh]
	 Opposite-Spin Energy      =      -1.1639547051430863 [Eh]
	 Correlation Energy        =      -1.5417867439022748 [Eh]
	 Total Energy              =    -380.9039673598322793 [Eh]

	 ================> DF-SCS-MP2 Energies <==================
	-----------------------------------------------------------
	 SCS Same-Spin Scale       =       0.3333333333333333 [-]
	 SCS Opposite-Spin Scale   =       1.2000000000000000 [-]
	 SCS Same-Spin Energy      =      -0.1259440129197295 [Eh]
	 SCS Opposite-Spin Energy  =      -1.3967456461717036 [Eh]
	 SCS Correlation Energy    =      -1.5226896590914332 [Eh]
	 SCS Total Energy          =    -380.8848702750214557 [Eh]
	-----------------------------------------------------------

  Dipole Moment: [D]
     X:     0.0049      Y:    -0.0026      Z:     0.0001     Total:     0.0056

*** Psi4 exiting successfully. Buy a developer a beer!
