                               Psi4 1.4a3.dev225

  ==> Input File <==

--------------------------------------------------------------------------
#psi4
#
memory 32 gb

molecule  {
0 1
  O       -2.6785490     0.0000000    -0.0000150
  O        2.6785490     0.0000000    -0.0000520
  C       -1.4409660     0.0000000     0.0000110
  C        1.4409670     0.0000000    -0.0000170
  C        0.6745940    -1.2666350     0.0000030
  C       -0.6849483    -1.2495243     0.0000436
  C        0.6745950     1.2666360    -0.0000060
  C       -0.6745940     1.2666350     0.0000350
  H        1.2594220    -2.1829270     0.0000060
  H        1.2594200     2.1829290    -0.0000100
  H       -1.2594210    -2.1829290     0.0000640
  H       -1.2594220     2.1829270     0.0000490
units angstrom
no_reorient  #important for SAPT in psi4, default
symmetry c1  #important for SAPT in psi4, default
}

set PROPERTIES_ORIGIN ["COM"]
properties('MP2/aug-cc-pvtz', properties = ['dipole'])
--------------------------------------------------------------------------

    Molecular point group: c1
  Charge       = 0
  Multiplicity = 1
  Basis Set: AUG-CC-PVTZ
    Blend: AUG-CC-PVTZ
  Basis Set: (AUG-CC-PVTZ AUX)
    Blend: AUG-CC-PVTZ-JKFIT

    Orbital Energies [Eh]
    ---------------------

    Doubly Occupied:

       1A    -20.582541     2A    -20.582114     3A    -11.366825
       4A    -11.365636     5A    -11.291458     6A    -11.289108
       7A    -11.288962     8A    -11.287512     9A     -1.405570
      10A     -1.402832    11A     -1.162412    12A     -1.075829
      13A     -0.973796    14A     -0.878209    15A     -0.832746
      16A     -0.716472    17A     -0.714330    18A     -0.688938
      19A     -0.641927    20A     -0.632011    21A     -0.601862
      22A     -0.594148    23A     -0.584851    24A     -0.550110
      25A     -0.467852    26A     -0.450075    27A     -0.414383
      28A     -0.410165

  @DF-RHF Final Energy:  -379.36161052253340

   => Energetics <=

    Nuclear Repulsion Energy =            321.6859123961114619
    One-Electron Energy =               -1153.5896995585101195
    Two-Electron Energy =                 452.5421766398652608
    Total Energy =                       -379.3616105225333968
  Basis Set: (AUG-CC-PVTZ AUX)
    Blend: AUG-CC-PVTZ-RI
    Molecular point group: c1

    Geometry (in Angstrom), charge = 0, multiplicity = 1:

       Center              X                  Y                   Z               Mass
    ------------   -----------------  -----------------  -----------------  -----------------
         O           -2.677398960109    -0.001900928098    -0.000013827948    15.994914619570
         O            2.679699039891    -0.001900928098    -0.000050827948    15.994914619570
         C           -1.439815960109    -0.001900928098     0.000012172052    12.000000000000
         C            1.442117039891    -0.001900928098    -0.000015827948    12.000000000000
         C            0.675744039891    -1.268535928098     0.000004172052    12.000000000000
         C           -0.683798260109    -1.251425228098     0.000044772052    12.000000000000
         C            0.675745039891     1.264735071902    -0.000004827948    12.000000000000
         C           -0.673443960109     1.264734071902     0.000036172052    12.000000000000
         H            1.260572039891    -2.184827928098     0.000007172052     1.007825032230
         H            1.260570039891     2.181028071902    -0.000008827948     1.007825032230
         H           -1.258270960109    -2.184829928098     0.000065172052     1.007825032230
         H           -1.258271960109     2.181026071902     0.000050172052     1.007825032230

  Basis Set: AUG-CC-PVTZ
    Blend: AUG-CC-PVTZ
  Basis Set: (AUG-CC-PVTZ AUX)
    Blend: AUG-CC-PVTZ-JKFIT
	 Reference Energy          =    -379.3616105225333968 [Eh]
	 Singles Energy            =      -0.0000000000000000 [Eh]
	 Same-Spin Energy          =      -0.3782961245733025 [Eh]
	 Opposite-Spin Energy      =      -1.1647812363584116 [Eh]
	 Correlation Energy        =      -1.5430773609317141 [Eh]
	 Total Energy              =    -380.9046878834651011 [Eh]

	 ================> DF-SCS-MP2 Energies <==================
	-----------------------------------------------------------
	 SCS Same-Spin Scale       =       0.3333333333333333 [-]
	 SCS Opposite-Spin Scale   =       1.2000000000000000 [-]
	 SCS Same-Spin Energy      =      -0.1260987081911008 [Eh]
	 SCS Opposite-Spin Energy  =      -1.3977374836300938 [Eh]
	 SCS Correlation Energy    =      -1.5238361918211947 [Eh]
	 SCS Total Energy          =    -380.8854467143546003 [Eh]
	-----------------------------------------------------------

  Dipole Moment: [D]
     X:     0.0261      Y:    -0.0237      Z:     0.0001     Total:     0.0353

*** Psi4 exiting successfully. Buy a developer a beer!
