                               Psi4 1.3.2 release

  ==> Input File <==

--------------------------------------------------------------------------
#psi4
#
memory 32 gb

molecule  {
0 1
  O       -2.6785490     0.0000000    -0.0000150
  O        2.6785490     0.0000000    -0.0000520
  C       -1.4409660     0.0000000     0.0000110
  C        1.4409670     0.0000000    -0.0000170
  C        0.6713074    -1.1725203     0.0000029
  C       -0.6745950    -1.2666360     0.0000440
  C        0.6745950     1.2666360    -0.0000060
  C       -0.6745940     1.2666350     0.0000350
  H        1.2594220    -2.1829270     0.0000060
  H        1.2594200     2.1829290    -0.0000100
  H       -1.2594210    -2.1829290     0.0000640
  H       -1.2594220     2.1829270     0.0000490
units angstrom
no_reorient  #important for SAPT in psi4, default
symmetry c1  #important for SAPT in psi4, default
}

set PROPERTIES_ORIGIN ["COM"]
properties('MP2/aug-cc-pvtz', properties = ['dipole'])
--------------------------------------------------------------------------

    Molecular point group: c1
  Charge       = 0
  Multiplicity = 1
  Basis Set: AUG-CC-PVTZ
    Blend: AUG-CC-PVTZ
  Basis Set: (AUG-CC-PVTZ AUX)
    Blend: AUG-CC-PVTZ-JKFIT

    Orbital Energies [Eh]
    ---------------------

    Doubly Occupied:

       1A    -20.583213     2A    -20.582834     3A    -11.365454
       4A    -11.362018     5A    -11.294335     6A    -11.288588
       7A    -11.287787     8A    -11.285982     9A     -1.406622
      10A     -1.403382    11A     -1.170176    12A     -1.076217
      13A     -0.982629    14A     -0.879989    15A     -0.832125
      16A     -0.722337    17A     -0.714875    18A     -0.684731
      19A     -0.640796    20A     -0.630559    21A     -0.603041
      22A     -0.598048    23A     -0.572123    24A     -0.551177
      25A     -0.469998    26A     -0.449061    27A     -0.415420
      28A     -0.411225

  @DF-RHF Final Energy:  -379.35055627786522

   => Energetics <=

    Nuclear Repulsion Energy =            322.9566921429406534
    One-Electron Energy =               -1156.0850048890245034
    Two-Electron Energy =                 453.7777564682185698
    Total Energy =                       -379.3505562778652234
  Basis Set: (AUG-CC-PVTZ AUX)
    Blend: AUG-CC-PVTZ-RI
    Molecular point group: c1

    Geometry (in Angstrom), charge = 0, multiplicity = 1:

       Center              X                  Y                   Z               Mass
    ------------   -----------------  -----------------  -----------------  -----------------
         O           -2.678183995412    -0.010455143421    -0.000013861275    15.994914619570
         O            2.678914004588    -0.010455143421    -0.000050861275    15.994914619570
         C           -1.440600995412    -0.010455143421     0.000012138725    12.000000000000
         C            1.441332004588    -0.010455143421    -0.000015861275    12.000000000000
         C            0.671672404588    -1.182975443421     0.000004038725    12.000000000000
         C           -0.674229995412    -1.277091143421     0.000045138725    12.000000000000
         C            0.674960004588     1.256180856579    -0.000004861275    12.000000000000
         C           -0.674228995412     1.256179856579     0.000036138725    12.000000000000
         H            1.259787004588    -2.193382143421     0.000007138725     1.007825032230
         H            1.259785004588     2.172473856579    -0.000008861275     1.007825032230
         H           -1.259055995412    -2.193384143421     0.000065138725     1.007825032230
         H           -1.259056995412     2.172471856579     0.000050138725     1.007825032230

  Basis Set: AUG-CC-PVTZ
    Blend: AUG-CC-PVTZ
  Basis Set: (AUG-CC-PVTZ AUX)
    Blend: AUG-CC-PVTZ-JKFIT
	 Reference Energy          =    -379.3505562778652234 [Eh]
	 Singles Energy            =      -0.0000000000000000 [Eh]
	 Same-Spin Energy          =      -0.3792910683566191 [Eh]
	 Opposite-Spin Energy      =      -1.1661986426662732 [Eh]
	 Correlation Energy        =      -1.5454897110228922 [Eh]
	 Total Energy              =    -380.8960459888880905 [Eh]

	 ================> DF-SCS-MP2 Energies <==================
	-----------------------------------------------------------
	 SCS Same-Spin Scale       =       0.3333333333333333 [-]
	 SCS Opposite-Spin Scale   =       1.2000000000000000 [-]
	 SCS Same-Spin Energy      =      -0.1264303561188730 [Eh]
	 SCS Opposite-Spin Energy  =      -1.3994383711995277 [Eh]
	 SCS Correlation Energy    =      -1.5258687273184008 [Eh]
	 SCS Total Energy          =    -380.8764250051836484 [Eh]
	-----------------------------------------------------------

  Dipole Moment: [D]
     X:    -0.1286      Y:    -0.0612      Z:     0.0001     Total:     0.1425

*** Psi4 exiting successfully. Buy a developer a beer!
