                               Psi4 1.3.2 release

  ==> Input File <==

--------------------------------------------------------------------------
#psi4
#
memory 32 gb

molecule  {
0 1
  O       -2.6785490     0.0000000    -0.0000150
  O        2.6785490     0.0000000    -0.0000520
  C       -1.4409660     0.0000000     0.0000110
  C        1.4409670     0.0000000    -0.0000170
  C        0.6737721    -1.3137210     0.0000031
  C       -0.6745950    -1.2666360     0.0000440
  C        0.6745950     1.2666360    -0.0000060
  C       -0.6745940     1.2666350     0.0000350
  H        1.2594220    -2.1829270     0.0000060
  H        1.2594200     2.1829290    -0.0000100
  H       -1.2594210    -2.1829290     0.0000640
  H       -1.2594220     2.1829270     0.0000490
units angstrom
no_reorient  #important for SAPT in psi4, default
symmetry c1  #important for SAPT in psi4, default
}

set PROPERTIES_ORIGIN ["COM"]
properties('MP2/aug-cc-pvtz', properties = ['dipole'])
--------------------------------------------------------------------------

    Molecular point group: c1
  Charge       = 0
  Multiplicity = 1
  Basis Set: AUG-CC-PVTZ
    Blend: AUG-CC-PVTZ
  Basis Set: (AUG-CC-PVTZ AUX)
    Blend: AUG-CC-PVTZ-JKFIT

    Orbital Energies [Eh]
    ---------------------

    Doubly Occupied:

       1A    -20.582413     2A    -20.581902     3A    -11.369138
       4A    -11.368066     5A    -11.290283     6A    -11.289128
       7A    -11.288630     8A    -11.286424     9A     -1.404901
      10A     -1.402128    11A     -1.158704    12A     -1.077635
      13A     -0.967433    14A     -0.877067    15A     -0.832164
      16A     -0.715469    17A     -0.713949    18A     -0.692401
      19A     -0.647053    20A     -0.630567    21A     -0.603919
      22A     -0.591745    23A     -0.585440    24A     -0.549163
      25A     -0.467071    26A     -0.446722    27A     -0.415110
      28A     -0.412255

  @DF-RHF Final Energy:  -379.36108246009758

   => Energetics <=

    Nuclear Repulsion Energy =            320.8014809481423981
    One-Electron Energy =               -1151.8313659777020348
    Two-Electron Energy =                 451.6688025694620592
    Total Energy =                       -379.3610824600975775
  Basis Set: (AUG-CC-PVTZ AUX)
    Blend: AUG-CC-PVTZ-RI
    Molecular point group: c1

    Geometry (in Angstrom), charge = 0, multiplicity = 1:

       Center              X                  Y                   Z               Mass
    ------------   -----------------  -----------------  -----------------  -----------------
         O           -2.678457797400     0.005230754421    -0.000013883493    15.994914619570
         O            2.678640202600     0.005230754421    -0.000050883493    15.994914619570
         C           -1.440874797400     0.005230754421     0.000012116507    12.000000000000
         C            1.441058202600     0.005230754421    -0.000015883493    12.000000000000
         C            0.673863302600    -1.308490245579     0.000004216507    12.000000000000
         C           -0.674503797400    -1.261405245579     0.000045116507    12.000000000000
         C            0.674686202600     1.271866754421    -0.000004883493    12.000000000000
         C           -0.674502797400     1.271865754421     0.000036116507    12.000000000000
         H            1.259513202600    -2.177696245579     0.000007116507     1.007825032230
         H            1.259511202600     2.188159754421    -0.000008883493     1.007825032230
         H           -1.259329797400    -2.177698245579     0.000065116507     1.007825032230
         H           -1.259330797400     2.188157754421     0.000050116507     1.007825032230

  Basis Set: AUG-CC-PVTZ
    Blend: AUG-CC-PVTZ
  Basis Set: (AUG-CC-PVTZ AUX)
    Blend: AUG-CC-PVTZ-JKFIT
	 Reference Energy          =    -379.3610824600975775 [Eh]
	 Singles Energy            =      -0.0000000000000000 [Eh]
	 Same-Spin Energy          =      -0.3775644377425351 [Eh]
	 Opposite-Spin Energy      =      -1.1639248142255023 [Eh]
	 Correlation Energy        =      -1.5414892519680374 [Eh]
	 Total Energy              =    -380.9025717120655941 [Eh]

	 ================> DF-SCS-MP2 Energies <==================
	-----------------------------------------------------------
	 SCS Same-Spin Scale       =       0.3333333333333333 [-]
	 SCS Opposite-Spin Scale   =       1.2000000000000000 [-]
	 SCS Same-Spin Energy      =      -0.1258548125808450 [Eh]
	 SCS Opposite-Spin Energy  =      -1.3967097770706027 [Eh]
	 SCS Correlation Energy    =      -1.5225645896514477 [Eh]
	 SCS Total Energy          =    -380.8836470497490154 [Eh]
	-----------------------------------------------------------

  Dipole Moment: [D]
     X:     0.0540      Y:     0.0365      Z:     0.0001     Total:     0.0651

*** Psi4 exiting successfully. Buy a developer a beer!
