                               Psi4 1.3.2 release

  ==> Input File <==

--------------------------------------------------------------------------
#psi4
#
memory 32 gb

molecule  {
0 1
  O       -2.6755343     0.0863294    -0.0000161
  O        2.6785490     0.0000000    -0.0000520
  C       -1.4409660     0.0000000     0.0000110
  C        1.4409670     0.0000000    -0.0000170
  C        0.6745940    -1.2666350     0.0000030
  C       -0.6745950    -1.2666360     0.0000440
  C        0.6745950     1.2666360    -0.0000060
  C       -0.6745940     1.2666350     0.0000350
  H        1.2594220    -2.1829270     0.0000060
  H        1.2594200     2.1829290    -0.0000100
  H       -1.2594210    -2.1829290     0.0000640
  H       -1.2594220     2.1829270     0.0000490
units angstrom
no_reorient  #important for SAPT in psi4, default
symmetry c1  #important for SAPT in psi4, default
}

set PROPERTIES_ORIGIN ["COM"]
properties('MP2/aug-cc-pvtz', properties = ['dipole'])
--------------------------------------------------------------------------

    Molecular point group: c1
  Charge       = 0
  Multiplicity = 1
  Basis Set: AUG-CC-PVTZ
    Blend: AUG-CC-PVTZ
  Basis Set: (AUG-CC-PVTZ AUX)
    Blend: AUG-CC-PVTZ-JKFIT

    Orbital Energies [Eh]
    ---------------------

    Doubly Occupied:

       1A    -20.582349     2A    -20.582257     3A    -11.367101
       4A    -11.366953     5A    -11.292520     6A    -11.290858
       7A    -11.286234     8A    -11.284509     9A     -1.405427
      10A     -1.402706    11A     -1.161938    12A     -1.076966
      13A     -0.971335    14A     -0.876871    15A     -0.833090
      16A     -0.715971    17A     -0.714452    18A     -0.689528
      19A     -0.643108    20A     -0.630897    21A     -0.603132
      22A     -0.593563    23A     -0.584743    24A     -0.549828
      25A     -0.467318    26A     -0.448615    27A     -0.416397
      28A     -0.410406

  @DF-RHF Final Energy:  -379.36169268166253

   => Energetics <=

    Nuclear Repulsion Energy =            321.5392163304411497
    One-Electron Energy =               -1153.3036691510269520
    Two-Electron Energy =                 452.4027601389232700
    Total Energy =                       -379.3616926816625323
  Basis Set: (AUG-CC-PVTZ AUX)
    Blend: AUG-CC-PVTZ-RI
    Molecular point group: c1

    Geometry (in Angstrom), charge = 0, multiplicity = 1:

       Center              X                  Y                   Z               Mass
    ------------   -----------------  -----------------  -----------------  -----------------
         O           -2.675980794696     0.073546425130    -0.000014809505    15.994914619570
         O            2.678102505304    -0.012782974870    -0.000050709505    15.994914619570
         C           -1.441412494696    -0.012782974870     0.000012290495    12.000000000000
         C            1.440520505304    -0.012782974870    -0.000015709505    12.000000000000
         C            0.674147505304    -1.279417974870     0.000004290495    12.000000000000
         C           -0.675041494696    -1.279418974870     0.000045290495    12.000000000000
         C            0.674148505304     1.253853025130    -0.000004709505    12.000000000000
         C           -0.675040494696     1.253852025130     0.000036290495    12.000000000000
         H            1.258975505304    -2.195709974870     0.000007290495     1.007825032230
         H            1.258973505304     2.170146025130    -0.000008709505     1.007825032230
         H           -1.259867494696    -2.195711974870     0.000065290495     1.007825032230
         H           -1.259868494696     2.170144025130     0.000050290495     1.007825032230

  Basis Set: AUG-CC-PVTZ
    Blend: AUG-CC-PVTZ
  Basis Set: (AUG-CC-PVTZ AUX)
    Blend: AUG-CC-PVTZ-JKFIT
	 Reference Energy          =    -379.3616926816625323 [Eh]
	 Singles Energy            =      -0.0000000000000000 [Eh]
	 Same-Spin Energy          =      -0.3779967154131355 [Eh]
	 Opposite-Spin Energy      =      -1.1643146883805557 [Eh]
	 Correlation Energy        =      -1.5423114037936911 [Eh]
	 Total Energy              =    -380.9040040854562221 [Eh]

	 ================> DF-SCS-MP2 Energies <==================
	-----------------------------------------------------------
	 SCS Same-Spin Scale       =       0.3333333333333333 [-]
	 SCS Opposite-Spin Scale   =       1.2000000000000000 [-]
	 SCS Same-Spin Energy      =      -0.1259989051377118 [Eh]
	 SCS Opposite-Spin Energy  =      -1.3971776260566668 [Eh]
	 SCS Correlation Energy    =      -1.5231765311943786 [Eh]
	 SCS Total Energy          =    -380.8848692128569269 [Eh]
	-----------------------------------------------------------

  Dipole Moment: [D]
     X:    -0.0102      Y:    -0.1926      Z:     0.0001     Total:     0.1928

*** Psi4 exiting successfully. Buy a developer a beer!
