                               Psi4 1.3.2 release

  ==> Input File <==

--------------------------------------------------------------------------
#psi4
#
memory 32 gb

molecule  {
0 1
  O        1.3067520    -0.1677201    -0.0000276
  C       -1.1702100    -0.1504720    -0.0000180
  C        0.2261640     0.4062520     0.0000350
  H       -1.7133170     0.2069280    -0.8812060
  H       -1.1329820    -1.2403210    -0.0006610
  H       -1.7128360     0.2058240     0.8819220
  H        0.2967200     1.5131120    -0.0000780
units angstrom
no_reorient  #important for SAPT in psi4, default
symmetry c1  #important for SAPT in psi4, default
}

set PROPERTIES_ORIGIN ["COM"]
properties('MP2/aug-cc-pvtz', properties = ['dipole'])
--------------------------------------------------------------------------

    Molecular point group: c1
  Charge       = 0
  Multiplicity = 1
  Basis Set: AUG-CC-PVTZ
    Blend: AUG-CC-PVTZ
  Basis Set: (AUG-CC-PVTZ AUX)
    Blend: AUG-CC-PVTZ-JKFIT

    Orbital Energies [Eh]
    ---------------------

    Doubly Occupied:

       1A    -20.561487     2A    -11.339952     3A    -11.250492
       4A     -1.385096     5A     -1.027380     6A     -0.801115
       7A     -0.671832     8A     -0.625146     9A     -0.607442
      10A     -0.564363    11A     -0.502324    12A     -0.426407

  @DF-RHF Final Energy:  -152.97261747858232

   => Energetics <=

    Nuclear Repulsion Energy =             69.0421926500982579
    One-Electron Energy =                -344.5035477002534208
    Two-Electron Energy =                 122.4887375715728126
    Total Energy =                       -152.9726174785823218
  Basis Set: (AUG-CC-PVTZ AUX)
    Blend: AUG-CC-PVTZ-RI
    Molecular point group: c1

    Geometry (in Angstrom), charge = 0, multiplicity = 1:

       Center              X                  Y                   Z               Mass
    ------------   -----------------  -----------------  -----------------  -----------------
         O            1.186890091263    -0.192196397196    -0.000021679899    15.994914619570
         C           -1.290071908737    -0.174948297196    -0.000012079899    12.000000000000
         C            0.106302091263     0.381775702804     0.000040920101    12.000000000000
         H           -1.833178908737     0.182451702804    -0.881200079899     1.007825032230
         H           -1.252843908737    -1.264797297196    -0.000655079899     1.007825032230
         H           -1.832697908737     0.181347702804     0.881927920101     1.007825032230
         H            0.176858091263     1.488635702804    -0.000072079899     1.007825032230

  Basis Set: AUG-CC-PVTZ
    Blend: AUG-CC-PVTZ
  Basis Set: (AUG-CC-PVTZ AUX)
    Blend: AUG-CC-PVTZ-JKFIT
	 Reference Energy          =    -152.9726174785823218 [Eh]
	 Singles Energy            =      -0.0000000000000000 [Eh]
	 Same-Spin Energy          =      -0.1444342914925763 [Eh]
	 Opposite-Spin Energy      =      -0.4856082174591293 [Eh]
	 Correlation Energy        =      -0.6300425089517055 [Eh]
	 Total Energy              =    -153.6026599875340253 [Eh]

	 ================> DF-SCS-MP2 Energies <==================
	-----------------------------------------------------------
	 SCS Same-Spin Scale       =       0.3333333333333333 [-]
	 SCS Opposite-Spin Scale   =       1.2000000000000000 [-]
	 SCS Same-Spin Energy      =      -0.0481447638308588 [Eh]
	 SCS Opposite-Spin Energy  =      -0.5827298609509551 [Eh]
	 SCS Correlation Energy    =      -0.6308746247818139 [Eh]
	 SCS Total Energy          =    -153.6034921033641467 [Eh]
	-----------------------------------------------------------

  Dipole Moment: [D]
     X:    -2.7500      Y:     0.9332      Z:     0.0001     Total:     2.9040

*** Psi4 exiting successfully. Buy a developer a beer!
