                               Psi4 1.3.2 release

  ==> Input File <==

--------------------------------------------------------------------------
#psi4
#
memory 32 gb

molecule  {
0 1
  O        1.1906662    -0.3466423     0.0000020
  C       -1.1702100    -0.1504720    -0.0000180
  C        0.2261640     0.4062520     0.0000350
  H       -1.7133170     0.2069280    -0.8812060
  H       -1.1329820    -1.2403210    -0.0006610
  H       -1.7128360     0.2058240     0.8819220
  H        0.2967200     1.5131120    -0.0000780
units angstrom
no_reorient  #important for SAPT in psi4, default
symmetry c1  #important for SAPT in psi4, default
}

set PROPERTIES_ORIGIN ["COM"]
properties('MP2/aug-cc-pvtz', properties = ['dipole'])
--------------------------------------------------------------------------

    Molecular point group: c1
  Charge       = 0
  Multiplicity = 1
  Basis Set: AUG-CC-PVTZ
    Blend: AUG-CC-PVTZ
  Basis Set: (AUG-CC-PVTZ AUX)
    Blend: AUG-CC-PVTZ-JKFIT

    Orbital Energies [Eh]
    ---------------------

    Doubly Occupied:

       1A    -20.561523     2A    -11.340847     3A    -11.241304
       4A     -1.386366     5A     -1.019770     6A     -0.805727
       7A     -0.674358     8A     -0.619849     9A     -0.603437
      10A     -0.559499    11A     -0.500095    12A     -0.429306

  @DF-RHF Final Energy:  -152.97367073319472

   => Energetics <=

    Nuclear Repulsion Energy =             69.5867855890828366
    One-Electron Energy =                -345.6367471042874513
    Two-Electron Energy =                 123.0762907820098633
    Total Energy =                       -152.9736707331947230
  Basis Set: (AUG-CC-PVTZ AUX)
    Blend: AUG-CC-PVTZ-RI
    Molecular point group: c1

    Geometry (in Angstrom), charge = 0, multiplicity = 1:

       Center              X                  Y                   Z               Mass
    ------------   -----------------  -----------------  -----------------  -----------------
         O            1.112978765498    -0.306115386520    -0.000002833708    15.994914619570
         C           -1.247897434502    -0.109945086520    -0.000022833708    12.000000000000
         C            0.148476565498     0.446778913480     0.000030166292    12.000000000000
         H           -1.791004434502     0.247454913480    -0.881210833708     1.007825032230
         H           -1.210669434502    -1.199794086520    -0.000665833708     1.007825032230
         H           -1.790523434502     0.246350913480     0.881917166292     1.007825032230
         H            0.219032565498     1.553638913480    -0.000082833708     1.007825032230

  Basis Set: AUG-CC-PVTZ
    Blend: AUG-CC-PVTZ
  Basis Set: (AUG-CC-PVTZ AUX)
    Blend: AUG-CC-PVTZ-JKFIT
	 Reference Energy          =    -152.9736707331947230 [Eh]
	 Singles Energy            =      -0.0000000000000000 [Eh]
	 Same-Spin Energy          =      -0.1445233210053388 [Eh]
	 Opposite-Spin Energy      =      -0.4856284280188021 [Eh]
	 Correlation Energy        =      -0.6301517490241408 [Eh]
	 Total Energy              =    -153.6038224822188738 [Eh]

	 ================> DF-SCS-MP2 Energies <==================
	-----------------------------------------------------------
	 SCS Same-Spin Scale       =       0.3333333333333333 [-]
	 SCS Opposite-Spin Scale   =       1.2000000000000000 [-]
	 SCS Same-Spin Energy      =      -0.0481744403351129 [Eh]
	 SCS Opposite-Spin Energy  =      -0.5827541136225625 [Eh]
	 SCS Correlation Energy    =      -0.6309285539576754 [Eh]
	 SCS Total Energy          =    -153.6045992871524106 [Eh]
	-----------------------------------------------------------

  Dipole Moment: [D]
     X:    -2.4279      Y:     1.3218      Z:     0.0001     Total:     2.7644

*** Psi4 exiting successfully. Buy a developer a beer!
