                               Psi4 1.4a3.dev225

  ==> Input File <==

--------------------------------------------------------------------------
#psi4
#
memory 32 gb

molecule  {
0 1
  O        1.2409240    -0.2774600     0.0000000
  C       -1.1702280    -0.1505200     0.0000000
  C        0.2261800     0.4061290     0.0000000
  H       -1.7131240     0.2066740    -0.8814370
  H       -1.1334130    -1.2403610    -0.0000090
  H       -1.7131170     0.2066590     0.8814470
  H        0.2952801     1.4930933     0.0000000
units angstrom
no_reorient  #important for SAPT in psi4, default
symmetry c1  #important for SAPT in psi4, default
}

set PROPERTIES_ORIGIN ["COM"]
properties('MP2/aug-cc-pvtz', properties = ['dipole'])
--------------------------------------------------------------------------

     Molecular point group: c1     Full point group: C1
   Charge       = 0   Multiplicity = 1   Electrons    = 24   Nalpha       = 12   Nbeta        = 12
   Basis Set: AUG-CC-PVTZ     Blend: AUG-CC-PVTZ     Number of shells: 78     Number of basis functions: 230     Number of Cartesian functions: 265     Spherical Harmonics?: true     Max angular momentum: 3
  Basis Set: (AUG-CC-PVTZ AUX)
    Blend: AUG-CC-PVTZ-JKFIT

    Orbital Energies [Eh]
    ---------------------

    Doubly Occupied:

       1A    -20.561054     2A    -11.338075     3A    -11.244601
       4A     -1.385327     5A     -1.023158     6A     -0.808163
       7A     -0.674260     8A     -0.621804     9A     -0.604733
      10A     -0.561808    11A     -0.500646    12A     -0.429807

  @DF-RHF Final Energy:  -152.97512283892200

   => Energetics <=

    Nuclear Repulsion Energy =             69.4287138842968830
    One-Electron Energy =                -345.3008025790352349
    Two-Electron Energy =                 122.8969658558163616
    Total Energy =                       -152.9751228389220046
  Basis Set: (AUG-CC-PVTZ AUX)
    Blend: AUG-CC-PVTZ-RI
    Molecular point group: c1

    Geometry (in Angstrom), charge = 0, multiplicity = 1:

       Center              X                  Y                   Z               Mass
    ------------   -----------------  -----------------  -----------------  -----------------
         O            1.145023076192    -0.261574834039    -0.000000022891    15.994914619570
         C           -1.266128923808    -0.134634834039    -0.000000022891    12.000000000000
         C            0.130279076192     0.422014165961    -0.000000022891    12.000000000000
         H           -1.809024923808     0.222559165961    -0.881437022891     1.007825032230
         H           -1.229313923808    -1.224475834039    -0.000009022891     1.007825032230
         H           -1.809017923808     0.222544165961     0.881446977109     1.007825032230
         H            0.199379176192     1.508978465961    -0.000000022891     1.007825032230

  Basis Set: AUG-CC-PVTZ
    Blend: AUG-CC-PVTZ
  Basis Set: (AUG-CC-PVTZ AUX)
    Blend: AUG-CC-PVTZ-JKFIT
	 Reference Energy          =    -152.9751228389220046 [Eh]
	 Singles Energy            =      -0.0000000000000000 [Eh]
	 Same-Spin Energy          =      -0.1443803442094654 [Eh]
	 Opposite-Spin Energy      =      -0.4853860632094995 [Eh]
	 Correlation Energy        =      -0.6297664074189648 [Eh]
	 Total Energy              =    -153.6048892463409743 [Eh]

	 ================> DF-SCS-MP2 Energies <==================
	-----------------------------------------------------------
	 SCS Same-Spin Scale       =       0.3333333333333333 [-]
	 SCS Opposite-Spin Scale   =       1.2000000000000000 [-]
	 SCS Same-Spin Energy      =      -0.0481267814031551 [Eh]
	 SCS Opposite-Spin Energy  =      -0.5824632758513993 [Eh]
	 SCS Correlation Energy    =      -0.6305900572545544 [Eh]
	 SCS Total Energy          =    -153.6057128961765557 [Eh]
	-----------------------------------------------------------

  Dipole Moment: [D]
     X:    -2.5674      Y:     1.1972      Z:     0.0000     Total:     2.8328

*** Psi4 exiting successfully. Buy a developer a beer!
