                               Psi4 1.3.2 release

  ==> Input File <==

--------------------------------------------------------------------------
#psi4
#
memory 32 gb

molecule  {
0 1
  O        1.2408360    -0.2775280    -0.0000100
  C       -1.1702100    -0.1504720    -0.0000180
  C        0.2261640     0.4062520     0.0000350
  H       -1.7133170     0.2069280    -0.8812060
  H       -1.1329820    -1.2403210    -0.0006610
  H       -1.7128360     0.2058240     0.8819220
  H        0.2903585     1.4133146    -0.0000678
units angstrom
no_reorient  #important for SAPT in psi4, default
symmetry c1  #important for SAPT in psi4, default
}

set PROPERTIES_ORIGIN ["COM"]
properties('MP2/aug-cc-pvtz', properties = ['dipole'])
--------------------------------------------------------------------------

    Molecular point group: c1
  Charge       = 0
  Multiplicity = 1
  Basis Set: AUG-CC-PVTZ
    Blend: AUG-CC-PVTZ
  Basis Set: (AUG-CC-PVTZ AUX)
    Blend: AUG-CC-PVTZ-JKFIT

    Orbital Energies [Eh]
    ---------------------

    Doubly Occupied:

       1A    -20.559224     2A    -11.328275     3A    -11.242958
       4A     -1.384250     5A     -1.024321     6A     -0.827942
       7A     -0.677706     8A     -0.620834     9A     -0.603893
      10A     -0.563151    11A     -0.499173    12A     -0.432241

  @DF-RHF Final Energy:  -152.97014774028406

   => Energetics <=

    Nuclear Repulsion Energy =             69.7870685491879073
    One-Electron Energy =                -345.9864972594549499
    Two-Electron Energy =                 123.2292809699829945
    Total Energy =                       -152.9701477402840624
  Basis Set: (AUG-CC-PVTZ AUX)
    Blend: AUG-CC-PVTZ-RI
    Molecular point group: c1

    Geometry (in Angstrom), charge = 0, multiplicity = 1:

       Center              X                  Y                   Z               Mass
    ------------   -----------------  -----------------  -----------------  -----------------
         O            1.145067283855    -0.259826101465    -0.000010707549    15.994914619570
         C           -1.265978716145    -0.132770101465    -0.000018707549    12.000000000000
         C            0.130395283855     0.423953898535     0.000034292451    12.000000000000
         H           -1.809085716145     0.224629898535    -0.881206707549     1.007825032230
         H           -1.228750716145    -1.222619101465    -0.000661707549     1.007825032230
         H           -1.808604716145     0.223525898535     0.881921292451     1.007825032230
         H            0.194589783855     1.431016498535    -0.000068507549     1.007825032230

  Basis Set: AUG-CC-PVTZ
    Blend: AUG-CC-PVTZ
  Basis Set: (AUG-CC-PVTZ AUX)
    Blend: AUG-CC-PVTZ-JKFIT
	 Reference Energy          =    -152.9701477402840624 [Eh]
	 Singles Energy            =      -0.0000000000000000 [Eh]
	 Same-Spin Energy          =      -0.1441975172433635 [Eh]
	 Opposite-Spin Energy      =      -0.4851046758858680 [Eh]
	 Correlation Energy        =      -0.6293021931292315 [Eh]
	 Total Energy              =    -153.5994499334132968 [Eh]

	 ================> DF-SCS-MP2 Energies <==================
	-----------------------------------------------------------
	 SCS Same-Spin Scale       =       0.3333333333333333 [-]
	 SCS Opposite-Spin Scale   =       1.2000000000000000 [-]
	 SCS Same-Spin Energy      =      -0.0480658390811212 [Eh]
	 SCS Opposite-Spin Energy  =      -0.5821256110630415 [Eh]
	 SCS Correlation Energy    =      -0.6301914501441627 [Eh]
	 SCS Total Energy          =    -153.6003391904282296 [Eh]
	-----------------------------------------------------------

  Dipole Moment: [D]
     X:    -2.5668      Y:     1.2819      Z:     0.0001     Total:     2.8691

*** Psi4 exiting successfully. Buy a developer a beer!
