                               Psi4 1.3.2 release

  ==> Input File <==

--------------------------------------------------------------------------
#psi4
#
memory 32 gb

molecule  {
0 1
  O        1.2408360    -0.2775280    -0.0000100
  C       -1.1702100    -0.1504720    -0.0000180
  C        0.3190535     0.4432864     0.0000385
  H       -1.7133170     0.2069280    -0.8812060
  H       -1.1329820    -1.2403210    -0.0006610
  H       -1.7128360     0.2058240     0.8819220
  H        0.2967200     1.5131120    -0.0000780
units angstrom
no_reorient  #important for SAPT in psi4, default
symmetry c1  #important for SAPT in psi4, default
}

set PROPERTIES_ORIGIN ["COM"]
properties('MP2/aug-cc-pvtz', properties = ['dipole'])
--------------------------------------------------------------------------

    Molecular point group: c1
  Charge       = 0
  Multiplicity = 1
  Basis Set: AUG-CC-PVTZ
    Blend: AUG-CC-PVTZ
  Basis Set: (AUG-CC-PVTZ AUX)
    Blend: AUG-CC-PVTZ-JKFIT

    Orbital Energies [Eh]
    ---------------------

    Doubly Occupied:

       1A    -20.566472     2A    -11.336551     3A    -11.238326
       4A     -1.424753     5A     -0.993029     6A     -0.814816
       7A     -0.683140     8A     -0.626722     9A     -0.595991
      10A     -0.560186    11A     -0.523418    12A     -0.415125

  @DF-RHF Final Energy:  -152.97002948695808

   => Energetics <=

    Nuclear Repulsion Energy =             69.4307835251329095
    One-Electron Energy =                -345.2445662415670995
    Two-Electron Energy =                 122.8437532294760786
    Total Energy =                       -152.9700294869580830
  Basis Set: (AUG-CC-PVTZ AUX)
    Blend: AUG-CC-PVTZ-RI
    Molecular point group: c1

    Geometry (in Angstrom), charge = 0, multiplicity = 1:

       Center              X                  Y                   Z               Mass
    ------------   -----------------  -----------------  -----------------  -----------------
         O            1.119603244183    -0.272204888081    -0.000011428033    15.994914619570
         C           -1.291442755817    -0.145148888081    -0.000019428033    12.000000000000
         C            0.197820744183     0.448609511919     0.000037071967    12.000000000000
         H           -1.834549755817     0.212251111919    -0.881207428033     1.007825032230
         H           -1.254214755817    -1.234997888081    -0.000662428033     1.007825032230
         H           -1.834068755817     0.211147111919     0.881920571967     1.007825032230
         H            0.175487244183     1.518435111919    -0.000079428033     1.007825032230

  Basis Set: AUG-CC-PVTZ
    Blend: AUG-CC-PVTZ
  Basis Set: (AUG-CC-PVTZ AUX)
    Blend: AUG-CC-PVTZ-JKFIT
	 Reference Energy          =    -152.9700294869580830 [Eh]
	 Singles Energy            =      -0.0000000000000000 [Eh]
	 Same-Spin Energy          =      -0.1427342969649527 [Eh]
	 Opposite-Spin Energy      =      -0.4826222103925376 [Eh]
	 Correlation Energy        =      -0.6253565073574903 [Eh]
	 Total Energy              =    -153.5953859943155635 [Eh]

	 ================> DF-SCS-MP2 Energies <==================
	-----------------------------------------------------------
	 SCS Same-Spin Scale       =       0.3333333333333333 [-]
	 SCS Opposite-Spin Scale   =       1.2000000000000000 [-]
	 SCS Same-Spin Energy      =      -0.0475780989883176 [Eh]
	 SCS Opposite-Spin Energy  =      -0.5791466524710451 [Eh]
	 SCS Correlation Energy    =      -0.6267247514593627 [Eh]
	 SCS Total Energy          =    -153.5967542384174465 [Eh]
	-----------------------------------------------------------

  Dipole Moment: [D]
     X:    -2.0136      Y:     1.2943      Z:     0.0001     Total:     2.3937

*** Psi4 exiting successfully. Buy a developer a beer!
