                               Psi4 1.4a3.dev225

  ==> Input File <==

--------------------------------------------------------------------------
#psi4
#
memory 32 gb

molecule  {
0 1
  O        1.2409240    -0.2774600     0.0000000
  C       -1.1702280    -0.1505200     0.0000000
  C        0.2261800     0.4061290     0.0000000
  H       -1.7131240     0.2066740    -0.8814370
  H       -1.1334130    -1.2403610    -0.0000090
  H       -1.7131170     0.2066590     0.8814470
  H        0.2997212     1.5629523     0.0000000
units angstrom
no_reorient  #important for SAPT in psi4, default
symmetry c1  #important for SAPT in psi4, default
}

set PROPERTIES_ORIGIN ["COM"]
properties('MP2/aug-cc-pvtz', properties = ['dipole'])
--------------------------------------------------------------------------

    Molecular point group: c1
  Charge       = 0
  Multiplicity = 1
  Basis Set: AUG-CC-PVTZ
    Blend: AUG-CC-PVTZ
  Basis Set: (AUG-CC-PVTZ AUX)
    Blend: AUG-CC-PVTZ-JKFIT

    Orbital Energies [Eh]
    ---------------------

    Doubly Occupied:

       1A    -20.563109     2A    -11.346368     3A    -11.246295
       4A     -1.386684     5A     -1.022887     6A     -0.794098
       7A     -0.670631     8A     -0.622929     9A     -0.605700
      10A     -0.560486    11A     -0.502226    12A     -0.427317

  @DF-RHF Final Energy:  -152.97262694708041

   => Energetics <=

    Nuclear Repulsion Energy =             69.1462871832167849
    One-Electron Energy =                -344.7403643558586168
    Two-Electron Energy =                 122.6214502255614320
    Total Energy =                       -152.9726269470804141
  Basis Set: (AUG-CC-PVTZ AUX)
    Blend: AUG-CC-PVTZ-RI
    Molecular point group: c1

    Geometry (in Angstrom), charge = 0, multiplicity = 1:

       Center              X                  Y                   Z               Mass
    ------------   -----------------  -----------------  -----------------  -----------------
         O            1.144921412858    -0.263174009651    -0.000000022891    15.994914619570
         C           -1.266230587142    -0.136234009651    -0.000000022891    12.000000000000
         C            0.130177412858     0.420414990349    -0.000000022891    12.000000000000
         H           -1.809126587142     0.220959990349    -0.881437022891     1.007825032230
         H           -1.229415587142    -1.226075009651    -0.000009022891     1.007825032230
         H           -1.809119587142     0.220944990349     0.881446977109     1.007825032230
         H            0.203718612858     1.577238290349    -0.000000022891     1.007825032230

  Basis Set: AUG-CC-PVTZ
    Blend: AUG-CC-PVTZ
  Basis Set: (AUG-CC-PVTZ AUX)
    Blend: AUG-CC-PVTZ-JKFIT
	 Reference Energy          =    -152.9726269470804141 [Eh]
	 Singles Energy            =      -0.0000000000000000 [Eh]
	 Same-Spin Energy          =      -0.1446100953085625 [Eh]
	 Opposite-Spin Energy      =      -0.4858930144932785 [Eh]
	 Correlation Energy        =      -0.6305031098018410 [Eh]
	 Total Energy              =    -153.6031300568822644 [Eh]

	 ================> DF-SCS-MP2 Energies <==================
	-----------------------------------------------------------
	 SCS Same-Spin Scale       =       0.3333333333333333 [-]
	 SCS Opposite-Spin Scale   =       1.2000000000000000 [-]
	 SCS Same-Spin Energy      =      -0.0482033651028542 [Eh]
	 SCS Opposite-Spin Energy  =      -0.5830716173919342 [Eh]
	 SCS Correlation Energy    =      -0.6312749824947884 [Eh]
	 SCS Total Energy          =    -153.6039019295752155 [Eh]
	-----------------------------------------------------------

  Dipole Moment: [D]
     X:    -2.5681      Y:     1.1034      Z:     0.0000     Total:     2.7951

*** Psi4 exiting successfully. Buy a developer a beer!
