                               Psi4 1.3.2 release

  ==> Input File <==

--------------------------------------------------------------------------
#psi4
#
memory 32 gb

molecule  {
0 1
  O        1.2860624    -0.2050824    -0.0000218
  C       -1.1702100    -0.1504720    -0.0000180
  C        0.2261640     0.4062520     0.0000350
  H       -1.7133170     0.2069280    -0.8812060
  H       -1.1329820    -1.2403210    -0.0006610
  H       -1.7128360     0.2058240     0.8819220
  H        0.2967200     1.5131120    -0.0000780
units angstrom
no_reorient  #important for SAPT in psi4, default
symmetry c1  #important for SAPT in psi4, default
}

set PROPERTIES_ORIGIN ["COM"]
properties('MP2/aug-cc-pvtz', properties = ['dipole'])
--------------------------------------------------------------------------

    Molecular point group: c1
  Charge       = 0
  Multiplicity = 1
  Basis Set: AUG-CC-PVTZ
    Blend: AUG-CC-PVTZ
  Basis Set: (AUG-CC-PVTZ AUX)
    Blend: AUG-CC-PVTZ-JKFIT

    Orbital Energies [Eh]
    ---------------------

    Doubly Occupied:

       1A    -20.561549     2A    -11.340122     3A    -11.248704
       4A     -1.385209     5A     -1.025989     6A     -0.802014
       7A     -0.672276     8A     -0.624167     9A     -0.606638
      10A     -0.563368    11A     -0.501923    12A     -0.427642

  @DF-RHF Final Energy:  -152.97394409311269

   => Energetics <=

    Nuclear Repulsion Energy =             69.1358191401567268
    One-Electron Energy =                -344.7003249885089531
    Two-Electron Energy =                 122.5905617552395199
    Total Energy =                       -152.9739440931126921
  Basis Set: (AUG-CC-PVTZ AUX)
    Blend: AUG-CC-PVTZ-RI
    Molecular point group: c1

    Geometry (in Angstrom), charge = 0, multiplicity = 1:

       Center              X                  Y                   Z               Mass
    ------------   -----------------  -----------------  -----------------  -----------------
         O            1.173717112608    -0.215984811684    -0.000017987065    15.994914619570
         C           -1.282555287392    -0.161374411684    -0.000014187065    12.000000000000
         C            0.113818712608     0.395349588316     0.000038812935    12.000000000000
         H           -1.825662287392     0.196025588316    -0.881202187065     1.007825032230
         H           -1.245327287392    -1.251223411684    -0.000657187065     1.007825032230
         H           -1.825181287392     0.194921588316     0.881925812935     1.007825032230
         H            0.184374712608     1.502209588316    -0.000074187065     1.007825032230

  Basis Set: AUG-CC-PVTZ
    Blend: AUG-CC-PVTZ
  Basis Set: (AUG-CC-PVTZ AUX)
    Blend: AUG-CC-PVTZ-JKFIT
	 Reference Energy          =    -152.9739440931126921 [Eh]
	 Singles Energy            =      -0.0000000000000000 [Eh]
	 Same-Spin Energy          =      -0.1444212300224639 [Eh]
	 Opposite-Spin Energy      =      -0.4855397289034112 [Eh]
	 Correlation Energy        =      -0.6299609589258751 [Eh]
	 Total Energy              =    -153.6039050520385558 [Eh]

	 ================> DF-SCS-MP2 Energies <==================
	-----------------------------------------------------------
	 SCS Same-Spin Scale       =       0.3333333333333333 [-]
	 SCS Opposite-Spin Scale   =       1.2000000000000000 [-]
	 SCS Same-Spin Energy      =      -0.0481404100074880 [Eh]
	 SCS Opposite-Spin Energy  =      -0.5826476746840934 [Eh]
	 SCS Correlation Energy    =      -0.6307880846915813 [Eh]
	 SCS Total Energy          =    -153.6047321778042658 [Eh]
	-----------------------------------------------------------

  Dipole Moment: [D]
     X:    -2.6927      Y:     1.0148      Z:     0.0001     Total:     2.8776

*** Psi4 exiting successfully. Buy a developer a beer!
