                               Psi4 1.3.2 release

  ==> Input File <==

--------------------------------------------------------------------------
#psi4
#
memory 32 gb

molecule  {
0 1
  O        1.2408360    -0.2775280    -0.0000100
  C       -1.1797135    -0.1260171    -0.0000214
  C        0.2261640     0.4062520     0.0000350
  H       -1.7133170     0.2069280    -0.8812060
  H       -1.1329820    -1.2403210    -0.0006610
  H       -1.7128360     0.2058240     0.8819220
  H        0.2967200     1.5131120    -0.0000780
units angstrom
no_reorient  #important for SAPT in psi4, default
symmetry c1  #important for SAPT in psi4, default
}

set PROPERTIES_ORIGIN ["COM"]
properties('MP2/aug-cc-pvtz', properties = ['dipole'])
--------------------------------------------------------------------------

    Molecular point group: c1
  Charge       = 0
  Multiplicity = 1
  Basis Set: AUG-CC-PVTZ
    Blend: AUG-CC-PVTZ
  Basis Set: (AUG-CC-PVTZ AUX)
    Blend: AUG-CC-PVTZ-JKFIT

    Orbital Energies [Eh]
    ---------------------

    Doubly Occupied:

       1A    -20.562615     2A    -11.340830     3A    -11.245067
       4A     -1.385989     5A     -1.023917     6A     -0.803420
       7A     -0.673394     8A     -0.622465     9A     -0.610970
      10A     -0.553918    11A     -0.503335    12A     -0.429187

  @DF-RHF Final Energy:  -152.97396097567551

   => Energetics <=

    Nuclear Repulsion Energy =             69.3079706079626305
    One-Electron Energy =                -345.0536498582767422
    Two-Electron Energy =                 122.7717182746385731
    Total Energy =                       -152.9739609756755101
  Basis Set: (AUG-CC-PVTZ AUX)
    Blend: AUG-CC-PVTZ-RI
    Molecular point group: c1

    Geometry (in Angstrom), charge = 0, multiplicity = 1:

       Center              X                  Y                   Z               Mass
    ------------   -----------------  -----------------  -----------------  -----------------
         O            1.147511980081    -0.268776158156    -0.000009547335    15.994914619570
         C           -1.273037519919    -0.117265258156    -0.000020947335    12.000000000000
         C            0.132839980081     0.415003841844     0.000035452665    12.000000000000
         H           -1.806641019919     0.215679841844    -0.881205547335     1.007825032230
         H           -1.226306019919    -1.231569158156    -0.000660547335     1.007825032230
         H           -1.806160019919     0.214575841844     0.881922452665     1.007825032230
         H            0.203395980081     1.521863841844    -0.000077547335     1.007825032230

  Basis Set: AUG-CC-PVTZ
    Blend: AUG-CC-PVTZ
  Basis Set: (AUG-CC-PVTZ AUX)
    Blend: AUG-CC-PVTZ-JKFIT
	 Reference Energy          =    -152.9739609756755101 [Eh]
	 Singles Energy            =      -0.0000000000000000 [Eh]
	 Same-Spin Energy          =      -0.1444648299167961 [Eh]
	 Opposite-Spin Energy      =      -0.4856283129773262 [Eh]
	 Correlation Energy        =      -0.6300931428941223 [Eh]
	 Total Energy              =    -153.6040541185696213 [Eh]

	 ================> DF-SCS-MP2 Energies <==================
	-----------------------------------------------------------
	 SCS Same-Spin Scale       =       0.3333333333333333 [-]
	 SCS Opposite-Spin Scale   =       1.2000000000000000 [-]
	 SCS Same-Spin Energy      =      -0.0481549433055987 [Eh]
	 SCS Opposite-Spin Energy  =      -0.5827539755727914 [Eh]
	 SCS Correlation Energy    =      -0.6309089188783901 [Eh]
	 SCS Total Energy          =    -153.6048698945539002 [Eh]
	-----------------------------------------------------------

  Dipole Moment: [D]
     X:    -2.5616      Y:     1.1736      Z:     0.0001     Total:     2.8177

*** Psi4 exiting successfully. Buy a developer a beer!
