                               Psi4 1.3.2 release

  ==> Input File <==

--------------------------------------------------------------------------
#psi4
#
memory 32 gb

molecule  {
0 1
  O        1.2640815    -0.2416999    -0.0000071
  C       -1.1702100    -0.1504720    -0.0000180
  C        0.2261640     0.4062520     0.0000350
  H       -1.7133170     0.2069280    -0.8812060
  H       -1.1329820    -1.2403210    -0.0006610
  H       -1.7128360     0.2058240     0.8819220
  H        0.2967200     1.5131120    -0.0000780
units angstrom
no_reorient  #important for SAPT in psi4, default
symmetry c1  #important for SAPT in psi4, default
}

set PROPERTIES_ORIGIN ["COM"]
properties('MP2/aug-cc-pvtz', properties = ['dipole'])
--------------------------------------------------------------------------

    Molecular point group: c1
  Charge       = 0
  Multiplicity = 1
  Basis Set: AUG-CC-PVTZ
    Blend: AUG-CC-PVTZ
  Basis Set: (AUG-CC-PVTZ AUX)
    Blend: AUG-CC-PVTZ-JKFIT

    Orbital Energies [Eh]
    ---------------------

    Doubly Occupied:

       1A    -20.561586     2A    -11.340296     3A    -11.246890
       4A     -1.385392     5A     -1.024532     6A     -0.802924
       7A     -0.672758     8A     -0.623139     9A     -0.605831
      10A     -0.562379    11A     -0.501503    12A     -0.428556

  @DF-RHF Final Energy:  -152.97471887958801

   => Energetics <=

    Nuclear Repulsion Energy =             69.2368997677085360
    One-Electron Energy =                -344.9116626248642206
    Two-Electron Energy =                 122.7000439775676455
    Total Energy =                       -152.9747188795880106
  Basis Set: (AUG-CC-PVTZ AUX)
    Blend: AUG-CC-PVTZ-RI
    Molecular point group: c1

    Geometry (in Angstrom), charge = 0, multiplicity = 1:

       Center              X                  Y                   Z               Mass
    ------------   -----------------  -----------------  -----------------  -----------------
         O            1.159721968839    -0.239299015241    -0.000008627638    15.994914619570
         C           -1.274569531161    -0.148071115241    -0.000019527638    12.000000000000
         C            0.121804468839     0.408652884759     0.000033472362    12.000000000000
         H           -1.817676531161     0.209328884759    -0.881207527638     1.007825032230
         H           -1.237341531161    -1.237920115241    -0.000662527638     1.007825032230
         H           -1.817195531161     0.208224884759     0.881920472362     1.007825032230
         H            0.192360468839     1.515512884759    -0.000079527638     1.007825032230

  Basis Set: AUG-CC-PVTZ
    Blend: AUG-CC-PVTZ
  Basis Set: (AUG-CC-PVTZ AUX)
    Blend: AUG-CC-PVTZ-JKFIT
	 Reference Energy          =    -152.9747188795880106 [Eh]
	 Singles Energy            =      -0.0000000000000000 [Eh]
	 Same-Spin Energy          =      -0.1444233661398078 [Eh]
	 Opposite-Spin Energy      =      -0.4855063028845540 [Eh]
	 Correlation Energy        =      -0.6299296690243618 [Eh]
	 Total Energy              =    -153.6046485486123743 [Eh]

	 ================> DF-SCS-MP2 Energies <==================
	-----------------------------------------------------------
	 SCS Same-Spin Scale       =       0.3333333333333333 [-]
	 SCS Opposite-Spin Scale   =       1.2000000000000000 [-]
	 SCS Same-Spin Energy      =      -0.0481411220466026 [Eh]
	 SCS Opposite-Spin Energy  =      -0.5826075634614648 [Eh]
	 SCS Correlation Energy    =      -0.6307486855080674 [Eh]
	 SCS Total Energy          =    -153.6054675650960917 [Eh]
	-----------------------------------------------------------

  Dipole Moment: [D]
     X:    -2.6317      Y:     1.0947      Z:     0.0001     Total:     2.8503

*** Psi4 exiting successfully. Buy a developer a beer!
