                               Psi4 1.3.2 release

  ==> Input File <==

--------------------------------------------------------------------------
#psi4
#
memory 32 gb

molecule  {
0 1
  O        1.2408360    -0.2775280    -0.0000100
  C       -1.1279734    -0.2465220    -0.0000043
  C        0.2261640     0.4062520     0.0000350
  H       -1.7133170     0.2069280    -0.8812060
  H       -1.1329820    -1.2403210    -0.0006610
  H       -1.7128360     0.2058240     0.8819220
  H        0.2967200     1.5131120    -0.0000780
units angstrom
no_reorient  #important for SAPT in psi4, default
symmetry c1  #important for SAPT in psi4, default
}

set PROPERTIES_ORIGIN ["COM"]
properties('MP2/aug-cc-pvtz', properties = ['dipole'])
--------------------------------------------------------------------------

    Molecular point group: c1
  Charge       = 0
  Multiplicity = 1
  Basis Set: AUG-CC-PVTZ
    Blend: AUG-CC-PVTZ
  Basis Set: (AUG-CC-PVTZ AUX)
    Blend: AUG-CC-PVTZ-JKFIT

    Orbital Energies [Eh]
    ---------------------

    Doubly Occupied:

       1A    -20.557775     2A    -11.340179     3A    -11.247245
       4A     -1.384799     5A     -1.020821     6A     -0.809092
       7A     -0.671781     8A     -0.632019     9A     -0.583886
      10A     -0.578711    11A     -0.489774    12A     -0.428285

  @DF-RHF Final Energy:  -152.96206126559676

   => Energetics <=

    Nuclear Repulsion Energy =             69.5198662576050737
    One-Electron Energy =                -345.4751194780487253
    Two-Electron Energy =                 122.9931919548468784
    Total Energy =                       -152.9620612655967591
  Basis Set: (AUG-CC-PVTZ AUX)
    Blend: AUG-CC-PVTZ-RI
    Molecular point group: c1

    Geometry (in Angstrom), charge = 0, multiplicity = 1:

       Center              X                  Y                   Z               Mass
    ------------   -----------------  -----------------  -----------------  -----------------
         O            1.133409445863    -0.235930754383    -0.000014208195    15.994914619570
         C           -1.235399954137    -0.204924754383    -0.000008508195    12.000000000000
         C            0.118737445863     0.447849245617     0.000030791805    12.000000000000
         H           -1.820743554137     0.248525245617    -0.881210208195     1.007825032230
         H           -1.240408554137    -1.198723754383    -0.000665208195     1.007825032230
         H           -1.820262554137     0.247421245617     0.881917791805     1.007825032230
         H            0.189293445863     1.554709245617    -0.000082208195     1.007825032230

  Basis Set: AUG-CC-PVTZ
    Blend: AUG-CC-PVTZ
  Basis Set: (AUG-CC-PVTZ AUX)
    Blend: AUG-CC-PVTZ-JKFIT
	 Reference Energy          =    -152.9620612655967591 [Eh]
	 Singles Energy            =      -0.0000000000000000 [Eh]
	 Same-Spin Energy          =      -0.1445910729796855 [Eh]
	 Opposite-Spin Energy      =      -0.4857878998679996 [Eh]
	 Correlation Energy        =      -0.6303789728476852 [Eh]
	 Total Energy              =    -153.5924402384444534 [Eh]

	 ================> DF-SCS-MP2 Energies <==================
	-----------------------------------------------------------
	 SCS Same-Spin Scale       =       0.3333333333333333 [-]
	 SCS Opposite-Spin Scale   =       1.2000000000000000 [-]
	 SCS Same-Spin Energy      =      -0.0481970243265618 [Eh]
	 SCS Opposite-Spin Energy  =      -0.5829454798415995 [Eh]
	 SCS Correlation Energy    =      -0.6311425041681613 [Eh]
	 SCS Total Energy          =    -153.5932037697649264 [Eh]
	-----------------------------------------------------------

  Dipole Moment: [D]
     X:    -2.5767      Y:     1.1796      Z:     0.0001     Total:     2.8338

*** Psi4 exiting successfully. Buy a developer a beer!
