                               Psi4 1.3.2 release

  ==> Input File <==

--------------------------------------------------------------------------
#psi4
#
memory 32 gb

molecule  {
0 1
  O        1.2408360    -0.2775280    -0.0000100
  C       -1.1602812    -0.1747573    -0.0000146
  C        0.2261640     0.4062520     0.0000350
  H       -1.7133170     0.2069280    -0.8812060
  H       -1.1329820    -1.2403210    -0.0006610
  H       -1.7128360     0.2058240     0.8819220
  H        0.2967200     1.5131120    -0.0000780
units angstrom
no_reorient  #important for SAPT in psi4, default
symmetry c1  #important for SAPT in psi4, default
}

set PROPERTIES_ORIGIN ["COM"]
properties('MP2/aug-cc-pvtz', properties = ['dipole'])
--------------------------------------------------------------------------

    Molecular point group: c1
  Charge       = 0
  Multiplicity = 1
  Basis Set: AUG-CC-PVTZ
    Blend: AUG-CC-PVTZ
  Basis Set: (AUG-CC-PVTZ AUX)
    Blend: AUG-CC-PVTZ-JKFIT

    Orbital Energies [Eh]
    ---------------------

    Doubly Occupied:

       1A    -20.560599     2A    -11.340229     3A    -11.245262
       4A     -1.385351     5A     -1.022233     6A     -0.804598
       7A     -0.673046     8A     -0.622557     9A     -0.599293
      10A     -0.567956    11A     -0.498585    12A     -0.429027

  @DF-RHF Final Energy:  -152.97435006004196

   => Energetics <=

    Nuclear Repulsion Energy =             69.3852575825134323
    One-Electron Energy =                -345.2217429983500097
    Two-Electron Energy =                 122.8621353557946492
    Total Energy =                       -152.9743500600419566
  Basis Set: (AUG-CC-PVTZ AUX)
    Blend: AUG-CC-PVTZ-RI
    Molecular point group: c1

    Geometry (in Angstrom), charge = 0, multiplicity = 1:

       Center              X                  Y                   Z               Mass
    ------------   -----------------  -----------------  -----------------  -----------------
         O            1.142215417537    -0.255491291325    -0.000011400776    15.994914619570
         C           -1.258901782463    -0.152720591325    -0.000016000776    12.000000000000
         C            0.127543417537     0.428288708675     0.000033599224    12.000000000000
         H           -1.811937582463     0.228964708675    -0.881207400776     1.007825032230
         H           -1.231602582463    -1.218284291325    -0.000662400776     1.007825032230
         H           -1.811456582463     0.227860708675     0.881920599224     1.007825032230
         H            0.198099417537     1.535148708675    -0.000079400776     1.007825032230

  Basis Set: AUG-CC-PVTZ
    Blend: AUG-CC-PVTZ
  Basis Set: (AUG-CC-PVTZ AUX)
    Blend: AUG-CC-PVTZ-JKFIT
	 Reference Energy          =    -152.9743500600419566 [Eh]
	 Singles Energy            =      -0.0000000000000000 [Eh]
	 Same-Spin Energy          =      -0.1444410338917313 [Eh]
	 Opposite-Spin Energy      =      -0.4854622875266564 [Eh]
	 Correlation Energy        =      -0.6299033214183878 [Eh]
	 Total Energy              =    -153.6042533814603530 [Eh]

	 ================> DF-SCS-MP2 Energies <==================
	-----------------------------------------------------------
	 SCS Same-Spin Scale       =       0.3333333333333333 [-]
	 SCS Opposite-Spin Scale   =       1.2000000000000000 [-]
	 SCS Same-Spin Energy      =      -0.0481470112972438 [Eh]
	 SCS Opposite-Spin Energy  =      -0.5825547450319877 [Eh]
	 SCS Correlation Energy    =      -0.6307017563292314 [Eh]
	 SCS Total Energy          =    -153.6050518163712013 [Eh]
	-----------------------------------------------------------

  Dipole Moment: [D]
     X:    -2.5717      Y:     1.1727      Z:     0.0001     Total:     2.8264

*** Psi4 exiting successfully. Buy a developer a beer!
