                               Psi4 1.3.2 release

  ==> Input File <==

--------------------------------------------------------------------------
#psi4
#
memory 32 gb

molecule  {
0 1
  O        1.2408360    -0.2775280    -0.0000100
  C       -1.1043670    -0.2933830     0.0000026
  C        0.2261640     0.4062520     0.0000350
  H       -1.7133170     0.2069280    -0.8812060
  H       -1.1329820    -1.2403210    -0.0006610
  H       -1.7128360     0.2058240     0.8819220
  H        0.2967200     1.5131120    -0.0000780
units angstrom
no_reorient  #important for SAPT in psi4, default
symmetry c1  #important for SAPT in psi4, default
}

set PROPERTIES_ORIGIN ["COM"]
properties('MP2/aug-cc-pvtz', properties = ['dipole'])
--------------------------------------------------------------------------

    Molecular point group: c1
  Charge       = 0
  Multiplicity = 1
  Basis Set: AUG-CC-PVTZ
    Blend: AUG-CC-PVTZ
  Basis Set: (AUG-CC-PVTZ AUX)
    Blend: AUG-CC-PVTZ-JKFIT

    Orbital Energies [Eh]
    ---------------------

    Doubly Occupied:

       1A    -20.556052     2A    -11.340754     3A    -11.249691
       4A     -1.384736     5A     -1.020800     6A     -0.814132
       7A     -0.670599     8A     -0.644273     9A     -0.578502
      10A     -0.575488    11A     -0.482673    12A     -0.427473

  @DF-RHF Final Energy:  -152.94400506936722

   => Energetics <=

    Nuclear Repulsion Energy =             69.6258647941086082
    One-Electron Energy =                -345.6493932311685739
    Two-Electron Energy =                 123.0795233676927438
    Total Energy =                       -152.9440050693672219
  Basis Set: (AUG-CC-PVTZ AUX)
    Blend: AUG-CC-PVTZ-RI
    Molecular point group: c1

    Geometry (in Angstrom), charge = 0, multiplicity = 1:

       Center              X                  Y                   Z               Mass
    ------------   -----------------  -----------------  -----------------  -----------------
         O            1.126975170247    -0.223158091477    -0.000016088892    15.994914619570
         C           -1.218227829753    -0.239013091477    -0.000003488892    12.000000000000
         C            0.112303170247     0.460621908523     0.000028911108    12.000000000000
         H           -1.827177829753     0.261297908523    -0.881212088892     1.007825032230
         H           -1.246842829753    -1.185951091477    -0.000667088892     1.007825032230
         H           -1.826696829753     0.260193908523     0.881915911108     1.007825032230
         H            0.182859170247     1.567481908523    -0.000084088892     1.007825032230

  Basis Set: AUG-CC-PVTZ
    Blend: AUG-CC-PVTZ
  Basis Set: (AUG-CC-PVTZ AUX)
    Blend: AUG-CC-PVTZ-JKFIT
	 Reference Energy          =    -152.9440050693672219 [Eh]
	 Singles Energy            =      -0.0000000000000000 [Eh]
	 Same-Spin Energy          =      -0.1448205621814738 [Eh]
	 Opposite-Spin Energy      =      -0.4864286313197403 [Eh]
	 Correlation Energy        =      -0.6312491935012141 [Eh]
	 Total Energy              =    -153.5752542628684409 [Eh]

	 ================> DF-SCS-MP2 Energies <==================
	-----------------------------------------------------------
	 SCS Same-Spin Scale       =       0.3333333333333333 [-]
	 SCS Opposite-Spin Scale   =       1.2000000000000000 [-]
	 SCS Same-Spin Energy      =      -0.0482735207271579 [Eh]
	 SCS Opposite-Spin Energy  =      -0.5837143575836884 [Eh]
	 SCS Correlation Energy    =      -0.6319878783108464 [Eh]
	 SCS Total Energy          =    -153.5759929476780599 [Eh]
	-----------------------------------------------------------

  Dipole Moment: [D]
     X:    -2.5715      Y:     1.1893      Z:     0.0002     Total:     2.8332

*** Psi4 exiting successfully. Buy a developer a beer!
