                               Psi4 1.3.2 release

  ==> Input File <==

--------------------------------------------------------------------------
#psi4
#
memory 32 gb

molecule  {
0 1
  O        1.2408360    -0.2775280    -0.0000100
  C       -1.1702100    -0.1504720    -0.0000180
  C        0.0603091     0.5180204     0.0000424
  H       -1.7133170     0.2069280    -0.8812060
  H       -1.1329820    -1.2403210    -0.0006610
  H       -1.7128360     0.2058240     0.8819220
  H        0.2967200     1.5131120    -0.0000780
units angstrom
no_reorient  #important for SAPT in psi4, default
symmetry c1  #important for SAPT in psi4, default
}

set PROPERTIES_ORIGIN ["COM"]
properties('MP2/aug-cc-pvtz', properties = ['dipole'])
--------------------------------------------------------------------------

    Molecular point group: c1
  Charge       = 0
  Multiplicity = 1
  Basis Set: AUG-CC-PVTZ
    Blend: AUG-CC-PVTZ
  Basis Set: (AUG-CC-PVTZ AUX)
    Blend: AUG-CC-PVTZ-JKFIT

    Orbital Energies [Eh]
    ---------------------

    Doubly Occupied:

       1A    -20.550770     2A    -11.355384     3A    -11.255436
       4A     -1.276767     5A     -1.064219     6A     -0.838025
       7A     -0.670104     8A     -0.620541     9A     -0.618074
      10A     -0.527325    11A     -0.437038    12A     -0.431212

  @DF-RHF Final Energy:  -152.90249348366154

   => Energetics <=

    Nuclear Repulsion Energy =             67.8082991070578629
    One-Electron Energy =                -342.1317990502255384
    Two-Electron Energy =                 121.4210064595061311
    Total Energy =                       -152.9024934836615444
  Basis Set: (AUG-CC-PVTZ AUX)
    Blend: AUG-CC-PVTZ-RI
    Molecular point group: c1

    Geometry (in Angstrom), charge = 0, multiplicity = 1:

       Center              X                  Y                   Z               Mass
    ------------   -----------------  -----------------  -----------------  -----------------
         O            1.190127880874    -0.292574751925    -0.000012491036    15.994914619570
         C           -1.220918119126    -0.165518751925    -0.000020491036    12.000000000000
         C            0.009600980874     0.502973648075     0.000039908964    12.000000000000
         H           -1.764025119126     0.191881248075    -0.881208491036     1.007825032230
         H           -1.183690119126    -1.255367751925    -0.000663491036     1.007825032230
         H           -1.763544119126     0.190777248075     0.881919508964     1.007825032230
         H            0.246011880874     1.498065248075    -0.000080491036     1.007825032230

  Basis Set: AUG-CC-PVTZ
    Blend: AUG-CC-PVTZ
  Basis Set: (AUG-CC-PVTZ AUX)
    Blend: AUG-CC-PVTZ-JKFIT
	 Reference Energy          =    -152.9024934836615444 [Eh]
	 Singles Energy            =      -0.0000000000000000 [Eh]
	 Same-Spin Energy          =      -0.1516025204049922 [Eh]
	 Opposite-Spin Energy      =      -0.5006850480545455 [Eh]
	 Correlation Energy        =      -0.6522875684595377 [Eh]
	 Total Energy              =    -153.5547810521210863 [Eh]

	 ================> DF-SCS-MP2 Energies <==================
	-----------------------------------------------------------
	 SCS Same-Spin Scale       =       0.3333333333333333 [-]
	 SCS Opposite-Spin Scale   =       1.2000000000000000 [-]
	 SCS Same-Spin Energy      =      -0.0505341734683307 [Eh]
	 SCS Opposite-Spin Energy  =      -0.6008220576654546 [Eh]
	 SCS Correlation Energy    =      -0.6513562311337853 [Eh]
	 SCS Total Energy          =    -153.5538497147953194 [Eh]
	-----------------------------------------------------------

  Dipole Moment: [D]
     X:    -3.1890      Y:     1.4041      Z:     0.0001     Total:     3.4844

*** Psi4 exiting successfully. Buy a developer a beer!
