                               Psi4 1.4a3.dev225

  ==> Input File <==

--------------------------------------------------------------------------
#psi4
#
memory 32 gb

molecule  {
0 1
  O        1.2409240    -0.2774600     0.0000000
  C       -1.1702280    -0.1505200     0.0000000
  C        0.2261800     0.4061290     0.0000000
  H       -1.7131240     0.2066740    -0.8814370
  H       -1.1334130    -1.2403610    -0.0000090
  H       -1.7131170     0.2066590     0.8814470
  H        0.2978179     1.5330127     0.0000000
units angstrom
no_reorient  #important for SAPT in psi4, default
symmetry c1  #important for SAPT in psi4, default
}

set PROPERTIES_ORIGIN ["COM"]
properties('MP2/aug-cc-pvtz', properties = ['dipole'])
--------------------------------------------------------------------------

    Molecular point group: c1
  Charge       = 0
  Multiplicity = 1
  Basis Set: AUG-CC-PVTZ
    Blend: AUG-CC-PVTZ
  Basis Set: (AUG-CC-PVTZ AUX)
    Blend: AUG-CC-PVTZ-JKFIT

    Orbital Energies [Eh]
    ---------------------

    Doubly Occupied:

       1A    -20.562177     2A    -11.342855     3A    -11.245540
       4A     -1.386054     5A     -1.022929     6A     -0.799746
       7A     -0.672250     8A     -0.622413     9A     -0.605263
      10A     -0.561066    11A     -0.501515    12A     -0.428433

  @DF-RHF Final Energy:  -152.97431131432353

   => Energetics <=

    Nuclear Repulsion Energy =             69.2641297903960123
    One-Electron Energy =                -344.9764028235758246
    Two-Electron Energy =                 122.7379617188563117
    Total Energy =                       -152.9743113143235291
  Basis Set: (AUG-CC-PVTZ AUX)
    Blend: AUG-CC-PVTZ-RI
    Molecular point group: c1

    Geometry (in Angstrom), charge = 0, multiplicity = 1:

       Center              X                  Y                   Z               Mass
    ------------   -----------------  -----------------  -----------------  -----------------
         O            1.144964982204    -0.262488648021    -0.000000022891    15.994914619570
         C           -1.266187017796    -0.135548648021    -0.000000022891    12.000000000000
         C            0.130220982204     0.421100351979    -0.000000022891    12.000000000000
         H           -1.809083017796     0.221645351979    -0.881437022891     1.007825032230
         H           -1.229372017796    -1.225389648021    -0.000009022891     1.007825032230
         H           -1.809076017796     0.221630351979     0.881446977109     1.007825032230
         H            0.201858882204     1.547984051979    -0.000000022891     1.007825032230

  Basis Set: AUG-CC-PVTZ
    Blend: AUG-CC-PVTZ
  Basis Set: (AUG-CC-PVTZ AUX)
    Blend: AUG-CC-PVTZ-JKFIT
	 Reference Energy          =    -152.9743113143235291 [Eh]
	 Singles Energy            =      -0.0000000000000000 [Eh]
	 Same-Spin Energy          =      -0.1445045425010014 [Eh]
	 Opposite-Spin Energy      =      -0.4856467881639609 [Eh]
	 Correlation Energy        =      -0.6301513306649623 [Eh]
	 Total Energy              =    -153.6044626449885016 [Eh]

	 ================> DF-SCS-MP2 Energies <==================
	-----------------------------------------------------------
	 SCS Same-Spin Scale       =       0.3333333333333333 [-]
	 SCS Opposite-Spin Scale   =       1.2000000000000000 [-]
	 SCS Same-Spin Energy      =      -0.0481681808336671 [Eh]
	 SCS Opposite-Spin Energy  =      -0.5827761457967531 [Eh]
	 SCS Correlation Energy    =      -0.6309443266304202 [Eh]
	 SCS Total Energy          =    -153.6052556409539420 [Eh]
	-----------------------------------------------------------

  Dipole Moment: [D]
     X:    -2.5677      Y:     1.1459      Z:     0.0000     Total:     2.8118

*** Psi4 exiting successfully. Buy a developer a beer!
