                               Psi4 1.3.2 release

  ==> Input File <==

--------------------------------------------------------------------------
#psi4
#
memory 32 gb

molecule  {
0 1
  O        1.2408360    -0.2775280    -0.0000100
  C       -1.1702100    -0.1504720    -0.0000180
  C        0.1332745     0.3692176     0.0000315
  H       -1.7133170     0.2069280    -0.8812060
  H       -1.1329820    -1.2403210    -0.0006610
  H       -1.7128360     0.2058240     0.8819220
  H        0.2967200     1.5131120    -0.0000780
units angstrom
no_reorient  #important for SAPT in psi4, default
symmetry c1  #important for SAPT in psi4, default
}

set PROPERTIES_ORIGIN ["COM"]
properties('MP2/aug-cc-pvtz', properties = ['dipole'])
--------------------------------------------------------------------------

    Molecular point group: c1
  Charge       = 0
  Multiplicity = 1
  Basis Set: AUG-CC-PVTZ
    Blend: AUG-CC-PVTZ
  Basis Set: (AUG-CC-PVTZ AUX)
    Blend: AUG-CC-PVTZ-JKFIT

    Orbital Energies [Eh]
    ---------------------

    Doubly Occupied:

       1A    -20.557249     2A    -11.346628     3A    -11.248619
       4A     -1.347809     5A     -1.058803     6A     -0.794103
       7A     -0.673380     8A     -0.622611     9A     -0.619278
      10A     -0.552076    11A     -0.476242    12A     -0.432742

  @DF-RHF Final Energy:  -152.95460362922643

   => Energetics <=

    Nuclear Repulsion Energy =             69.3679938409229919
    One-Electron Energy =                -345.1861173867519028
    Two-Electron Energy =                 122.8635199166025274
    Total Energy =                       -152.9546036292264262
  Basis Set: (AUG-CC-PVTZ AUX)
    Blend: AUG-CC-PVTZ-RI
    Molecular point group: c1

    Geometry (in Angstrom), charge = 0, multiplicity = 1:

       Center              X                  Y                   Z               Mass
    ------------   -----------------  -----------------  -----------------  -----------------
         O            1.170240075279    -0.252016334396    -0.000009520079    15.994914619570
         C           -1.240805924721    -0.124960334396    -0.000017520079    12.000000000000
         C            0.062678575279     0.394729265604     0.000031979921    12.000000000000
         H           -1.783912924721     0.232439665604    -0.881205520079     1.007825032230
         H           -1.203577924721    -1.214809334396    -0.000660520079     1.007825032230
         H           -1.783431924721     0.231335665604     0.881922479921     1.007825032230
         H            0.226124075279     1.538623665604    -0.000077520079     1.007825032230

  Basis Set: AUG-CC-PVTZ
    Blend: AUG-CC-PVTZ
  Basis Set: (AUG-CC-PVTZ AUX)
    Blend: AUG-CC-PVTZ-JKFIT
	 Reference Energy          =    -152.9546036292264262 [Eh]
	 Singles Energy            =      -0.0000000000000000 [Eh]
	 Same-Spin Energy          =      -0.1471664916821263 [Eh]
	 Opposite-Spin Energy      =      -0.4901627730093664 [Eh]
	 Correlation Energy        =      -0.6373292646914928 [Eh]
	 Total Energy              =    -153.5919328939179138 [Eh]

	 ================> DF-SCS-MP2 Energies <==================
	-----------------------------------------------------------
	 SCS Same-Spin Scale       =       0.3333333333333333 [-]
	 SCS Opposite-Spin Scale   =       1.2000000000000000 [-]
	 SCS Same-Spin Energy      =      -0.0490554972273754 [Eh]
	 SCS Opposite-Spin Energy  =      -0.5881953276112396 [Eh]
	 SCS Correlation Energy    =      -0.6372508248386151 [Eh]
	 SCS Total Energy          =    -153.5918544540650430 [Eh]
	-----------------------------------------------------------

  Dipole Moment: [D]
     X:    -3.0403      Y:     1.0655      Z:     0.0001     Total:     3.2216

*** Psi4 exiting successfully. Buy a developer a beer!
