                               Psi4 1.4a3.dev225

  ==> Input File <==

--------------------------------------------------------------------------
#psi4
#
memory 32 gb

molecule  {
0 1
  O        1.2409240    -0.2774600     0.0000000
  C       -1.1702280    -0.1505200     0.0000000
  C        0.1797342     0.3876144     0.0000000
  H       -1.7131240     0.2066740    -0.8814370
  H       -1.1334130    -1.2403610    -0.0000090
  H       -1.7131170     0.2066590     0.8814470
  H        0.2965490     1.5130530     0.0000000
units angstrom
no_reorient  #important for SAPT in psi4, default
symmetry c1  #important for SAPT in psi4, default
}

set PROPERTIES_ORIGIN ["COM"]
properties('MP2/aug-cc-pvtz', properties = ['dipole'])
--------------------------------------------------------------------------

    Molecular point group: c1
  Charge       = 0
  Multiplicity = 1
  Basis Set: AUG-CC-PVTZ
    Blend: AUG-CC-PVTZ
  Basis Set: (AUG-CC-PVTZ AUX)
    Blend: AUG-CC-PVTZ-JKFIT

    Orbital Energies [Eh]
    ---------------------

    Doubly Occupied:

       1A    -20.559497     2A    -11.343427     3A    -11.247164
       4A     -1.366563     5A     -1.040166     6A     -0.798777
       7A     -0.672058     8A     -0.621776     9A     -0.611585
      10A     -0.558293    11A     -0.488767    12A     -0.432177

  @DF-RHF Final Energy:  -152.96820445039461

   => Energetics <=

    Nuclear Repulsion Energy =             69.3394158007361909
    One-Electron Energy =                -345.1347406801606326
    Two-Electron Energy =                 122.8271204290298613
    Total Energy =                       -152.9682044503946088
  Basis Set: (AUG-CC-PVTZ AUX)
    Blend: AUG-CC-PVTZ-RI
    Molecular point group: c1

    Geometry (in Angstrom), charge = 0, multiplicity = 1:

       Center              X                  Y                   Z               Mass
    ------------   -----------------  -----------------  -----------------  -----------------
         O            1.157653523165    -0.256985311277    -0.000000022891    15.994914619570
         C           -1.253498476835    -0.130045311277    -0.000000022891    12.000000000000
         C            0.096463723165     0.408089088723    -0.000000022891    12.000000000000
         H           -1.796394476835     0.227148688723    -0.881437022891     1.007825032230
         H           -1.216683476835    -1.219886311277    -0.000009022891     1.007825032230
         H           -1.796387476835     0.227133688723     0.881446977109     1.007825032230
         H            0.213278523165     1.533527688723    -0.000000022891     1.007825032230

  Basis Set: AUG-CC-PVTZ
    Blend: AUG-CC-PVTZ
  Basis Set: (AUG-CC-PVTZ AUX)
    Blend: AUG-CC-PVTZ-JKFIT
	 Reference Energy          =    -152.9682044503943530 [Eh]
	 Singles Energy            =      -0.0000000000000000 [Eh]
	 Same-Spin Energy          =      -0.1456743062012671 [Eh]
	 Opposite-Spin Energy      =      -0.4876146135078996 [Eh]
	 Correlation Energy        =      -0.6332889197091667 [Eh]
	 Total Energy              =    -153.6014933701035261 [Eh]

	 ================> DF-SCS-MP2 Energies <==================
	-----------------------------------------------------------
	 SCS Same-Spin Scale       =       0.3333333333333333 [-]
	 SCS Opposite-Spin Scale   =       1.2000000000000000 [-]
	 SCS Same-Spin Energy      =      -0.0485581020670890 [Eh]
	 SCS Opposite-Spin Energy  =      -0.5851375362094795 [Eh]
	 SCS Correlation Energy    =      -0.6336956382765685 [Eh]
	 SCS Total Energy          =    -153.6019000886709307 [Eh]
	-----------------------------------------------------------

  Dipole Moment: [D]
     X:    -2.8114      Y:     1.1178      Z:     0.0000     Total:     3.0255

*** Psi4 exiting successfully. Buy a developer a beer!
