                               Psi4 1.3.2 release

  ==> Input File <==

--------------------------------------------------------------------------
#psi4
#
memory 32 gb

molecule  {
0 1
  O        1.2408360    -0.2775280    -0.0000100
  C       -1.1702100    -0.1504720    -0.0000180
  C        0.1432366     0.4621362     0.0000387
  H       -1.7133170     0.2069280    -0.8812060
  H       -1.1329820    -1.2403210    -0.0006610
  H       -1.7128360     0.2058240     0.8819220
  H        0.2967200     1.5131120    -0.0000780
units angstrom
no_reorient  #important for SAPT in psi4, default
symmetry c1  #important for SAPT in psi4, default
}

set PROPERTIES_ORIGIN ["COM"]
properties('MP2/aug-cc-pvtz', properties = ['dipole'])
--------------------------------------------------------------------------

    Molecular point group: c1
  Charge       = 0
  Multiplicity = 1
  Basis Set: AUG-CC-PVTZ
    Blend: AUG-CC-PVTZ
  Basis Set: (AUG-CC-PVTZ AUX)
    Blend: AUG-CC-PVTZ-JKFIT

    Orbital Energies [Eh]
    ---------------------

    Doubly Occupied:

       1A    -20.556687     2A    -11.347709     3A    -11.250169
       4A     -1.324728     5A     -1.043826     6A     -0.821147
       7A     -0.667010     8A     -0.611056     9A     -0.611053
      10A     -0.553611    11A     -0.463176    12A     -0.438527

  @DF-RHF Final Energy:  -152.94944501978264

   => Energetics <=

    Nuclear Repulsion Energy =             68.4794060312262332
    One-Electron Energy =                -343.4803039895243728
    Two-Electron Energy =                 122.0514529385154958
    Total Energy =                       -152.9494450197826438
  Basis Set: (AUG-CC-PVTZ AUX)
    Blend: AUG-CC-PVTZ-RI
    Molecular point group: c1

    Geometry (in Angstrom), charge = 0, multiplicity = 1:

       Center              X                  Y                   Z               Mass
    ------------   -----------------  -----------------  -----------------  -----------------
         O            1.167524756674    -0.277342681582    -0.000011482546    15.994914619570
         C           -1.243521243326    -0.150286681582    -0.000019482546    12.000000000000
         C            0.069925356674     0.462321518418     0.000037217454    12.000000000000
         H           -1.786628243326     0.207113318418    -0.881207482546     1.007825032230
         H           -1.206293243326    -1.240135681582    -0.000662482546     1.007825032230
         H           -1.786147243326     0.206009318418     0.881920517454     1.007825032230
         H            0.223408756674     1.513297318418    -0.000079482546     1.007825032230

  Basis Set: AUG-CC-PVTZ
    Blend: AUG-CC-PVTZ
  Basis Set: (AUG-CC-PVTZ AUX)
    Blend: AUG-CC-PVTZ-JKFIT
	 Reference Energy          =    -152.9494450197826438 [Eh]
	 Singles Energy            =      -0.0000000000000000 [Eh]
	 Same-Spin Energy          =      -0.1476368432121196 [Eh]
	 Opposite-Spin Energy      =      -0.4924812751823587 [Eh]
	 Correlation Energy        =      -0.6401181183944783 [Eh]
	 Total Energy              =    -153.5895631381771125 [Eh]

	 ================> DF-SCS-MP2 Energies <==================
	-----------------------------------------------------------
	 SCS Same-Spin Scale       =       0.3333333333333333 [-]
	 SCS Opposite-Spin Scale   =       1.2000000000000000 [-]
	 SCS Same-Spin Energy      =      -0.0492122810707065 [Eh]
	 SCS Opposite-Spin Energy  =      -0.5909775302188305 [Eh]
	 SCS Correlation Energy    =      -0.6401898112895370 [Eh]
	 SCS Total Energy          =    -153.5896348310721748 [Eh]
	-----------------------------------------------------------

  Dipole Moment: [D]
     X:    -2.9437      Y:     1.3449      Z:     0.0001     Total:     3.2363

*** Psi4 exiting successfully. Buy a developer a beer!
