                               Psi4 1.4a3.dev225

  ==> Input File <==

--------------------------------------------------------------------------
#psi4
#
memory 32 gb

molecule  {
0 1
  O        1.2409240    -0.2774600     0.0000000
  C       -1.1702280    -0.1505200     0.0000000
  C        0.2676482     0.3781936     0.0000000
  H       -1.7131240     0.2066740    -0.8814370
  H       -1.1334130    -1.2403610    -0.0000090
  H       -1.7131170     0.2066590     0.8814470
  H        0.2965490     1.5130530     0.0000000
units angstrom
no_reorient  #important for SAPT in psi4, default
symmetry c1  #important for SAPT in psi4, default
}

set PROPERTIES_ORIGIN ["COM"]
properties('MP2/aug-cc-pvtz', properties = ['dipole'])
--------------------------------------------------------------------------

    Molecular point group: c1
  Charge       = 0
  Multiplicity = 1
  Basis Set: AUG-CC-PVTZ
    Blend: AUG-CC-PVTZ
  Basis Set: (AUG-CC-PVTZ AUX)
    Blend: AUG-CC-PVTZ-JKFIT

    Orbital Energies [Eh]
    ---------------------

    Doubly Occupied:

       1A    -20.564346     2A    -11.337139     3A    -11.242307
       4A     -1.421463     5A     -1.012720     6A     -0.795493
       7A     -0.680576     8A     -0.632812     9A     -0.605086
      10A     -0.561349    11A     -0.521013    12A     -0.419536

  @DF-RHF Final Energy:  -152.97594391845621

   => Energetics <=

    Nuclear Repulsion Energy =             69.8745055748248234
    One-Electron Energy =                -346.1132178303040519
    Two-Electron Energy =                 123.2627683370230187
    Total Energy =                       -152.9759439184562098
  Basis Set: (AUG-CC-PVTZ AUX)
    Blend: AUG-CC-PVTZ-RI
    Molecular point group: c1

    Geometry (in Angstrom), charge = 0, multiplicity = 1:

       Center              X                  Y                   Z               Mass
    ------------   -----------------  -----------------  -----------------  -----------------
         O            1.133691254184    -0.254417532043    -0.000000022891    15.994914619570
         C           -1.277460745816    -0.127477532043    -0.000000022891    12.000000000000
         C            0.160415454184     0.401236067957    -0.000000022891    12.000000000000
         H           -1.820356745816     0.229716467957    -0.881437022891     1.007825032230
         H           -1.240645745816    -1.217318532043    -0.000009022891     1.007825032230
         H           -1.820349745816     0.229701467957     0.881446977109     1.007825032230
         H            0.189316254184     1.536095467957    -0.000000022891     1.007825032230

  Basis Set: AUG-CC-PVTZ
    Blend: AUG-CC-PVTZ
  Basis Set: (AUG-CC-PVTZ AUX)
    Blend: AUG-CC-PVTZ-JKFIT
	 Reference Energy          =    -152.9759439184564940 [Eh]
	 Singles Energy            =      -0.0000000000000000 [Eh]
	 Same-Spin Energy          =      -0.1431457413346889 [Eh]
	 Opposite-Spin Energy      =      -0.4825713795617891 [Eh]
	 Correlation Energy        =      -0.6257171208964780 [Eh]
	 Total Energy              =    -153.6016610393529618 [Eh]

	 ================> DF-SCS-MP2 Energies <==================
	-----------------------------------------------------------
	 SCS Same-Spin Scale       =       0.3333333333333333 [-]
	 SCS Opposite-Spin Scale   =       1.2000000000000000 [-]
	 SCS Same-Spin Energy      =      -0.0477152471115630 [Eh]
	 SCS Opposite-Spin Energy  =      -0.5790856554741469 [Eh]
	 SCS Correlation Energy    =      -0.6268009025857099 [Eh]
	 SCS Total Energy          =    -153.6027448210421937 [Eh]
	-----------------------------------------------------------

  Dipole Moment: [D]
     X:    -2.3284      Y:     1.0390      Z:     0.0000     Total:     2.5497

*** Psi4 exiting successfully. Buy a developer a beer!
