                               Psi4 1.4a3.dev225

  ==> Input File <==

--------------------------------------------------------------------------
#psi4
#
memory 32 gb

molecule  {
0 1
  O        1.2409240    -0.2774600     0.0000000
  C       -1.1702280    -0.1505200     0.0000000
  C        0.2261800     0.4061290     0.0000000
  H       -1.7131240     0.2066740    -0.8814370
  H       -1.1334130    -1.2403610    -0.0000090
  H       -1.7131170     0.2066590     0.8814470
  H        0.2933768     1.4631537     0.0000000
units angstrom
no_reorient  #important for SAPT in psi4, default
symmetry c1  #important for SAPT in psi4, default
}

set PROPERTIES_ORIGIN ["COM"]
properties('MP2/aug-cc-pvtz', properties = ['dipole'])
--------------------------------------------------------------------------

    Molecular point group: c1
  Charge       = 0
  Multiplicity = 1
  Basis Set: AUG-CC-PVTZ
    Blend: AUG-CC-PVTZ
  Basis Set: (AUG-CC-PVTZ AUX)
    Blend: AUG-CC-PVTZ-JKFIT

    Orbital Energies [Eh]
    ---------------------

    Doubly Occupied:

       1A    -20.560303     2A    -11.334430     3A    -11.243949
       4A     -1.384869     5A     -1.023476     6A     -0.815129
       7A     -0.675644     8A     -0.621406     9A     -0.604376
      10A     -0.562343    11A     -0.500053    12A     -0.430762

  @DF-RHF Final Energy:  -152.97442892897965

   => Energetics <=

    Nuclear Repulsion Energy =             69.5582037291259923
    One-Electron Energy =                -345.5517838746408188
    Two-Electron Energy =                 123.0191512165351924
    Total Energy =                       -152.9744289289796484
  Basis Set: (AUG-CC-PVTZ AUX)
    Blend: AUG-CC-PVTZ-RI
    Molecular point group: c1

    Geometry (in Angstrom), charge = 0, multiplicity = 1:

       Center              X                  Y                   Z               Mass
    ------------   -----------------  -----------------  -----------------  -----------------
         O            1.145066645538    -0.260889472408    -0.000000022891    15.994914619570
         C           -1.266085354462    -0.133949472408    -0.000000022891    12.000000000000
         C            0.130322645538     0.422699527592    -0.000000022891    12.000000000000
         H           -1.808981354462     0.223244527592    -0.881437022891     1.007825032230
         H           -1.229270354462    -1.223790472408    -0.000009022891     1.007825032230
         H           -1.808974354462     0.223229527592     0.881446977109     1.007825032230
         H            0.197519445538     1.479724227592    -0.000000022891     1.007825032230

  Basis Set: AUG-CC-PVTZ
    Blend: AUG-CC-PVTZ
  Basis Set: (AUG-CC-PVTZ AUX)
    Blend: AUG-CC-PVTZ-JKFIT
	 Reference Energy          =    -152.9744289289796484 [Eh]
	 Singles Energy            =      -0.0000000000000000 [Eh]
	 Same-Spin Energy          =      -0.1443007978326551 [Eh]
	 Opposite-Spin Energy      =      -0.4852424367535790 [Eh]
	 Correlation Energy        =      -0.6295432345862342 [Eh]
	 Total Energy              =    -153.6039721635658850 [Eh]

	 ================> DF-SCS-MP2 Energies <==================
	-----------------------------------------------------------
	 SCS Same-Spin Scale       =       0.3333333333333333 [-]
	 SCS Opposite-Spin Scale   =       1.2000000000000000 [-]
	 SCS Same-Spin Energy      =      -0.0481002659442184 [Eh]
	 SCS Opposite-Spin Energy  =      -0.5822909241042948 [Eh]
	 SCS Correlation Energy    =      -0.6303911900485132 [Eh]
	 SCS Total Energy          =    -153.6048201190281475 [Eh]
	-----------------------------------------------------------

  Dipole Moment: [D]
     X:    -2.5673      Y:     1.2317      Z:     0.0000     Total:     2.8474

*** Psi4 exiting successfully. Buy a developer a beer!
