                               Psi4 1.3.2 release

  ==> Input File <==

--------------------------------------------------------------------------
#psi4
#
memory 32 gb

molecule  {
0 1
  O        1.2408360    -0.2775280    -0.0000100
  C       -1.1702100    -0.1504720    -0.0000180
  C        0.0403850     0.3321833     0.0000279
  H       -1.7133170     0.2069280    -0.8812060
  H       -1.1329820    -1.2403210    -0.0006610
  H       -1.7128360     0.2058240     0.8819220
  H        0.2967200     1.5131120    -0.0000780
units angstrom
no_reorient  #important for SAPT in psi4, default
symmetry c1  #important for SAPT in psi4, default
}

set PROPERTIES_ORIGIN ["COM"]
properties('MP2/aug-cc-pvtz', properties = ['dipole'])
--------------------------------------------------------------------------

    Molecular point group: c1
  Charge       = 0
  Multiplicity = 1
  Basis Set: AUG-CC-PVTZ
    Blend: AUG-CC-PVTZ
  Basis Set: (AUG-CC-PVTZ AUX)
    Blend: AUG-CC-PVTZ-JKFIT

    Orbital Energies [Eh]
    ---------------------

    Doubly Occupied:

       1A    -20.551289     2A    -11.352614     3A    -11.250298
       4A     -1.311960     5A     -1.099961     6A     -0.786314
       7A     -0.682098     8A     -0.637890     9A     -0.626588
      10A     -0.531382    11A     -0.451170    12A     -0.427303

  @DF-RHF Final Energy:  -152.90414444865553

   => Energetics <=

    Nuclear Repulsion Energy =             69.5531352937836260
    One-Electron Energy =                -345.4968268470261705
    Two-Electron Energy =                 123.0395471045870153
    Total Energy =                       -152.9041444486555292
  Basis Set: (AUG-CC-PVTZ AUX)
    Blend: AUG-CC-PVTZ-RI
    Molecular point group: c1

    Geometry (in Angstrom), charge = 0, multiplicity = 1:

       Center              X                  Y                   Z               Mass
    ------------   -----------------  -----------------  -----------------  -----------------
         O            1.195558490827    -0.241922084810    -0.000008538845    15.994914619570
         C           -1.215487509173    -0.114866084810    -0.000016538845    12.000000000000
         C           -0.004892509173     0.367789215190     0.000029361155    12.000000000000
         H           -1.758594509173     0.242533915190    -0.881204538845     1.007825032230
         H           -1.178259509173    -1.204715084810    -0.000659538845     1.007825032230
         H           -1.758113509173     0.241429915190     0.881923461155     1.007825032230
         H            0.251442490827     1.548717915190    -0.000076538845     1.007825032230

  Basis Set: AUG-CC-PVTZ
    Blend: AUG-CC-PVTZ
  Basis Set: (AUG-CC-PVTZ AUX)
    Blend: AUG-CC-PVTZ-JKFIT
	 Reference Energy          =    -152.9041444486555292 [Eh]
	 Singles Energy            =      -0.0000000000000000 [Eh]
	 Same-Spin Energy          =      -0.1508880202095913 [Eh]
	 Opposite-Spin Energy      =      -0.4964420533369155 [Eh]
	 Correlation Energy        =      -0.6473300735465068 [Eh]
	 Total Energy              =    -153.5514745222020281 [Eh]

	 ================> DF-SCS-MP2 Energies <==================
	-----------------------------------------------------------
	 SCS Same-Spin Scale       =       0.3333333333333333 [-]
	 SCS Opposite-Spin Scale   =       1.2000000000000000 [-]
	 SCS Same-Spin Energy      =      -0.0502960067365304 [Eh]
	 SCS Opposite-Spin Energy  =      -0.5957304640042985 [Eh]
	 SCS Correlation Energy    =      -0.6460264707408290 [Eh]
	 SCS Total Energy          =    -153.5501709193963507 [Eh]
	-----------------------------------------------------------

  Dipole Moment: [D]
     X:    -3.4760      Y:     0.9597      Z:     0.0001     Total:     3.6060

*** Psi4 exiting successfully. Buy a developer a beer!
