                               Psi4 1.3.2 release

  ==> Input File <==

--------------------------------------------------------------------------
#psi4
#
memory 32 gb

molecule  {
0 1
  O        1.2408360    -0.2775280    -0.0000100
  C       -1.1499300    -0.1988656    -0.0000112
  C        0.2261640     0.4062520     0.0000350
  H       -1.7133170     0.2069280    -0.8812060
  H       -1.1329820    -1.2403210    -0.0006610
  H       -1.7128360     0.2058240     0.8819220
  H        0.2967200     1.5131120    -0.0000780
units angstrom
no_reorient  #important for SAPT in psi4, default
symmetry c1  #important for SAPT in psi4, default
}

set PROPERTIES_ORIGIN ["COM"]
properties('MP2/aug-cc-pvtz', properties = ['dipole'])
--------------------------------------------------------------------------

    Molecular point group: c1
  Charge       = 0
  Multiplicity = 1
  Basis Set: AUG-CC-PVTZ
    Blend: AUG-CC-PVTZ
  Basis Set: (AUG-CC-PVTZ AUX)
    Blend: AUG-CC-PVTZ-JKFIT

    Orbital Energies [Eh]
    ---------------------

    Doubly Occupied:

       1A    -20.559629     2A    -11.340095     3A    -11.245699
       4A     -1.385110     5A     -1.021599     6A     -0.805708
       7A     -0.672720     8A     -0.624253     9A     -0.593828
      10A     -0.573190    11A     -0.495887    12A     -0.428843

  @DF-RHF Final Energy:  -152.97208370690390

   => Energetics <=

    Nuclear Repulsion Energy =             69.4272783317861979
    One-Electron Energy =                -345.3056014773667926
    Two-Electron Energy =                 122.9062394386766641
    Total Energy =                       -152.9720837069039021
  Basis Set: (AUG-CC-PVTZ AUX)
    Blend: AUG-CC-PVTZ-RI
    Molecular point group: c1

    Geometry (in Angstrom), charge = 0, multiplicity = 1:

       Center              X                  Y                   Z               Mass
    ------------   -----------------  -----------------  -----------------  -----------------
         O            1.139394043937    -0.248920215396    -0.000012327497    15.994914619570
         C           -1.251371956063    -0.170257815396    -0.000013527497    12.000000000000
         C            0.124722043937     0.434859784604     0.000032672503    12.000000000000
         H           -1.814758956063     0.235535784604    -0.881208327497     1.007825032230
         H           -1.234423956063    -1.211713215396    -0.000663327497     1.007825032230
         H           -1.814277956063     0.234431784604     0.881919672503     1.007825032230
         H            0.195278043937     1.541719784604    -0.000080327497     1.007825032230

  Basis Set: AUG-CC-PVTZ
    Blend: AUG-CC-PVTZ
  Basis Set: (AUG-CC-PVTZ AUX)
    Blend: AUG-CC-PVTZ-JKFIT
	 Reference Energy          =    -152.9720837069039021 [Eh]
	 Singles Energy            =      -0.0000000000000000 [Eh]
	 Same-Spin Energy          =      -0.1444657777337944 [Eh]
	 Opposite-Spin Energy      =      -0.4854907067133973 [Eh]
	 Correlation Energy        =      -0.6299564844471918 [Eh]
	 Total Energy              =    -153.6020401913511080 [Eh]

	 ================> DF-SCS-MP2 Energies <==================
	-----------------------------------------------------------
	 SCS Same-Spin Scale       =       0.3333333333333333 [-]
	 SCS Opposite-Spin Scale   =       1.2000000000000000 [-]
	 SCS Same-Spin Energy      =      -0.0481552592445981 [Eh]
	 SCS Opposite-Spin Energy  =      -0.5825888480560768 [Eh]
	 SCS Correlation Energy    =      -0.6307441073006750 [Eh]
	 SCS Total Energy          =    -153.6028278142045735 [Eh]
	-----------------------------------------------------------

  Dipole Moment: [D]
     X:    -2.5748      Y:     1.1739      Z:     0.0001     Total:     2.8298

*** Psi4 exiting successfully. Buy a developer a beer!
