                               Psi4 1.3.2 release

  ==> Input File <==

--------------------------------------------------------------------------
#psi4
#
memory 32 gb

molecule  {
0 1
  O        1.2287479    -0.2951323    -0.0000070
  C       -1.1702100    -0.1504720    -0.0000180
  C        0.2261640     0.4062520     0.0000350
  H       -1.7133170     0.2069280    -0.8812060
  H       -1.1329820    -1.2403210    -0.0006610
  H       -1.7128360     0.2058240     0.8819220
  H        0.2967200     1.5131120    -0.0000780
units angstrom
no_reorient  #important for SAPT in psi4, default
symmetry c1  #important for SAPT in psi4, default
}

set PROPERTIES_ORIGIN ["COM"]
properties('MP2/aug-cc-pvtz', properties = ['dipole'])
--------------------------------------------------------------------------

    Molecular point group: c1
  Charge       = 0
  Multiplicity = 1
  Basis Set: AUG-CC-PVTZ
    Blend: AUG-CC-PVTZ
  Basis Set: (AUG-CC-PVTZ AUX)
    Blend: AUG-CC-PVTZ-JKFIT

    Orbital Energies [Eh]
    ---------------------

    Doubly Occupied:

       1A    -20.561589     2A    -11.340566     3A    -11.244122
       4A     -1.385798     5A     -1.022225     6A     -0.804310
       7A     -0.673536     8A     -0.621526     9A     -0.604625
      10A     -0.560917    11A     -0.500830    12A     -0.429312

  @DF-RHF Final Energy:  -152.97483506421628

   => Energetics <=

    Nuclear Repulsion Energy =             69.4029006218504207
    One-Electron Energy =                -345.2567557580716766
    Two-Electron Energy =                 122.8790200720049341
    Total Energy =                       -152.9748350642162791
  Basis Set: (AUG-CC-PVTZ AUX)
    Blend: AUG-CC-PVTZ-RI
    Molecular point group: c1

    Geometry (in Angstrom), charge = 0, multiplicity = 1:

       Center              X                  Y                   Z               Mass
    ------------   -----------------  -----------------  -----------------  -----------------
         O            1.137225218849    -0.273319192755    -0.000008563969    15.994914619570
         C           -1.261732681151    -0.128658892755    -0.000019563969    12.000000000000
         C            0.134641318849     0.428065107245     0.000033436031    12.000000000000
         H           -1.804839681151     0.228741107245    -0.881207563969     1.007825032230
         H           -1.224504681151    -1.218507892755    -0.000662563969     1.007825032230
         H           -1.804358681151     0.227637107245     0.881920436031     1.007825032230
         H            0.205197318849     1.534925107245    -0.000079563969     1.007825032230

  Basis Set: AUG-CC-PVTZ
    Blend: AUG-CC-PVTZ
  Basis Set: (AUG-CC-PVTZ AUX)
    Blend: AUG-CC-PVTZ-JKFIT
	 Reference Energy          =    -152.9748350642162791 [Eh]
	 Singles Energy            =      -0.0000000000000000 [Eh]
	 Same-Spin Energy          =      -0.1444555050975092 [Eh]
	 Opposite-Spin Energy      =      -0.4855246935099070 [Eh]
	 Correlation Energy        =      -0.6299801986074163 [Eh]
	 Total Energy              =    -153.6048152628237062 [Eh]

	 ================> DF-SCS-MP2 Energies <==================
	-----------------------------------------------------------
	 SCS Same-Spin Scale       =       0.3333333333333333 [-]
	 SCS Opposite-Spin Scale   =       1.2000000000000000 [-]
	 SCS Same-Spin Energy      =      -0.0481518350325031 [Eh]
	 SCS Opposite-Spin Energy  =      -0.5826296322118883 [Eh]
	 SCS Correlation Energy    =      -0.6307814672443914 [Eh]
	 SCS Total Energy          =    -153.6056165314606687 [Eh]
	-----------------------------------------------------------

  Dipole Moment: [D]
     X:    -2.5337      Y:     1.2108      Z:     0.0001     Total:     2.8081

*** Psi4 exiting successfully. Buy a developer a beer!
