                               Psi4 1.3.2 release

  ==> Input File <==

--------------------------------------------------------------------------
#psi4
#
memory 32 gb

molecule  {
0 1
  O        1.2408360    -0.2775280    -0.0000100
  C       -1.2056436    -0.0517097    -0.0000315
  C        0.2261640     0.4062520     0.0000350
  H       -1.7133170     0.2069280    -0.8812060
  H       -1.1329820    -1.2403210    -0.0006610
  H       -1.7128360     0.2058240     0.8819220
  H        0.2967200     1.5131120    -0.0000780
units angstrom
no_reorient  #important for SAPT in psi4, default
symmetry c1  #important for SAPT in psi4, default
}

set PROPERTIES_ORIGIN ["COM"]
properties('MP2/aug-cc-pvtz', properties = ['dipole'])
--------------------------------------------------------------------------

    Molecular point group: c1
  Charge       = 0
  Multiplicity = 1
  Basis Set: AUG-CC-PVTZ
    Blend: AUG-CC-PVTZ
  Basis Set: (AUG-CC-PVTZ AUX)
    Blend: AUG-CC-PVTZ-JKFIT

    Orbital Energies [Eh]
    ---------------------

    Doubly Occupied:

       1A    -20.565792     2A    -11.342506     3A    -11.246505
       4A     -1.387284     5A     -1.027280     6A     -0.803806
       7A     -0.673209     8A     -0.629458     9A     -0.626418
      10A     -0.528951    11A     -0.509134    12A     -0.428789

  @DF-RHF Final Energy:  -152.96285656164724

   => Energetics <=

    Nuclear Repulsion Energy =             69.2028551110364276
    One-Electron Energy =                -344.7931599201040171
    Two-Electron Energy =                 122.6274482474203325
    Total Energy =                       -152.9628565616472429
  Basis Set: (AUG-CC-PVTZ AUX)
    Blend: AUG-CC-PVTZ-RI
    Molecular point group: c1

    Geometry (in Angstrom), charge = 0, multiplicity = 1:

       Center              X                  Y                   Z               Mass
    ------------   -----------------  -----------------  -----------------  -----------------
         O            1.154579614712    -0.289029745822    -0.000006794430    15.994914619570
         C           -1.291899985288    -0.063211445822    -0.000028294430    12.000000000000
         C            0.139907614712     0.394750254178     0.000038205570    12.000000000000
         H           -1.799573385288     0.195426254178    -0.881202794430     1.007825032230
         H           -1.219238385288    -1.251822745822    -0.000657794430     1.007825032230
         H           -1.799092385288     0.194322254178     0.881925205570     1.007825032230
         H            0.210463614712     1.501610254178    -0.000074794430     1.007825032230

  Basis Set: AUG-CC-PVTZ
    Blend: AUG-CC-PVTZ
  Basis Set: (AUG-CC-PVTZ AUX)
    Blend: AUG-CC-PVTZ-JKFIT
	 Reference Energy          =    -152.9628565616472429 [Eh]
	 Singles Energy            =      -0.0000000000000000 [Eh]
	 Same-Spin Energy          =      -0.1446765684925910 [Eh]
	 Opposite-Spin Energy      =      -0.4863931027955039 [Eh]
	 Correlation Energy        =      -0.6310696712880949 [Eh]
	 Total Energy              =    -153.5939262329353312 [Eh]

	 ================> DF-SCS-MP2 Energies <==================
	-----------------------------------------------------------
	 SCS Same-Spin Scale       =       0.3333333333333333 [-]
	 SCS Opposite-Spin Scale   =       1.2000000000000000 [-]
	 SCS Same-Spin Energy      =      -0.0482255228308637 [Eh]
	 SCS Opposite-Spin Energy  =      -0.5836717233546047 [Eh]
	 SCS Correlation Energy    =      -0.6318972461854684 [Eh]
	 SCS Total Energy          =    -153.5947538078327170 [Eh]
	-----------------------------------------------------------

  Dipole Moment: [D]
     X:    -2.5392      Y:     1.1820      Z:     0.0001     Total:     2.8008

*** Psi4 exiting successfully. Buy a developer a beer!
