                               Psi4 1.3.2 release

  ==> Input File <==

--------------------------------------------------------------------------
#psi4
#
memory 32 gb

molecule  {
0 1
  O        1.2408360    -0.2775280    -0.0000100
  C       -1.1887888    -0.1014001    -0.0000248
  C        0.2261640     0.4062520     0.0000350
  H       -1.7133170     0.2069280    -0.8812060
  H       -1.1329820    -1.2403210    -0.0006610
  H       -1.7128360     0.2058240     0.8819220
  H        0.2967200     1.5131120    -0.0000780
units angstrom
no_reorient  #important for SAPT in psi4, default
symmetry c1  #important for SAPT in psi4, default
}

set PROPERTIES_ORIGIN ["COM"]
properties('MP2/aug-cc-pvtz', properties = ['dipole'])
--------------------------------------------------------------------------

    Molecular point group: c1
  Charge       = 0
  Multiplicity = 1
  Basis Set: AUG-CC-PVTZ
    Blend: AUG-CC-PVTZ
  Basis Set: (AUG-CC-PVTZ AUX)
    Blend: AUG-CC-PVTZ-JKFIT

    Orbital Energies [Eh]
    ---------------------

    Doubly Occupied:

       1A    -20.563657     2A    -11.341290     3A    -11.245314
       4A     -1.386378     5A     -1.024940     6A     -0.803292
       7A     -0.673420     8A     -0.623447     9A     -0.617066
      10A     -0.545852    11A     -0.505426    12A     -0.429150

  @DF-RHF Final Energy:  -152.97154104596760

   => Energetics <=

    Nuclear Repulsion Energy =             69.2719112399149139
    One-Electron Energy =                -344.9684422130660550
    Two-Electron Energy =                 122.7249899271835432
    Total Energy =                       -152.9715410459675979
  Basis Set: (AUG-CC-PVTZ AUX)
    Blend: AUG-CC-PVTZ-RI
    Molecular point group: c1

    Geometry (in Angstrom), charge = 0, multiplicity = 1:

       Center              X                  Y                   Z               Mass
    ------------   -----------------  -----------------  -----------------  -----------------
         O            1.149985588149    -0.275485887841    -0.000008620615    15.994914619570
         C           -1.279639211851    -0.099357987841    -0.000023420615    12.000000000000
         C            0.135313588149     0.408294112159     0.000036379385    12.000000000000
         H           -1.804167411851     0.208970112159    -0.881204620615     1.007825032230
         H           -1.223832411851    -1.238278887841    -0.000659620615     1.007825032230
         H           -1.803686411851     0.207866112159     0.881923379385     1.007825032230
         H            0.205869588149     1.515154112159    -0.000076620615     1.007825032230

  Basis Set: AUG-CC-PVTZ
    Blend: AUG-CC-PVTZ
  Basis Set: (AUG-CC-PVTZ AUX)
    Blend: AUG-CC-PVTZ-JKFIT
	 Reference Energy          =    -152.9715410459675979 [Eh]
	 Singles Energy            =      -0.0000000000000000 [Eh]
	 Same-Spin Energy          =      -0.1445123663109078 [Eh]
	 Opposite-Spin Energy      =      -0.4858167561021988 [Eh]
	 Correlation Energy        =      -0.6303291224131066 [Eh]
	 Total Energy              =    -153.6018701683807137 [Eh]

	 ================> DF-SCS-MP2 Energies <==================
	-----------------------------------------------------------
	 SCS Same-Spin Scale       =       0.3333333333333333 [-]
	 SCS Opposite-Spin Scale   =       1.2000000000000000 [-]
	 SCS Same-Spin Energy      =      -0.0481707887703026 [Eh]
	 SCS Opposite-Spin Energy  =      -0.5829801073226385 [Eh]
	 SCS Correlation Energy    =      -0.6311508960929411 [Eh]
	 SCS Total Energy          =    -153.6026919420605452 [Eh]
	-----------------------------------------------------------

  Dipole Moment: [D]
     X:    -2.5550      Y:     1.1756      Z:     0.0001     Total:     2.8125

*** Psi4 exiting successfully. Buy a developer a beer!
