                               Psi4 1.4a3.dev225

  ==> Input File <==

--------------------------------------------------------------------------
#psi4
#
memory 32 gb

molecule  {
0 1
  O        1.2409240    -0.2774600     0.0000000
  C       -1.1702280    -0.1505200     0.0000000
  C        0.2447583     0.4135349     0.0000000
  H       -1.7131240     0.2066740    -0.8814370
  H       -1.1334130    -1.2403610    -0.0000090
  H       -1.7131170     0.2066590     0.8814470
  H        0.2965490     1.5130530     0.0000000
units angstrom
no_reorient  #important for SAPT in psi4, default
symmetry c1  #important for SAPT in psi4, default
}

set PROPERTIES_ORIGIN ["COM"]
properties('MP2/aug-cc-pvtz', properties = ['dipole'])
--------------------------------------------------------------------------

    Molecular point group: c1
  Charge       = 0
  Multiplicity = 1
  Basis Set: AUG-CC-PVTZ
    Blend: AUG-CC-PVTZ
  Basis Set: (AUG-CC-PVTZ AUX)
    Blend: AUG-CC-PVTZ-JKFIT

    Orbital Energies [Eh]
    ---------------------

    Doubly Occupied:

       1A    -20.562459     2A    -11.339438     3A    -11.244005
       4A     -1.393409     5A     -1.016575     6A     -0.805936
       7A     -0.674502     8A     -0.622585     9A     -0.602677
      10A     -0.561913    11A     -0.505865    12A     -0.427183

  @DF-RHF Final Energy:  -152.97584193950991

   => Energetics <=

    Nuclear Repulsion Energy =             69.3556130143404204
    One-Electron Energy =                -345.1498155982183675
    Two-Electron Energy =                 122.8183606443680702
    Total Energy =                       -152.9758419395099054
  Basis Set: (AUG-CC-PVTZ AUX)
    Blend: AUG-CC-PVTZ-RI
    Molecular point group: c1

    Geometry (in Angstrom), charge = 0, multiplicity = 1:

       Center              X                  Y                   Z               Mass
    ------------   -----------------  -----------------  -----------------  -----------------
         O            1.139930237062    -0.264050329285    -0.000000022891    15.994914619570
         C           -1.271221762938    -0.137110329285    -0.000000022891    12.000000000000
         C            0.143764537062     0.426944570715    -0.000000022891    12.000000000000
         H           -1.814117762938     0.220083670715    -0.881437022891     1.007825032230
         H           -1.234406762938    -1.226951329285    -0.000009022891     1.007825032230
         H           -1.814110762938     0.220068670715     0.881446977109     1.007825032230
         H            0.195555237062     1.526462670715    -0.000000022891     1.007825032230

  Basis Set: AUG-CC-PVTZ
    Blend: AUG-CC-PVTZ
  Basis Set: (AUG-CC-PVTZ AUX)
    Blend: AUG-CC-PVTZ-JKFIT
	 Reference Energy          =    -152.9758419395099054 [Eh]
	 Singles Energy            =      -0.0000000000000000 [Eh]
	 Same-Spin Energy          =      -0.1440181901800883 [Eh]
	 Opposite-Spin Energy      =      -0.4847883218463012 [Eh]
	 Correlation Energy        =      -0.6288065120263895 [Eh]
	 Total Energy              =    -153.6046484515362920 [Eh]

	 ================> DF-SCS-MP2 Energies <==================
	-----------------------------------------------------------
	 SCS Same-Spin Scale       =       0.3333333333333333 [-]
	 SCS Opposite-Spin Scale   =       1.2000000000000000 [-]
	 SCS Same-Spin Energy      =      -0.0480060633933628 [Eh]
	 SCS Opposite-Spin Energy  =      -0.5817459862155614 [Eh]
	 SCS Correlation Energy    =      -0.6297520496089242 [Eh]
	 SCS Total Energy          =    -153.6055939891188302 [Eh]
	-----------------------------------------------------------

  Dipole Moment: [D]
     X:    -2.4647      Y:     1.1950      Z:     0.0000     Total:     2.7391

*** Psi4 exiting successfully. Buy a developer a beer!
