                               Psi4 1.3.2 release

  ==> Input File <==

--------------------------------------------------------------------------
#psi4
#
memory 32 gb

molecule  {
0 1
  O        1.2408360    -0.2775280    -0.0000100
  C       -1.1702100    -0.1504720    -0.0000180
  C        0.2261640     0.4062520     0.0000350
  H       -1.7133170     0.2069280    -0.8812060
  H       -1.1329820    -1.2403210    -0.0006610
  H       -1.7128360     0.2058240     0.8819220
  H        0.3030815     1.6129094    -0.0000882
units angstrom
no_reorient  #important for SAPT in psi4, default
symmetry c1  #important for SAPT in psi4, default
}

set PROPERTIES_ORIGIN ["COM"]
properties('MP2/aug-cc-pvtz', properties = ['dipole'])
--------------------------------------------------------------------------

    Molecular point group: c1
  Charge       = 0
  Multiplicity = 1
  Basis Set: AUG-CC-PVTZ
    Blend: AUG-CC-PVTZ
  Basis Set: (AUG-CC-PVTZ AUX)
    Blend: AUG-CC-PVTZ-JKFIT

    Orbital Energies [Eh]
    ---------------------

    Doubly Occupied:

       1A    -20.564830     2A    -11.352069     3A    -11.247640
       4A     -1.387859     5A     -1.023028     6A     -0.785955
       7A     -0.667752     8A     -0.623871     9A     -0.606542
      10A     -0.559441    11A     -0.503517    12A     -0.425283

  @DF-RHF Final Energy:  -152.96819616610932

   => Energetics <=

    Nuclear Repulsion Energy =             68.9599044774910368
    One-Electron Energy =                -344.3606276019157235
    Two-Electron Energy =                 122.4325269583153784
    Total Energy =                       -152.9681961661093226
  Basis Set: (AUG-CC-PVTZ AUX)
    Blend: AUG-CC-PVTZ-RI
    Molecular point group: c1

    Geometry (in Angstrom), charge = 0, multiplicity = 1:

       Center              X                  Y                   Z               Mass
    ------------   -----------------  -----------------  -----------------  -----------------
         O            1.144776035607    -0.264395121012    -0.000010240563    15.994914619570
         C           -1.266269964393    -0.137339121012    -0.000018240563    12.000000000000
         C            0.130104035607     0.419384878988     0.000034759437    12.000000000000
         H           -1.809376964393     0.220060878988    -0.881206240563     1.007825032230
         H           -1.229041964393    -1.227188121012    -0.000661240563     1.007825032230
         H           -1.808895964393     0.218956878988     0.881921759437     1.007825032230
         H            0.207021535607     1.626042278988    -0.000088440563     1.007825032230

  Basis Set: AUG-CC-PVTZ
    Blend: AUG-CC-PVTZ
  Basis Set: (AUG-CC-PVTZ AUX)
    Blend: AUG-CC-PVTZ-JKFIT
	 Reference Energy          =    -152.9681961661093226 [Eh]
	 Singles Energy            =      -0.0000000000000000 [Eh]
	 Same-Spin Energy          =      -0.1448077064379125 [Eh]
	 Opposite-Spin Energy      =      -0.4863970850436917 [Eh]
	 Correlation Energy        =      -0.6312047914816042 [Eh]
	 Total Energy              =    -153.5994009575909161 [Eh]

	 ================> DF-SCS-MP2 Energies <==================
	-----------------------------------------------------------
	 SCS Same-Spin Scale       =       0.3333333333333333 [-]
	 SCS Opposite-Spin Scale   =       1.2000000000000000 [-]
	 SCS Same-Spin Energy      =      -0.0482692354793042 [Eh]
	 SCS Opposite-Spin Energy  =      -0.5836765020524300 [Eh]
	 SCS Correlation Energy    =      -0.6319457375317342 [Eh]
	 SCS Total Energy          =    -153.6001419036410596 [Eh]
	-----------------------------------------------------------

  Dipole Moment: [D]
     X:    -2.5684      Y:     1.0254      Z:     0.0001     Total:     2.7655

*** Psi4 exiting successfully. Buy a developer a beer!
