                               Psi4 1.3.2 release

  ==> Input File <==

--------------------------------------------------------------------------
#psi4
#
memory 32 gb

molecule  {
0 1
  O        1.2408360    -0.2775280    -0.0000100
  C       -1.1702100    -0.1504720    -0.0000180
  C        0.2261640     0.4062520     0.0000350
  H       -1.7133170     0.2069280    -0.8812060
  H       -1.1329820    -1.2403210    -0.0006610
  H       -1.7128360     0.2058240     0.8819220
  H        0.2967200     1.5131120    -0.0000780
units angstrom
no_reorient  #important for SAPT in psi4, default
symmetry c1  #important for SAPT in psi4, default
}

set PROPERTIES_ORIGIN ["COM"]
properties('MP2/aug-cc-pvtz', properties = ['dipole'])
--------------------------------------------------------------------------

    Molecular point group: c1
  Charge       = 0
  Multiplicity = 1
  Basis Set: AUG-CC-PVTZ
    Blend: AUG-CC-PVTZ
  Basis Set: (AUG-CC-PVTZ AUX)
    Blend: AUG-CC-PVTZ-JKFIT

    Orbital Energies [Eh]
    ---------------------

    Doubly Occupied:

       1A    -20.561595     2A    -11.340475     3A    -11.245051
       4A     -1.385645     5A     -1.023010     6A     -0.803845
       7A     -0.673270     8A     -0.622072     9A     -0.605026
      10A     -0.561401    11A     -0.501061    12A     -0.429143

  @DF-RHF Final Energy:  -152.97493698357985

   => Energetics <=

    Nuclear Repulsion Energy =             69.3456172205463304
    One-Electron Energy =                -345.1379175425375365
    Two-Electron Energy =                 122.8173633384113543
    Total Energy =                       -152.9749369835798518
  Basis Set: (AUG-CC-PVTZ AUX)
    Blend: AUG-CC-PVTZ-RI
    Molecular point group: c1

    Geometry (in Angstrom), charge = 0, multiplicity = 1:

       Center              X                  Y                   Z               Mass
    ------------   -----------------  -----------------  -----------------  -----------------
         O            1.144921659731    -0.262110611239    -0.000010474056    15.994914619570
         C           -1.266124340269    -0.135054611239    -0.000018474056    12.000000000000
         C            0.130249659731     0.421669388761     0.000034525944    12.000000000000
         H           -1.809231340269     0.222345388761    -0.881206474056     1.007825032230
         H           -1.228896340269    -1.224903611239    -0.000661474056     1.007825032230
         H           -1.808750340269     0.221241388761     0.881921525944     1.007825032230
         H            0.200805659731     1.528529388761    -0.000078474056     1.007825032230

  Basis Set: AUG-CC-PVTZ
    Blend: AUG-CC-PVTZ
  Basis Set: (AUG-CC-PVTZ AUX)
    Blend: AUG-CC-PVTZ-JKFIT
	 Reference Energy          =    -152.9749369835798518 [Eh]
	 Singles Energy            =      -0.0000000000000000 [Eh]
	 Same-Spin Energy          =      -0.1444408891528997 [Eh]
	 Opposite-Spin Energy      =      -0.4855092295298395 [Eh]
	 Correlation Energy        =      -0.6299501186827392 [Eh]
	 Total Energy              =    -153.6048871022625804 [Eh]

	 ================> DF-SCS-MP2 Energies <==================
	-----------------------------------------------------------
	 SCS Same-Spin Scale       =       0.3333333333333333 [-]
	 SCS Opposite-Spin Scale   =       1.2000000000000000 [-]
	 SCS Same-Spin Energy      =      -0.0481469630509666 [Eh]
	 SCS Opposite-Spin Energy  =      -0.5826110754358075 [Eh]
	 SCS Correlation Energy    =      -0.6307580384867740 [Eh]
	 SCS Total Energy          =    -153.6056950220666124 [Eh]
	-----------------------------------------------------------

  Dipole Moment: [D]
     X:    -2.5672      Y:     1.1726      Z:     0.0001     Total:     2.8224

*** Psi4 exiting successfully. Buy a developer a beer!
