                               Psi4 1.3.2 release

  ==> Input File <==

--------------------------------------------------------------------------
#psi4
#
memory 32 gb

molecule  {
0 1
  O        1.2408360    -0.2775280    -0.0000100
  C       -1.1702100    -0.1504720    -0.0000180
  C        0.4119430     0.4803207     0.0000421
  H       -1.7133170     0.2069280    -0.8812060
  H       -1.1329820    -1.2403210    -0.0006610
  H       -1.7128360     0.2058240     0.8819220
  H        0.2967200     1.5131120    -0.0000780
units angstrom
no_reorient  #important for SAPT in psi4, default
symmetry c1  #important for SAPT in psi4, default
}

set PROPERTIES_ORIGIN ["COM"]
properties('MP2/aug-cc-pvtz', properties = ['dipole'])
--------------------------------------------------------------------------

    Molecular point group: c1
  Charge       = 0
  Multiplicity = 1
  Basis Set: AUG-CC-PVTZ
    Blend: AUG-CC-PVTZ
  Basis Set: (AUG-CC-PVTZ AUX)
    Blend: AUG-CC-PVTZ-JKFIT

    Orbital Energies [Eh]
    ---------------------

    Doubly Occupied:

       1A    -20.574093     2A    -11.337089     3A    -11.227394
       4A     -1.464820     5A     -0.967931     6A     -0.826542
       7A     -0.700072     8A     -0.637539     9A     -0.598260
      10A     -0.552591    11A     -0.536181    12A     -0.391463

  @DF-RHF Final Energy:  -152.94437102163937

   => Energetics <=

    Nuclear Repulsion Energy =             69.5655637299372529
    One-Electron Energy =                -345.3919193606504905
    Two-Electron Energy =                 122.8819846090738821
    Total Energy =                       -152.9443710216393697
  Basis Set: (AUG-CC-PVTZ AUX)
    Blend: AUG-CC-PVTZ-RI
    Molecular point group: c1

    Geometry (in Angstrom), charge = 0, multiplicity = 1:

       Center              X                  Y                   Z               Mass
    ------------   -----------------  -----------------  -----------------  -----------------
         O            1.094284828636    -0.282299137667    -0.000012409266    15.994914619570
         C           -1.316761171364    -0.155243137667    -0.000020409266    12.000000000000
         C            0.265391828636     0.475549562333     0.000039690734    12.000000000000
         H           -1.859868171364     0.202156862333    -0.881208409266     1.007825032230
         H           -1.279533171364    -1.245092137667    -0.000663409266     1.007825032230
         H           -1.859387171364     0.201052862333     0.881919590734     1.007825032230
         H            0.150168828636     1.508340862333    -0.000080409266     1.007825032230

  Basis Set: AUG-CC-PVTZ
    Blend: AUG-CC-PVTZ
  Basis Set: (AUG-CC-PVTZ AUX)
    Blend: AUG-CC-PVTZ-JKFIT
	 Reference Energy          =    -152.9443710216393697 [Eh]
	 Singles Energy            =      -0.0000000000000000 [Eh]
	 Same-Spin Energy          =      -0.1419732711512296 [Eh]
	 Opposite-Spin Energy      =      -0.4813744948165509 [Eh]
	 Correlation Energy        =      -0.6233477659677804 [Eh]
	 Total Energy              =    -153.5677187876071628 [Eh]

	 ================> DF-SCS-MP2 Energies <==================
	-----------------------------------------------------------
	 SCS Same-Spin Scale       =       0.3333333333333333 [-]
	 SCS Opposite-Spin Scale   =       1.2000000000000000 [-]
	 SCS Same-Spin Energy      =      -0.0473244237170765 [Eh]
	 SCS Opposite-Spin Energy  =      -0.5776493937798610 [Eh]
	 SCS Correlation Energy    =      -0.6249738174969376 [Eh]
	 SCS Total Energy          =    -153.5693448391363063 [Eh]
	-----------------------------------------------------------

  Dipole Moment: [D]
     X:    -1.3393      Y:     1.4422      Z:     0.0001     Total:     1.9682

*** Psi4 exiting successfully. Buy a developer a beer!
