                               Psi4 1.4a3.dev225

  ==> Input File <==

--------------------------------------------------------------------------
#psi4
#
memory 32 gb

molecule  {
0 1
  O        1.2409240    -0.2774600     0.0000000
  C       -1.1702280    -0.1505200     0.0000000
  C        0.2076017     0.3987231     0.0000000
  H       -1.7131240     0.2066740    -0.8814370
  H       -1.1334130    -1.2403610    -0.0000090
  H       -1.7131170     0.2066590     0.8814470
  H        0.2965490     1.5130530     0.0000000
units angstrom
no_reorient  #important for SAPT in psi4, default
symmetry c1  #important for SAPT in psi4, default
}

set PROPERTIES_ORIGIN ["COM"]
properties('MP2/aug-cc-pvtz', properties = ['dipole'])
--------------------------------------------------------------------------

    Molecular point group: c1
  Charge       = 0
  Multiplicity = 1
  Basis Set: AUG-CC-PVTZ
    Blend: AUG-CC-PVTZ
  Basis Set: (AUG-CC-PVTZ AUX)
    Blend: AUG-CC-PVTZ-JKFIT

    Orbital Energies [Eh]
    ---------------------

    Doubly Occupied:

       1A    -20.560758     2A    -11.341607     3A    -11.245988
       4A     -1.377990     5A     -1.029696     6A     -0.801768
       7A     -0.672472     8A     -0.621818     9A     -0.607496
      10A     -0.560534    11A     -0.496190    12A     -0.430663

  @DF-RHF Final Energy:  -152.97303360869162

   => Energetics <=

    Nuclear Repulsion Energy =             69.3393300554300964
    One-Electron Energy =                -345.1307668347018875
    Two-Electron Energy =                 122.8184031705801971
    Total Energy =                       -152.9730336086915941
  Basis Set: (AUG-CC-PVTZ AUX)
    Blend: AUG-CC-PVTZ-RI
    Molecular point group: c1

    Geometry (in Angstrom), charge = 0, multiplicity = 1:

       Center              X                  Y                   Z               Mass
    ------------   -----------------  -----------------  -----------------  -----------------
         O            1.150057821333    -0.260013152775    -0.000000022891    15.994914619570
         C           -1.261094178667    -0.133073152775    -0.000000022891    12.000000000000
         C            0.116735521333     0.416169947225    -0.000000022891    12.000000000000
         H           -1.803990178667     0.224120847225    -0.881437022891     1.007825032230
         H           -1.224279178667    -1.222914152775    -0.000009022891     1.007825032230
         H           -1.803983178667     0.224105847225     0.881446977109     1.007825032230
         H            0.205682821333     1.530499847225    -0.000000022891     1.007825032230

  Basis Set: AUG-CC-PVTZ
    Blend: AUG-CC-PVTZ
  Basis Set: (AUG-CC-PVTZ AUX)
    Blend: AUG-CC-PVTZ-JKFIT
	 Reference Energy          =    -152.9730336086916225 [Eh]
	 Singles Energy            =      -0.0000000000000000 [Eh]
	 Same-Spin Energy          =      -0.1449027767847854 [Eh]
	 Opposite-Spin Energy      =      -0.4862963688681988 [Eh]
	 Correlation Energy        =      -0.6311991456529842 [Eh]
	 Total Energy              =    -153.6042327543445936 [Eh]

	 ================> DF-SCS-MP2 Energies <==================
	-----------------------------------------------------------
	 SCS Same-Spin Scale       =       0.3333333333333333 [-]
	 SCS Opposite-Spin Scale   =       1.2000000000000000 [-]
	 SCS Same-Spin Energy      =      -0.0483009255949285 [Eh]
	 SCS Opposite-Spin Energy  =      -0.5835556426418385 [Eh]
	 SCS Correlation Energy    =      -0.6318565682367669 [Eh]
	 SCS Total Energy          =    -153.6048901769283930 [Eh]
	-----------------------------------------------------------

  Dipole Moment: [D]
     X:    -2.6672      Y:     1.1502      Z:     0.0000     Total:     2.9046

*** Psi4 exiting successfully. Buy a developer a beer!
