                               Psi4 1.3.2 release

  ==> Input File <==

--------------------------------------------------------------------------
#psi4
#
memory 32 gb

molecule  {
0 1
  O        1.2408360    -0.2775280    -0.0000100
  C       -1.1702100    -0.1504720    -0.0000180
  C        0.3090914     0.3503678     0.0000313
  H       -1.7133170     0.2069280    -0.8812060
  H       -1.1329820    -1.2403210    -0.0006610
  H       -1.7128360     0.2058240     0.8819220
  H        0.2967200     1.5131120    -0.0000780
units angstrom
no_reorient  #important for SAPT in psi4, default
symmetry c1  #important for SAPT in psi4, default
}

set PROPERTIES_ORIGIN ["COM"]
properties('MP2/aug-cc-pvtz', properties = ['dipole'])
--------------------------------------------------------------------------

    Molecular point group: c1
  Charge       = 0
  Multiplicity = 1
  Basis Set: AUG-CC-PVTZ
    Blend: AUG-CC-PVTZ
  Basis Set: (AUG-CC-PVTZ AUX)
    Blend: AUG-CC-PVTZ-JKFIT

    Orbital Energies [Eh]
    ---------------------

    Doubly Occupied:

       1A    -20.567727     2A    -11.334078     3A    -11.239304
       4A     -1.460820     5A     -1.002611     6A     -0.787947
       7A     -0.690838     8A     -0.644847     9A     -0.610439
      10A     -0.560848    11A     -0.538867    12A     -0.406946

  @DF-RHF Final Energy:  -152.96625882175164

   => Energetics <=

    Nuclear Repulsion Energy =             70.4824184573681123
    One-Electron Energy =                -347.2068075123178801
    Two-Electron Energy =                 123.7581302331981163
    Total Energy =                       -152.9662588217516372
  Basis Set: (AUG-CC-PVTZ AUX)
    Blend: AUG-CC-PVTZ-RI
    Molecular point group: c1

    Geometry (in Angstrom), charge = 0, multiplicity = 1:

       Center              X                  Y                   Z               Mass
    ------------   -----------------  -----------------  -----------------  -----------------
         O            1.122318562788    -0.246878540895    -0.000009465566    15.994914619570
         C           -1.288727437212    -0.119822540895    -0.000017465566    12.000000000000
         C            0.190573962788     0.381017259105     0.000031834434    12.000000000000
         H           -1.831834437212     0.237577459105    -0.881205465566     1.007825032230
         H           -1.251499437212    -1.209671540895    -0.000660465566     1.007825032230
         H           -1.831353437212     0.236473459105     0.881922534434     1.007825032230
         H            0.178202562788     1.543761459105    -0.000077465566     1.007825032230

  Basis Set: AUG-CC-PVTZ
    Blend: AUG-CC-PVTZ
  Basis Set: (AUG-CC-PVTZ AUX)
    Blend: AUG-CC-PVTZ-JKFIT
	 Reference Energy          =    -152.9662588217516372 [Eh]
	 Singles Energy            =      -0.0000000000000000 [Eh]
	 Same-Spin Energy          =      -0.1420302633653327 [Eh]
	 Opposite-Spin Energy      =      -0.4799830894301677 [Eh]
	 Correlation Energy        =      -0.6220133527955003 [Eh]
	 Total Energy              =    -153.5882721745471429 [Eh]

	 ================> DF-SCS-MP2 Energies <==================
	-----------------------------------------------------------
	 SCS Same-Spin Scale       =       0.3333333333333333 [-]
	 SCS Opposite-Spin Scale   =       1.2000000000000000 [-]
	 SCS Same-Spin Energy      =      -0.0473434211217776 [Eh]
	 SCS Opposite-Spin Energy  =      -0.5759797073162012 [Eh]
	 SCS Correlation Energy    =      -0.6233231284379788 [Eh]
	 SCS Total Energy          =    -153.5895819501896256 [Eh]
	-----------------------------------------------------------

  Dipole Moment: [D]
     X:    -2.0546      Y:     0.8727      Z:     0.0001     Total:     2.2323

*** Psi4 exiting successfully. Buy a developer a beer!
