                               Psi4 1.4a3.dev225

  ==> Input File <==

--------------------------------------------------------------------------
#psi4
#
memory 32 gb

molecule  {
0 1
  O        1.2409240    -0.2774600     0.0000000
  C       -1.1702280    -0.1505200     0.0000000
  C        0.2726258     0.4246436     0.0000000
  H       -1.7131240     0.2066740    -0.8814370
  H       -1.1334130    -1.2403610    -0.0000090
  H       -1.7131170     0.2066590     0.8814470
  H        0.2965490     1.5130530     0.0000000
units angstrom
no_reorient  #important for SAPT in psi4, default
symmetry c1  #important for SAPT in psi4, default
}

set PROPERTIES_ORIGIN ["COM"]
properties('MP2/aug-cc-pvtz', properties = ['dipole'])
--------------------------------------------------------------------------

    Molecular point group: c1
  Charge       = 0
  Multiplicity = 1
  Basis Set: AUG-CC-PVTZ
    Blend: AUG-CC-PVTZ
  Basis Set: (AUG-CC-PVTZ AUX)
    Blend: AUG-CC-PVTZ-JKFIT

    Orbital Energies [Eh]
    ---------------------

    Doubly Occupied:

       1A    -20.563830     2A    -11.338088     3A    -11.242164
       4A     -1.405099     5A     -1.007342     6A     -0.809182
       7A     -0.677086     8A     -0.623719     9A     -0.599619
      10A     -0.561888    11A     -0.512832    12A     -0.423450

  @DF-RHF Final Energy:  -152.97537363265948

   => Energetics <=

    Nuclear Repulsion Energy =             69.3781634767547501
    One-Electron Energy =                -345.1784740928268320
    Two-Electron Energy =                 122.8249369834125844
    Total Energy =                       -152.9753736326594833
  Basis Set: (AUG-CC-PVTZ AUX)
    Blend: AUG-CC-PVTZ-RI
    Molecular point group: c1

    Geometry (in Angstrom), charge = 0, multiplicity = 1:

       Center              X                  Y                   Z               Mass
    ------------   -----------------  -----------------  -----------------  -----------------
         O            1.132334535231    -0.267078170783    -0.000000022891    15.994914619570
         C           -1.278817464769    -0.140138170783    -0.000000022891    12.000000000000
         C            0.164036335231     0.435025429217    -0.000000022891    12.000000000000
         H           -1.821713464769     0.217055829217    -0.881437022891     1.007825032230
         H           -1.242002464769    -1.229979170783    -0.000009022891     1.007825032230
         H           -1.821706464769     0.217040829217     0.881446977109     1.007825032230
         H            0.187959535231     1.523434829217    -0.000000022891     1.007825032230

  Basis Set: AUG-CC-PVTZ
    Blend: AUG-CC-PVTZ
  Basis Set: (AUG-CC-PVTZ AUX)
    Blend: AUG-CC-PVTZ-JKFIT
	 Reference Energy          =    -152.9753736326594833 [Eh]
	 Singles Energy            =      -0.0000000000000000 [Eh]
	 Same-Spin Energy          =      -0.1434617447555985 [Eh]
	 Opposite-Spin Energy      =      -0.4838441563130521 [Eh]
	 Correlation Energy        =      -0.6273059010686506 [Eh]
	 Total Energy              =    -153.6026795337281214 [Eh]

	 ================> DF-SCS-MP2 Energies <==================
	-----------------------------------------------------------
	 SCS Same-Spin Scale       =       0.3333333333333333 [-]
	 SCS Opposite-Spin Scale   =       1.2000000000000000 [-]
	 SCS Same-Spin Energy      =      -0.0478205815851995 [Eh]
	 SCS Opposite-Spin Energy  =      -0.5806129875756625 [Eh]
	 SCS Correlation Energy    =      -0.6284335691608620 [Eh]
	 SCS Total Energy          =    -153.6038072018203593 [Eh]
	-----------------------------------------------------------

  Dipole Moment: [D]
     X:    -2.3035      Y:     1.2305      Z:     0.0000     Total:     2.6116

*** Psi4 exiting successfully. Buy a developer a beer!
