                               Psi4 1.3.2 release

  ==> Input File <==

--------------------------------------------------------------------------
#psi4
#
memory 32 gb

molecule  {
0 1
  O        1.1638030    -0.3798443     0.0000081
  C       -1.1702100    -0.1504720    -0.0000180
  C        0.2261640     0.4062520     0.0000350
  H       -1.7133170     0.2069280    -0.8812060
  H       -1.1329820    -1.2403210    -0.0006610
  H       -1.7128360     0.2058240     0.8819220
  H        0.2967200     1.5131120    -0.0000780
units angstrom
no_reorient  #important for SAPT in psi4, default
symmetry c1  #important for SAPT in psi4, default
}

set PROPERTIES_ORIGIN ["COM"]
properties('MP2/aug-cc-pvtz', properties = ['dipole'])
--------------------------------------------------------------------------

    Molecular point group: c1
  Charge       = 0
  Multiplicity = 1
  Basis Set: AUG-CC-PVTZ
    Blend: AUG-CC-PVTZ
  Basis Set: (AUG-CC-PVTZ AUX)
    Blend: AUG-CC-PVTZ-JKFIT

    Orbital Energies [Eh]
    ---------------------

    Doubly Occupied:

       1A    -20.561438     2A    -11.341040     3A    -11.239402
       4A     -1.386839     5A     -1.018051     6A     -0.806690
       7A     -0.674920     8A     -0.618713     9A     -0.602663
      10A     -0.558589    11A     -0.499565    12A     -0.428861

  @DF-RHF Final Energy:  -152.97216301442342

   => Energetics <=

    Nuclear Repulsion Energy =             69.7197035839295722
    One-Electron Energy =                -345.9101915120229478
    Two-Electron Energy =                 123.2183249136699601
    Total Energy =                       -152.9721630144234155
  Basis Set: (AUG-CC-PVTZ AUX)
    Blend: AUG-CC-PVTZ-RI
    Molecular point group: c1

    Geometry (in Angstrom), charge = 0, multiplicity = 1:

       Center              X                  Y                   Z               Mass
    ------------   -----------------  -----------------  -----------------  -----------------
         O            1.095875082478    -0.327254956029     0.000001050136    15.994914619570
         C           -1.238137917522    -0.097882656029    -0.000025049864    12.000000000000
         C            0.158236082478     0.458841343971     0.000027950136    12.000000000000
         H           -1.781244917522     0.259517343971    -0.881213049864     1.007825032230
         H           -1.200909917522    -1.187731656029    -0.000668049864     1.007825032230
         H           -1.780763917522     0.258413343971     0.881914950136     1.007825032230
         H            0.228792082478     1.565701343971    -0.000085049864     1.007825032230

  Basis Set: AUG-CC-PVTZ
    Blend: AUG-CC-PVTZ
  Basis Set: (AUG-CC-PVTZ AUX)
    Blend: AUG-CC-PVTZ-JKFIT
	 Reference Energy          =    -152.9721630144234155 [Eh]
	 Singles Energy            =      -0.0000000000000000 [Eh]
	 Same-Spin Energy          =      -0.1445891210364129 [Eh]
	 Opposite-Spin Energy      =      -0.4857460791522223 [Eh]
	 Correlation Energy        =      -0.6303352001886353 [Eh]
	 Total Energy              =    -153.6024982146120408 [Eh]

	 ================> DF-SCS-MP2 Energies <==================
	-----------------------------------------------------------
	 SCS Same-Spin Scale       =       0.3333333333333333 [-]
	 SCS Opposite-Spin Scale   =       1.2000000000000000 [-]
	 SCS Same-Spin Energy      =      -0.0481963736788043 [Eh]
	 SCS Opposite-Spin Energy  =      -0.5828952949826668 [Eh]
	 SCS Correlation Energy    =      -0.6310916686614712 [Eh]
	 SCS Total Energy          =    -153.6032546830848844 [Eh]
	-----------------------------------------------------------

  Dipole Moment: [D]
     X:    -2.3533      Y:     1.3927      Z:     0.0001     Total:     2.7345

*** Psi4 exiting successfully. Buy a developer a beer!
