                               Psi4 1.3.2 release

  ==> Input File <==

--------------------------------------------------------------------------
#psi4
#
memory 32 gb

molecule  {
0 1
  O        1.2163543    -0.3125230    -0.0000040
  C       -1.1702100    -0.1504720    -0.0000180
  C        0.2261640     0.4062520     0.0000350
  H       -1.7133170     0.2069280    -0.8812060
  H       -1.1329820    -1.2403210    -0.0006610
  H       -1.7128360     0.2058240     0.8819220
  H        0.2967200     1.5131120    -0.0000780
units angstrom
no_reorient  #important for SAPT in psi4, default
symmetry c1  #important for SAPT in psi4, default
}

set PROPERTIES_ORIGIN ["COM"]
properties('MP2/aug-cc-pvtz', properties = ['dipole'])
--------------------------------------------------------------------------

    Molecular point group: c1
  Charge       = 0
  Multiplicity = 1
  Basis Set: AUG-CC-PVTZ
    Blend: AUG-CC-PVTZ
  Basis Set: (AUG-CC-PVTZ AUX)
    Blend: AUG-CC-PVTZ-JKFIT

    Orbital Energies [Eh]
    ---------------------

    Doubly Occupied:

       1A    -20.561575     2A    -11.340659     3A    -11.243188
       4A     -1.385969     5A     -1.021423     6A     -0.804779
       7A     -0.673806     8A     -0.620972     9A     -0.604226
      10A     -0.560439    11A     -0.500593    12A     -0.429397

  @DF-RHF Final Energy:  -152.97459099191911

   => Energetics <=

    Nuclear Repulsion Energy =             69.4621716758596506
    One-Electron Energy =                -345.3794729926368063
    Two-Electron Energy =                 122.9427103248580693
    Total Energy =                       -152.9745909919191149
  Basis Set: (AUG-CC-PVTZ AUX)
    Blend: AUG-CC-PVTZ-RI
    Molecular point group: c1

    Geometry (in Angstrom), charge = 0, multiplicity = 1:

       Center              X                  Y                   Z               Mass
    ------------   -----------------  -----------------  -----------------  -----------------
         O            1.129334267440    -0.284391776077    -0.000006653882    15.994914619570
         C           -1.257230032560    -0.122340776077    -0.000020653882    12.000000000000
         C            0.139143967440     0.434383223923     0.000032346118    12.000000000000
         H           -1.800337032560     0.235059223923    -0.881208653882     1.007825032230
         H           -1.220002032560    -1.212189776077    -0.000663653882     1.007825032230
         H           -1.799856032560     0.233955223923     0.881919346118     1.007825032230
         H            0.209699967440     1.541243223923    -0.000080653882     1.007825032230

  Basis Set: AUG-CC-PVTZ
    Blend: AUG-CC-PVTZ
  Basis Set: (AUG-CC-PVTZ AUX)
    Blend: AUG-CC-PVTZ-JKFIT
	 Reference Energy          =    -152.9745909919191149 [Eh]
	 Singles Energy            =      -0.0000000000000000 [Eh]
	 Same-Spin Energy          =      -0.1444740790493820 [Eh]
	 Opposite-Spin Energy      =      -0.4855496500045192 [Eh]
	 Correlation Energy        =      -0.6300237290539012 [Eh]
	 Total Energy              =    -153.6046147209730179 [Eh]

	 ================> DF-SCS-MP2 Energies <==================
	-----------------------------------------------------------
	 SCS Same-Spin Scale       =       0.3333333333333333 [-]
	 SCS Opposite-Spin Scale   =       1.2000000000000000 [-]
	 SCS Same-Spin Energy      =      -0.0481580263497940 [Eh]
	 SCS Opposite-Spin Energy  =      -0.5826595800054231 [Eh]
	 SCS Correlation Energy    =      -0.6308176063552171 [Eh]
	 SCS Total Energy          =    -153.6054085982743231 [Eh]
	-----------------------------------------------------------

  Dipole Moment: [D]
     X:    -2.4993      Y:     1.2484      Z:     0.0001     Total:     2.7937

*** Psi4 exiting successfully. Buy a developer a beer!
