                               Psi4 1.3.2 release

  ==> Input File <==

--------------------------------------------------------------------------
#psi4
#
memory 32 gb

molecule  {
0 1
  O        1.2408360    -0.2775280    -0.0000100
  C       -1.1702100    -0.1504720    -0.0000180
  C        0.3920189     0.2944836     0.0000276
  H       -1.7133170     0.2069280    -0.8812060
  H       -1.1329820    -1.2403210    -0.0006610
  H       -1.7128360     0.2058240     0.8819220
  H        0.2967200     1.5131120    -0.0000780
units angstrom
no_reorient  #important for SAPT in psi4, default
symmetry c1  #important for SAPT in psi4, default
}

set PROPERTIES_ORIGIN ["COM"]
properties('MP2/aug-cc-pvtz', properties = ['dipole'])
--------------------------------------------------------------------------

    Molecular point group: c1
  Charge       = 0
  Multiplicity = 1
  Basis Set: AUG-CC-PVTZ
    Blend: AUG-CC-PVTZ
  Basis Set: (AUG-CC-PVTZ AUX)
    Blend: AUG-CC-PVTZ-JKFIT

    Orbital Energies [Eh]
    ---------------------

    Doubly Occupied:

       1A    -20.577727     2A    -11.329371     3A    -11.232511
       4A     -1.549286     5A     -0.983303     6A     -0.779167
       7A     -0.720913     8A     -0.669217     9A     -0.651379
      10A     -0.559607    11A     -0.555086    12A     -0.375302

  @DF-RHF Final Energy:  -152.90128858322058

   => Energetics <=

    Nuclear Repulsion Energy =             71.9847206860638522
    One-Electron Energy =                -349.8062800126563729
    Two-Electron Energy =                 124.9202707433719581
    Total Energy =                       -152.9012885832205768
  Basis Set: (AUG-CC-PVTZ AUX)
    Blend: AUG-CC-PVTZ-RI
    Molecular point group: c1

    Geometry (in Angstrom), charge = 0, multiplicity = 1:

       Center              X                  Y                   Z               Mass
    ------------   -----------------  -----------------  -----------------  -----------------
         O            1.099715438588    -0.231646470552    -0.000008457076    15.994914619570
         C           -1.311330561412    -0.104590470552    -0.000016457076    12.000000000000
         C            0.250898338588     0.340365129448     0.000029142924    12.000000000000
         H           -1.854437561412     0.252809529448    -0.881204457076     1.007825032230
         H           -1.274102561412    -1.194439470552    -0.000659457076     1.007825032230
         H           -1.853956561412     0.251705529448     0.881923542924     1.007825032230
         H            0.155599438588     1.558993529448    -0.000076457076     1.007825032230

  Basis Set: AUG-CC-PVTZ
    Blend: AUG-CC-PVTZ
  Basis Set: (AUG-CC-PVTZ AUX)
    Blend: AUG-CC-PVTZ-JKFIT
	 Reference Energy          =    -152.9012885832205768 [Eh]
	 Singles Energy            =      -0.0000000000000000 [Eh]
	 Same-Spin Energy          =      -0.1401748873248154 [Eh]
	 Opposite-Spin Energy      =      -0.4755626457580150 [Eh]
	 Correlation Energy        =      -0.6157375330828303 [Eh]
	 Total Energy              =    -153.5170261163034127 [Eh]

	 ================> DF-SCS-MP2 Energies <==================
	-----------------------------------------------------------
	 SCS Same-Spin Scale       =       0.3333333333333333 [-]
	 SCS Opposite-Spin Scale   =       1.2000000000000000 [-]
	 SCS Same-Spin Energy      =      -0.0467249624416051 [Eh]
	 SCS Opposite-Spin Energy  =      -0.5706751749096179 [Eh]
	 SCS Correlation Energy    =      -0.6174001373512230 [Eh]
	 SCS Total Energy          =    -153.5186887205717881 [Eh]
	-----------------------------------------------------------

  Dipole Moment: [D]
     X:    -1.4091      Y:     0.4390      Z:     0.0001     Total:     1.4759

*** Psi4 exiting successfully. Buy a developer a beer!
