                               Psi4 1.3.2 release

  ==> Input File <==

--------------------------------------------------------------------------
#psi4
#
memory 32 gb

molecule  {
0 1
  O        1.2526151    -0.2597154    -0.0000130
  C       -1.1702100    -0.1504720    -0.0000180
  C        0.2261640     0.4062520     0.0000350
  H       -1.7133170     0.2069280    -0.8812060
  H       -1.1329820    -1.2403210    -0.0006610
  H       -1.7128360     0.2058240     0.8819220
  H        0.2967200     1.5131120    -0.0000780
units angstrom
no_reorient  #important for SAPT in psi4, default
symmetry c1  #important for SAPT in psi4, default
}

set PROPERTIES_ORIGIN ["COM"]
properties('MP2/aug-cc-pvtz', properties = ['dipole'])
--------------------------------------------------------------------------

    Molecular point group: c1
  Charge       = 0
  Multiplicity = 1
  Basis Set: AUG-CC-PVTZ
    Blend: AUG-CC-PVTZ
  Basis Set: (AUG-CC-PVTZ AUX)
    Blend: AUG-CC-PVTZ-JKFIT

    Orbital Energies [Eh]
    ---------------------

    Doubly Occupied:

       1A    -20.561594     2A    -11.340385     3A    -11.245973
       4A     -1.385510     5A     -1.023779     6A     -0.803383
       7A     -0.673011     8A     -0.622610     9A     -0.605428
      10A     -0.561888    11A     -0.501285    12A     -0.428891

  @DF-RHF Final Energy:  -152.97489791507641

   => Energetics <=

    Nuclear Repulsion Energy =             69.2902913593216567
    One-Electron Energy =                -345.0229012432254763
    Two-Electron Energy =                 122.7577119688274081
    Total Energy =                       -152.9748979150764114
  Basis Set: (AUG-CC-PVTZ AUX)
    Blend: AUG-CC-PVTZ-RI
    Molecular point group: c1

    Geometry (in Angstrom), charge = 0, multiplicity = 1:

       Center              X                  Y                   Z               Mass
    ------------   -----------------  -----------------  -----------------  -----------------
         O            1.152421361653    -0.250769406015    -0.000012384143    15.994914619570
         C           -1.270403738347    -0.141526006015    -0.000017384143    12.000000000000
         C            0.125970261653     0.415197993985     0.000035615857    12.000000000000
         H           -1.813510738347     0.215873993985    -0.881205384143     1.007825032230
         H           -1.233175738347    -1.231375006015    -0.000660384143     1.007825032230
         H           -1.813029738347     0.214769993985     0.881922615857     1.007825032230
         H            0.196526261653     1.522057993985    -0.000077384143     1.007825032230

  Basis Set: AUG-CC-PVTZ
    Blend: AUG-CC-PVTZ
  Basis Set: (AUG-CC-PVTZ AUX)
    Blend: AUG-CC-PVTZ-JKFIT
	 Reference Energy          =    -152.9748979150764114 [Eh]
	 Singles Energy            =      -0.0000000000000000 [Eh]
	 Same-Spin Energy          =      -0.1444301896969268 [Eh]
	 Opposite-Spin Energy      =      -0.4855031472292760 [Eh]
	 Correlation Energy        =      -0.6299333369262028 [Eh]
	 Total Energy              =    -153.6048312520026116 [Eh]

	 ================> DF-SCS-MP2 Energies <==================
	-----------------------------------------------------------
	 SCS Same-Spin Scale       =       0.3333333333333333 [-]
	 SCS Opposite-Spin Scale   =       1.2000000000000000 [-]
	 SCS Same-Spin Energy      =      -0.0481433965656423 [Eh]
	 SCS Opposite-Spin Energy  =      -0.5826037766751312 [Eh]
	 SCS Correlation Energy    =      -0.6307471732407735 [Eh]
	 SCS Total Energy          =    -153.6056450883171749 [Eh]
	-----------------------------------------------------------

  Dipole Moment: [D]
     X:    -2.5999      Y:     1.1339      Z:     0.0001     Total:     2.8364

*** Psi4 exiting successfully. Buy a developer a beer!
