                               Psi4 1.3.2 release

  ==> Input File <==

--------------------------------------------------------------------------
#psi4
#
memory 32 gb

molecule  {
0 1
  O        1.2408360    -0.2775280    -0.0000100
  C       -1.1702100    -0.1504720    -0.0000180
  C        0.2261640     0.4062520     0.0000350
  H       -1.7133170     0.2069280    -0.8812060
  H       -1.1329820    -1.2403210    -0.0006610
  H       -1.7128360     0.2058240     0.8819220
  H        0.3094430     1.7127069    -0.0000984
units angstrom
no_reorient  #important for SAPT in psi4, default
symmetry c1  #important for SAPT in psi4, default
}

set PROPERTIES_ORIGIN ["COM"]
properties('MP2/aug-cc-pvtz', properties = ['dipole'])
--------------------------------------------------------------------------

    Molecular point group: c1
  Charge       = 0
  Multiplicity = 1
  Basis Set: AUG-CC-PVTZ
    Blend: AUG-CC-PVTZ
  Basis Set: (AUG-CC-PVTZ AUX)
    Blend: AUG-CC-PVTZ-JKFIT

    Orbital Energies [Eh]
    ---------------------

    Doubly Occupied:

       1A    -20.568899     2A    -11.362872     3A    -11.250680
       4A     -1.390818     5A     -1.024009     6A     -0.774070
       7A     -0.661718     8A     -0.626195     9A     -0.608444
      10A     -0.557335    11A     -0.506533    12A     -0.420400

  @DF-RHF Final Energy:  -152.95508933549448

   => Energetics <=

    Nuclear Repulsion Energy =             68.6187461326503012
    One-Electron Energy =                -343.6437235125687835
    Two-Electron Energy =                 122.0698880444240046
    Total Energy =                       -152.9550893354944776
  Basis Set: (AUG-CC-PVTZ AUX)
    Blend: AUG-CC-PVTZ-RI
    Molecular point group: c1

    Geometry (in Angstrom), charge = 0, multiplicity = 1:

       Center              X                  Y                   Z               Mass
    ------------   -----------------  -----------------  -----------------  -----------------
         O            1.144630411484    -0.266679633074    -0.000010007070    15.994914619570
         C           -1.266415588516    -0.139623633074    -0.000018007070    12.000000000000
         C            0.129958411484     0.417100366926     0.000034992930    12.000000000000
         H           -1.809522588516     0.217776366926    -0.881206007070     1.007825032230
         H           -1.229187588516    -1.229472633074    -0.000661007070     1.007825032230
         H           -1.809041588516     0.216672366926     0.881921992930     1.007825032230
         H            0.213237411484     1.723555266926    -0.000098407070     1.007825032230

  Basis Set: AUG-CC-PVTZ
    Blend: AUG-CC-PVTZ
  Basis Set: (AUG-CC-PVTZ AUX)
    Blend: AUG-CC-PVTZ-JKFIT
	 Reference Energy          =    -152.9550893354944776 [Eh]
	 Singles Energy            =      -0.0000000000000000 [Eh]
	 Same-Spin Energy          =      -0.1452666203980675 [Eh]
	 Opposite-Spin Energy      =      -0.4877082259057073 [Eh]
	 Correlation Energy        =      -0.6329748463037748 [Eh]
	 Total Energy              =    -153.5880641817982450 [Eh]

	 ================> DF-SCS-MP2 Energies <==================
	-----------------------------------------------------------
	 SCS Same-Spin Scale       =       0.3333333333333333 [-]
	 SCS Opposite-Spin Scale   =       1.2000000000000000 [-]
	 SCS Same-Spin Energy      =      -0.0484222067993558 [Eh]
	 SCS Opposite-Spin Energy  =      -0.5852498710868487 [Eh]
	 SCS Correlation Energy    =      -0.6336720778862045 [Eh]
	 SCS Total Energy          =    -153.5887614133806949 [Eh]
	-----------------------------------------------------------

  Dipole Moment: [D]
     X:    -2.5700      Y:     0.8404      Z:     0.0001     Total:     2.7039

*** Psi4 exiting successfully. Buy a developer a beer!
