                               Psi4 1.4a3.dev225

  ==> Input File <==

--------------------------------------------------------------------------
#psi4
#
memory 32 gb

molecule  {
0 1
  O        1.2409240    -0.2774600     0.0000000
  C       -1.1702280    -0.1505200     0.0000000
  C        0.1847118     0.4340644     0.0000000
  H       -1.7131240     0.2066740    -0.8814370
  H       -1.1334130    -1.2403610    -0.0000090
  H       -1.7131170     0.2066590     0.8814470
  H        0.2965490     1.5130530     0.0000000
units angstrom
no_reorient  #important for SAPT in psi4, default
symmetry c1  #important for SAPT in psi4, default
}

set PROPERTIES_ORIGIN ["COM"]
properties('MP2/aug-cc-pvtz', properties = ['dipole'])
--------------------------------------------------------------------------

    Molecular point group: c1
  Charge       = 0
  Multiplicity = 1
  Basis Set: AUG-CC-PVTZ
    Blend: AUG-CC-PVTZ
  Basis Set: (AUG-CC-PVTZ AUX)
    Blend: AUG-CC-PVTZ-JKFIT

    Orbital Energies [Eh]
    ---------------------

    Doubly Occupied:

       1A    -20.559147     2A    -11.344018     3A    -11.247652
       4A     -1.353483     5A     -1.033422     6A     -0.812461
       7A     -0.668846     8A     -0.614164     9A     -0.607360
      10A     -0.559689    11A     -0.481491    12A     -0.435426

  @DF-RHF Final Energy:  -152.96553451425683

   => Energetics <=

    Nuclear Repulsion Energy =             68.8834962730971938
    One-Electron Energy =                -344.2637450840286988
    Two-Electron Energy =                 122.4147142966746742
    Total Energy =                       -152.9655345142568308
  Basis Set: (AUG-CC-PVTZ AUX)
    Blend: AUG-CC-PVTZ-RI
    Molecular point group: c1

    Geometry (in Angstrom), charge = 0, multiplicity = 1:

       Center              X                  Y                   Z               Mass
    ------------   -----------------  -----------------  -----------------  -----------------
         O            1.156296804211    -0.269645950017    -0.000000022891    15.994914619570
         C           -1.254855195789    -0.142705950017    -0.000000022891    12.000000000000
         C            0.100084604211     0.441878449983    -0.000000022891    12.000000000000
         H           -1.797751195789     0.214488049983    -0.881437022891     1.007825032230
         H           -1.218040195789    -1.232546950017    -0.000009022891     1.007825032230
         H           -1.797744195789     0.214473049983     0.881446977109     1.007825032230
         H            0.211921804211     1.520867049983    -0.000000022891     1.007825032230

  Basis Set: AUG-CC-PVTZ
    Blend: AUG-CC-PVTZ
  Basis Set: (AUG-CC-PVTZ AUX)
    Blend: AUG-CC-PVTZ-JKFIT
	 Reference Energy          =    -152.9655345142568308 [Eh]
	 Singles Energy            =      -0.0000000000000000 [Eh]
	 Same-Spin Energy          =      -0.1459344185866807 [Eh]
	 Opposite-Spin Energy      =      -0.4888119674750138 [Eh]
	 Correlation Energy        =      -0.6347463860616945 [Eh]
	 Total Energy              =    -153.6002809003185234 [Eh]

	 ================> DF-SCS-MP2 Energies <==================
	-----------------------------------------------------------
	 SCS Same-Spin Scale       =       0.3333333333333333 [-]
	 SCS Opposite-Spin Scale   =       1.2000000000000000 [-]
	 SCS Same-Spin Energy      =      -0.0486448061955602 [Eh]
	 SCS Opposite-Spin Energy  =      -0.5865743609700166 [Eh]
	 SCS Correlation Energy    =      -0.6352191671655768 [Eh]
	 SCS Total Energy          =    -153.6007536814224181 [Eh]
	-----------------------------------------------------------

  Dipole Moment: [D]
     X:    -2.7726      Y:     1.2736      Z:     0.0000     Total:     3.0511

*** Psi4 exiting successfully. Buy a developer a beer!
