                               Psi4 1.3.2 release

  ==> Input File <==

--------------------------------------------------------------------------
#psi4
#
memory 32 gb

molecule  {
0 1
  O        1.2408360    -0.2775280    -0.0000100
  C       -1.1702100    -0.1504720    -0.0000180
  C        0.2261640     0.4062520     0.0000350
  H       -1.7133170     0.2069280    -0.8812060
  H       -1.1329820    -1.2403210    -0.0006610
  H       -1.7128360     0.2058240     0.8819220
  H        0.2839970     1.3135171    -0.0000576
units angstrom
no_reorient  #important for SAPT in psi4, default
symmetry c1  #important for SAPT in psi4, default
}

set PROPERTIES_ORIGIN ["COM"]
properties('MP2/aug-cc-pvtz', properties = ['dipole'])
--------------------------------------------------------------------------

    Molecular point group: c1
  Charge       = 0
  Multiplicity = 1
  Basis Set: AUG-CC-PVTZ
    Blend: AUG-CC-PVTZ
  Basis Set: (AUG-CC-PVTZ AUX)
    Blend: AUG-CC-PVTZ-JKFIT

    Orbital Energies [Eh]
    ---------------------

    Doubly Occupied:

       1A    -20.557728     2A    -11.316061     3A    -11.241404
       4A     -1.383747     5A     -1.027604     6A     -0.857255
       7A     -0.681020     8A     -0.620191     9A     -0.603131
      10A     -0.564721    11A     -0.497848    12A     -0.434847

  @DF-RHF Final Energy:  -152.94512214144999

   => Energetics <=

    Nuclear Repulsion Energy =             70.3001171947877310
    One-Electron Energy =                -346.9193631439363799
    Two-Electron Energy =                 123.6741238076986633
    Total Energy =                       -152.9451221414499855
  Basis Set: (AUG-CC-PVTZ AUX)
    Blend: AUG-CC-PVTZ-RI
    Molecular point group: c1

    Geometry (in Angstrom), charge = 0, multiplicity = 1:

       Center              X                  Y                   Z               Mass
    ------------   -----------------  -----------------  -----------------  -----------------
         O            1.145212907979    -0.257541589403    -0.000010941042    15.994914619570
         C           -1.265833092021    -0.130485589403    -0.000018941042    12.000000000000
         C            0.130540907979     0.426238410597     0.000034058958    12.000000000000
         H           -1.808940092021     0.226914410597    -0.881206941042     1.007825032230
         H           -1.228605092021    -1.220334589403    -0.000661941042     1.007825032230
         H           -1.808459092021     0.225810410597     0.881921058958     1.007825032230
         H            0.188373907979     1.333503510597    -0.000058541042     1.007825032230

  Basis Set: AUG-CC-PVTZ
    Blend: AUG-CC-PVTZ
  Basis Set: (AUG-CC-PVTZ AUX)
    Blend: AUG-CC-PVTZ-JKFIT
	 Reference Energy          =    -152.9451221414499855 [Eh]
	 Singles Energy            =      -0.0000000000000000 [Eh]
	 Same-Spin Energy          =      -0.1441022247135099 [Eh]
	 Opposite-Spin Energy      =      -0.4851708594437827 [Eh]
	 Correlation Energy        =      -0.6292730841572926 [Eh]
	 Total Energy              =    -153.5743952256072760 [Eh]

	 ================> DF-SCS-MP2 Energies <==================
	-----------------------------------------------------------
	 SCS Same-Spin Scale       =       0.3333333333333333 [-]
	 SCS Opposite-Spin Scale   =       1.2000000000000000 [-]
	 SCS Same-Spin Energy      =      -0.0480340749045033 [Eh]
	 SCS Opposite-Spin Energy  =      -0.5822050313325392 [Eh]
	 SCS Correlation Energy    =      -0.6302391062370425 [Eh]
	 SCS Total Energy          =    -153.5753612476870273 [Eh]
	-----------------------------------------------------------

  Dipole Moment: [D]
     X:    -2.5672      Y:     1.3548      Z:     0.0001     Total:     2.9028

*** Psi4 exiting successfully. Buy a developer a beer!
