                               Psi4 1.4a3.dev225

  ==> Input File <==

--------------------------------------------------------------------------
#psi4
#
memory 32 gb

molecule  {
0 1
  O        1.2409240    -0.2774600     0.0000000
  C       -1.1702280    -0.1505200     0.0000000
  C        0.2095927     0.4173031     0.0000000
  H       -1.7131240     0.2066740    -0.8814370
  H       -1.1334130    -1.2403610    -0.0000090
  H       -1.7131170     0.2066590     0.8814470
  H        0.2965490     1.5130530     0.0000000
units angstrom
no_reorient  #important for SAPT in psi4, default
symmetry c1  #important for SAPT in psi4, default
}

set PROPERTIES_ORIGIN ["COM"]
properties('MP2/aug-cc-pvtz', properties = ['dipole'])
--------------------------------------------------------------------------

    Molecular point group: c1
  Charge       = 0
  Multiplicity = 1
  Basis Set: AUG-CC-PVTZ
    Blend: AUG-CC-PVTZ
  Basis Set: (AUG-CC-PVTZ AUX)
    Blend: AUG-CC-PVTZ-JKFIT

    Orbital Energies [Eh]
    ---------------------

    Doubly Occupied:

       1A    -20.560600     2A    -11.341873     3A    -11.246111
       4A     -1.372372     5A     -1.027171     6A     -0.807264
       7A     -0.671173     8A     -0.618471     9A     -0.605732
      10A     -0.561095    11A     -0.493120    12A     -0.432052

  @DF-RHF Final Energy:  -152.97208000756854

   => Energetics <=

    Nuclear Repulsion Energy =             69.1530775218549536
    One-Electron Energy =                -344.7762468851208837
    Two-Electron Energy =                 122.6510893556973514
    Total Energy =                       -152.9720800075685361
  Basis Set: (AUG-CC-PVTZ AUX)
    Blend: AUG-CC-PVTZ-RI
    Molecular point group: c1

    Geometry (in Angstrom), charge = 0, multiplicity = 1:

       Center              X                  Y                   Z               Mass
    ------------   -----------------  -----------------  -----------------  -----------------
         O            1.149515144655    -0.265077408271    -0.000000022891    15.994914619570
         C           -1.261636855345    -0.138137408271    -0.000000022891    12.000000000000
         C            0.118183844655     0.429685691729    -0.000000022891    12.000000000000
         H           -1.804532855345     0.219056591729    -0.881437022891     1.007825032230
         H           -1.224821855345    -1.227978408271    -0.000009022891     1.007825032230
         H           -1.804525855345     0.219041591729     0.881446977109     1.007825032230
         H            0.205140144655     1.525435591729    -0.000000022891     1.007825032230

  Basis Set: AUG-CC-PVTZ
    Blend: AUG-CC-PVTZ
  Basis Set: (AUG-CC-PVTZ AUX)
    Blend: AUG-CC-PVTZ-JKFIT
	 Reference Energy          =    -152.9720800075685361 [Eh]
	 Singles Energy            =      -0.0000000000000000 [Eh]
	 Same-Spin Energy          =      -0.1450129864082250 [Eh]
	 Opposite-Spin Energy      =      -0.4867841377315610 [Eh]
	 Correlation Energy        =      -0.6317971241397861 [Eh]
	 Total Energy              =    -153.6038771317083160 [Eh]

	 ================> DF-SCS-MP2 Energies <==================
	-----------------------------------------------------------
	 SCS Same-Spin Scale       =       0.3333333333333333 [-]
	 SCS Opposite-Spin Scale   =       1.2000000000000000 [-]
	 SCS Same-Spin Energy      =      -0.0483376621360750 [Eh]
	 SCS Opposite-Spin Energy  =      -0.5841409652778732 [Eh]
	 SCS Correlation Energy    =      -0.6324786274139482 [Eh]
	 SCS Total Energy          =    -153.6045586349824816 [Eh]
	-----------------------------------------------------------

  Dipole Moment: [D]
     X:    -2.6536      Y:     1.2166      Z:     0.0000     Total:     2.9192

*** Psi4 exiting successfully. Buy a developer a beer!
