                               Psi4 1.4a3.dev225

  ==> Input File <==

--------------------------------------------------------------------------
#psi4
#
memory 32 gb

molecule  {
0 1
  O        1.2409240    -0.2774600     0.0000000
  C       -1.1702280    -0.1505200     0.0000000
  C        0.2427673     0.3949549     0.0000000
  H       -1.7131240     0.2066740    -0.8814370
  H       -1.1334130    -1.2403610    -0.0000090
  H       -1.7131170     0.2066590     0.8814470
  H        0.2965490     1.5130530     0.0000000
units angstrom
no_reorient  #important for SAPT in psi4, default
symmetry c1  #important for SAPT in psi4, default
}

set PROPERTIES_ORIGIN ["COM"]
properties('MP2/aug-cc-pvtz', properties = ['dipole'])
--------------------------------------------------------------------------

    Molecular point group: c1
  Charge       = 0
  Multiplicity = 1
  Basis Set: AUG-CC-PVTZ
    Blend: AUG-CC-PVTZ
  Basis Set: (AUG-CC-PVTZ AUX)
    Blend: AUG-CC-PVTZ-JKFIT

    Orbital Energies [Eh]
    ---------------------

    Doubly Occupied:

       1A    -20.562643     2A    -11.339114     3A    -11.243983
       4A     -1.399554     5A     -1.018881     6A     -0.800438
       7A     -0.675843     8A     -0.626156     9A     -0.604626
      10A     -0.561509    11A     -0.509093    12A     -0.425684

  @DF-RHF Final Energy:  -152.97646551801986

   => Energetics <=

    Nuclear Repulsion Energy =             69.5483180138496806
    One-Electron Energy =                -345.5145194565978954
    Two-Electron Energy =                 122.9897359247283788
    Total Energy =                       -152.9764655180198361
  Basis Set: (AUG-CC-PVTZ AUX)
    Blend: AUG-CC-PVTZ-RI
    Molecular point group: c1

    Geometry (in Angstrom), charge = 0, multiplicity = 1:

       Center              X                  Y                   Z               Mass
    ------------   -----------------  -----------------  -----------------  -----------------
         O            1.140472913741    -0.258986073789    -0.000000022891    15.994914619570
         C           -1.270679086259    -0.132046073789    -0.000000022891    12.000000000000
         C            0.142316213741     0.413428826211    -0.000000022891    12.000000000000
         H           -1.813575086259     0.225147926211    -0.881437022891     1.007825032230
         H           -1.233864086259    -1.221887073789    -0.000009022891     1.007825032230
         H           -1.813568086259     0.225132926211     0.881446977109     1.007825032230
         H            0.196097913741     1.531526926211    -0.000000022891     1.007825032230

  Basis Set: AUG-CC-PVTZ
    Blend: AUG-CC-PVTZ
  Basis Set: (AUG-CC-PVTZ AUX)
    Blend: AUG-CC-PVTZ-JKFIT
	 Reference Energy          =    -152.9764655180198645 [Eh]
	 Singles Energy            =      -0.0000000000000000 [Eh]
	 Same-Spin Energy          =      -0.1438991554024563 [Eh]
	 Opposite-Spin Energy      =      -0.4842887016102173 [Eh]
	 Correlation Energy        =      -0.6281878570126735 [Eh]
	 Total Energy              =    -153.6046533750325409 [Eh]

	 ================> DF-SCS-MP2 Energies <==================
	-----------------------------------------------------------
	 SCS Same-Spin Scale       =       0.3333333333333333 [-]
	 SCS Opposite-Spin Scale   =       1.2000000000000000 [-]
	 SCS Same-Spin Energy      =      -0.0479663851341521 [Eh]
	 SCS Opposite-Spin Energy  =      -0.5811464419322607 [Eh]
	 SCS Correlation Energy    =      -0.6291128270664128 [Eh]
	 SCS Total Energy          =    -153.6055783450862862 [Eh]
	-----------------------------------------------------------

  Dipole Moment: [D]
     X:    -2.4760      Y:     1.1229      Z:     0.0000     Total:     2.7188

*** Psi4 exiting successfully. Buy a developer a beer!
