                               Psi4 1.3.2 release

  ==> Input File <==

--------------------------------------------------------------------------
#psi4
#
memory 32 gb

molecule  {
0 1
  O        1.2408360    -0.2775280    -0.0000100
  C       -1.2207540    -0.0014614    -0.0000381
  C        0.2261640     0.4062520     0.0000350
  H       -1.7133170     0.2069280    -0.8812060
  H       -1.1329820    -1.2403210    -0.0006610
  H       -1.7128360     0.2058240     0.8819220
  H        0.2967200     1.5131120    -0.0000780
units angstrom
no_reorient  #important for SAPT in psi4, default
symmetry c1  #important for SAPT in psi4, default
}

set PROPERTIES_ORIGIN ["COM"]
properties('MP2/aug-cc-pvtz', properties = ['dipole'])
--------------------------------------------------------------------------

    Molecular point group: c1
  Charge       = 0
  Multiplicity = 1
  Basis Set: AUG-CC-PVTZ
    Blend: AUG-CC-PVTZ
  Basis Set: (AUG-CC-PVTZ AUX)
    Blend: AUG-CC-PVTZ-JKFIT

    Orbital Energies [Eh]
    ---------------------

    Doubly Occupied:

       1A    -20.567976     2A    -11.344080     3A    -11.248625
       4A     -1.388332     5A     -1.029933     6A     -0.805139
       7A     -0.672698     8A     -0.641684     9A     -0.630026
      10A     -0.512331    11A     -0.512093    12A     -0.427930

  @DF-RHF Final Energy:  -152.94987535785199

   => Energetics <=

    Nuclear Repulsion Energy =             69.1349617070440559
    One-Electron Energy =                -344.6079833198617735
    Two-Electron Energy =                 122.5231462549657380
    Total Energy =                       -152.9498753578519654
  Basis Set: (AUG-CC-PVTZ AUX)
    Blend: AUG-CC-PVTZ-RI
    Molecular point group: c1

    Geometry (in Angstrom), charge = 0, multiplicity = 1:

       Center              X                  Y                   Z               Mass
    ------------   -----------------  -----------------  -----------------  -----------------
         O            1.158698179095    -0.302725667750    -0.000004995502    15.994914619570
         C           -1.302891820905    -0.026659067750    -0.000033095502    12.000000000000
         C            0.144026179095     0.381054332250     0.000040004498    12.000000000000
         H           -1.795454820905     0.181730332250    -0.881200995502     1.007825032230
         H           -1.215119820905    -1.265518667750    -0.000655995502     1.007825032230
         H           -1.794973820905     0.180626332250     0.881927004498     1.007825032230
         H            0.214582179095     1.487914332250    -0.000072995502     1.007825032230

  Basis Set: AUG-CC-PVTZ
    Blend: AUG-CC-PVTZ
  Basis Set: (AUG-CC-PVTZ AUX)
    Blend: AUG-CC-PVTZ-JKFIT
	 Reference Energy          =    -152.9498753578519938 [Eh]
	 Singles Energy            =      -0.0000000000000000 [Eh]
	 Same-Spin Energy          =      -0.1449311211843689 [Eh]
	 Opposite-Spin Energy      =      -0.4872266036571021 [Eh]
	 Correlation Energy        =      -0.6321577248414710 [Eh]
	 Total Energy              =    -153.5820330826934708 [Eh]

	 ================> DF-SCS-MP2 Energies <==================
	-----------------------------------------------------------
	 SCS Same-Spin Scale       =       0.3333333333333333 [-]
	 SCS Opposite-Spin Scale   =       1.2000000000000000 [-]
	 SCS Same-Spin Energy      =      -0.0483103737281230 [Eh]
	 SCS Opposite-Spin Energy  =      -0.5846719243885226 [Eh]
	 SCS Correlation Energy    =      -0.6329822981166455 [Eh]
	 SCS Total Energy          =    -153.5828576559686383 [Eh]
	-----------------------------------------------------------

  Dipole Moment: [D]
     X:    -2.5208      Y:     1.1904      Z:     0.0001     Total:     2.7877

*** Psi4 exiting successfully. Buy a developer a beer!
