                               Psi4 1.3.2 release

  ==> Input File <==

--------------------------------------------------------------------------
#psi4
#
memory 32 gb

molecule  {
0 1
  O       -1.6636540     1.3623100    -0.0826750
  O        3.2950020     0.8732560    -0.0394660
  O        2.6676780    -1.2988900     0.0825990
  C       -2.5534714    -0.8823958     0.0349695
  C       -1.4513780     0.1516300    -0.0098980
  C       -3.9526870    -0.2300600    -0.0211700
  C       -0.0712536    -0.4140123     0.0335718
  C        0.9984040     0.4317740    -0.0078830
  C        2.3702780    -0.1170190     0.0219370
  H       -2.4419680    -1.4628000     0.9443570
  H       -2.4189490    -1.5634100    -0.8003330
  H       -4.1001540     0.4487780     0.8215890
  H       -4.7285220    -0.9991160     0.0102380
  H       -4.0749460     0.3516660    -0.9371360
  H        0.0882100    -1.4658090     0.0960520
  H        0.8681440     1.5076730    -0.0687300
  H        4.1643390     0.4215720    -0.0233140
units angstrom
no_reorient  #important for SAPT in psi4, default
symmetry c1  #important for SAPT in psi4, default
}

set PROPERTIES_ORIGIN ["COM"]
properties('MP2/aug-cc-pvtz', properties = ['dipole'])
--------------------------------------------------------------------------

    Molecular point group: c1
  Charge       = 0
  Multiplicity = 1
  Basis Set: AUG-CC-PVTZ
    Blend: AUG-CC-PVTZ
  Basis Set: (AUG-CC-PVTZ AUX)
    Blend: AUG-CC-PVTZ-JKFIT

    Orbital Energies [Eh]
    ---------------------

    Doubly Occupied:

       1A    -20.627557     2A    -20.561658     3A    -20.561330
       4A    -11.405286     5A    -11.350485     6A    -11.279976
       7A    -11.277069     8A    -11.250400     9A    -11.225604
      10A     -1.472223    11A     -1.390542    12A     -1.367511
      13A     -1.106263    14A     -1.062287    15A     -0.957451
      16A     -0.886710    17A     -0.798781    18A     -0.750970
      19A     -0.718250    20A     -0.713450    21A     -0.658978
      22A     -0.645197    23A     -0.641027    24A     -0.639890
      25A     -0.606028    26A     -0.576026    27A     -0.539429
      28A     -0.534694    29A     -0.520953    30A     -0.504309
      31A     -0.497311    32A     -0.471150    33A     -0.435299
      34A     -0.399977

  @DF-RHF Final Energy:  -456.62570630866446

   => Energetics <=

    Nuclear Repulsion Energy =            413.0993783783708864
    One-Electron Energy =               -1442.5820323829002518
    Two-Electron Energy =                 572.8569476958649602
    Total Energy =                       -456.6257063086644621
  Basis Set: (AUG-CC-PVTZ AUX)
    Blend: AUG-CC-PVTZ-RI
    Molecular point group: c1

    Geometry (in Angstrom), charge = 0, multiplicity = 1:

       Center              X                  Y                   Z               Mass
    ------------   -----------------  -----------------  -----------------  -----------------
         O           -1.664423038324     1.366386609018    -0.082900807065    15.994914619570
         O            3.294232961676     0.877332609018    -0.039691807065    15.994914619570
         O            2.666908961676    -1.294813390982     0.082373192935    15.994914619570
         C           -2.554240438324    -0.878319190982     0.034743692935    12.000000000000
         C           -1.452147038324     0.155706609018    -0.010123807065    12.000000000000
         C           -3.953456038324    -0.225983390982    -0.021395807065    12.000000000000
         C           -0.072022638324    -0.409935690982     0.033345992935    12.000000000000
         C            0.997634961676     0.435850609018    -0.008108807065    12.000000000000
         C            2.369508961676    -0.112942390982     0.021711192935    12.000000000000
         H           -2.442737038324    -1.458723390982     0.944131192935     1.007825032230
         H           -2.419718038324    -1.559333390982    -0.800558807065     1.007825032230
         H           -4.100923038324     0.452854609018     0.821363192935     1.007825032230
         H           -4.729291038324    -0.995039390982     0.010012192935     1.007825032230
         H           -4.075715038324     0.355742609018    -0.937361807065     1.007825032230
         H            0.087440961676    -1.461732390982     0.095826192935     1.007825032230
         H            0.867374961676     1.511749609018    -0.068955807065     1.007825032230
         H            4.163569961676     0.425648609018    -0.023539807065     1.007825032230

  Basis Set: AUG-CC-PVTZ
    Blend: AUG-CC-PVTZ
  Basis Set: (AUG-CC-PVTZ AUX)
    Blend: AUG-CC-PVTZ-JKFIT
	 Reference Energy          =    -456.6257063086644621 [Eh]
	 Singles Energy            =      -0.0000000000000000 [Eh]
	 Same-Spin Energy          =      -0.4484186020459368 [Eh]
	 Opposite-Spin Energy      =      -1.4096663444167530 [Eh]
	 Correlation Energy        =      -1.8580849464626898 [Eh]
	 Total Energy              =    -458.4837912551271302 [Eh]

	 ================> DF-SCS-MP2 Energies <==================
	-----------------------------------------------------------
	 SCS Same-Spin Scale       =       0.3333333333333333 [-]
	 SCS Opposite-Spin Scale   =       1.2000000000000000 [-]
	 SCS Same-Spin Energy      =      -0.1494728673486456 [Eh]
	 SCS Opposite-Spin Energy  =      -1.6915996133001034 [Eh]
	 SCS Correlation Energy    =      -1.8410724806487491 [Eh]
	 SCS Total Energy          =    -458.4667787893131958 [Eh]
	-----------------------------------------------------------

  Dipole Moment: [D]
     X:    -0.1294      Y:    -1.1796      Z:     0.0619     Total:     1.1883

*** Psi4 exiting successfully. Buy a developer a beer!
