                               Psi4 1.4a3.dev225

  ==> Input File <==

--------------------------------------------------------------------------
#psi4
#
memory 32 gb

molecule  {
0 1
  O       -1.5457390    -1.4151030    -0.0000120
  O        3.4055420    -0.8324430     0.0000000
  O        2.7346890     1.3362110     0.0000030
  C       -2.4962220     0.7973420     0.0000070
  C       -1.3569730    -0.1975560    -0.0000120
  C       -3.8659970     0.1363490     0.0000100
  C        0.0231420     0.3709680    -0.0000240
  C        1.1002740    -0.4324720     0.0000170
  C        2.4440985     0.1374581     0.0000071
  H       -2.3684100     1.4519690    -0.8733630
  H       -2.3683970     1.4519470     0.8733920
  H       -3.9887950    -0.4970190    -0.8807080
  H       -4.6559460     0.8916380     0.0000190
  H       -3.9887860    -0.4970320     0.8807180
  H        0.1589340     1.4510060    -0.0000590
  H        0.9863010    -1.5124980     0.0000520
  H        4.2687480    -0.3687180    -0.0000090
units angstrom
no_reorient  #important for SAPT in psi4, default
symmetry c1  #important for SAPT in psi4, default
}

set PROPERTIES_ORIGIN ["COM"]
properties('MP2/aug-cc-pvtz', properties = ['dipole'])
--------------------------------------------------------------------------

    Molecular point group: c1
  Charge       = 0
  Multiplicity = 1
  Basis Set: AUG-CC-PVTZ
    Blend: AUG-CC-PVTZ
  Basis Set: (AUG-CC-PVTZ AUX)
    Blend: AUG-CC-PVTZ-JKFIT

    Orbital Energies [Eh]
    ---------------------

    Doubly Occupied:

       1A    -20.625433     2A    -20.562726     3A    -20.560185
       4A    -11.406658     5A    -11.351939     6A    -11.279727
       7A    -11.276310     8A    -11.253805     9A    -11.226040
      10A     -1.464905    11A     -1.391872    12A     -1.358952
      13A     -1.112133    14A     -1.067160    15A     -0.960579
      16A     -0.888794    17A     -0.798803    18A     -0.748555
      19A     -0.719410    20A     -0.708802    21A     -0.660406
      22A     -0.643452    23A     -0.641864    24A     -0.635632
      25A     -0.605818    26A     -0.570543    27A     -0.541117
      28A     -0.540262    29A     -0.525430    30A     -0.500819
      31A     -0.493672    32A     -0.470289    33A     -0.437310
      34A     -0.404933

  @DF-RHF Final Energy:  -456.62556378772410

   => Energetics <=

    Nuclear Repulsion Energy =            413.1778037449549856
    One-Electron Energy =               -1442.7380670841400843
    Two-Electron Energy =                 572.9346995514608807
    Total Energy =                       -456.6255637877241043
  Basis Set: (AUG-CC-PVTZ AUX)
    Blend: AUG-CC-PVTZ-RI
    Molecular point group: c1

    Geometry (in Angstrom), charge = 0, multiplicity = 1:

       Center              X                  Y                   Z               Mass
    ------------   -----------------  -----------------  -----------------  -----------------
         O           -1.636474715829    -1.396033429385    -0.000011684292    15.994914619570
         O            3.314806284171    -0.813373429385     0.000000315708    15.994914619570
         O            2.643953284171     1.355280570615     0.000003315708    15.994914619570
         C           -2.586957715829     0.816411570615     0.000007315708    12.000000000000
         C           -1.447708715829    -0.178486429385    -0.000011684292    12.000000000000
         C           -3.956732715829     0.155418570615     0.000010315708    12.000000000000
         C           -0.067593715829     0.390037570615    -0.000023684292    12.000000000000
         C            1.009538284171    -0.413402429385     0.000017315708    12.000000000000
         C            2.353362784171     0.156527670615     0.000007415708    12.000000000000
         H           -2.459145715829     1.471038570615    -0.873362684292     1.007825032230
         H           -2.459132715829     1.471016570615     0.873392315708     1.007825032230
         H           -4.079530715829    -0.477949429385    -0.880707684292     1.007825032230
         H           -4.746681715829     0.910707570615     0.000019315708     1.007825032230
         H           -4.079521715829    -0.477962429385     0.880718315708     1.007825032230
         H            0.068198284171     1.470075570615    -0.000058684292     1.007825032230
         H            0.895565284171    -1.493428429385     0.000052315708     1.007825032230
         H            4.178012284171    -0.349648429385    -0.000008684292     1.007825032230

  Basis Set: AUG-CC-PVTZ
    Blend: AUG-CC-PVTZ
  Basis Set: (AUG-CC-PVTZ AUX)
    Blend: AUG-CC-PVTZ-JKFIT
	 Reference Energy          =    -456.6255637877241043 [Eh]
	 Singles Energy            =      -0.0000000000000000 [Eh]
	 Same-Spin Energy          =      -0.4488180198887121 [Eh]
	 Opposite-Spin Energy      =      -1.4103051179220212 [Eh]
	 Correlation Energy        =      -1.8591231378107334 [Eh]
	 Total Energy              =    -458.4846869255348452 [Eh]

	 ================> DF-SCS-MP2 Energies <==================
	-----------------------------------------------------------
	 SCS Same-Spin Scale       =       0.3333333333333333 [-]
	 SCS Opposite-Spin Scale   =       1.2000000000000000 [-]
	 SCS Same-Spin Energy      =      -0.1496060066295707 [Eh]
	 SCS Opposite-Spin Energy  =      -1.6923661415064253 [Eh]
	 SCS Correlation Energy    =      -1.8419721481359959 [Eh]
	 SCS Total Energy          =    -458.4675359358600986 [Eh]
	-----------------------------------------------------------

  Dipole Moment: [D]
     X:    -0.3486      Y:     1.1550      Z:     0.0000     Total:     1.2064

*** Psi4 exiting successfully. Buy a developer a beer!
