                               Psi4 1.3.2 release

  ==> Input File <==

--------------------------------------------------------------------------
#psi4
#
memory 32 gb

molecule  {
0 1
  O       -1.6636540     1.3623100    -0.0826750
  O        3.2950020     0.8732560    -0.0394660
  O        2.6676780    -1.2988900     0.0825990
  C       -2.5713650    -0.8630400     0.0337620
  C       -1.4513780     0.1516300    -0.0098980
  C       -3.9526870    -0.2300600    -0.0211700
  C       -0.0615660    -0.3898680     0.0323710
  C        0.9984040     0.4317740    -0.0078830
  C        2.3502615    -0.1644847     0.0246454
  H       -2.4419680    -1.4628000     0.9443570
  H       -2.4189490    -1.5634100    -0.8003330
  H       -4.1001540     0.4487780     0.8215890
  H       -4.7285220    -0.9991160     0.0102380
  H       -4.0749460     0.3516660    -0.9371360
  H        0.0882100    -1.4658090     0.0960520
  H        0.8306150     1.5024808    -0.0684008
  H        4.1643390     0.4215720    -0.0233140
units angstrom
no_reorient  #important for SAPT in psi4, default
symmetry c1  #important for SAPT in psi4, default
}

set PROPERTIES_ORIGIN ["COM"]
properties('MP2/aug-cc-pvtz', properties = ['dipole'])
--------------------------------------------------------------------------

    Molecular point group: c1
  Charge       = 0
  Multiplicity = 1
  Basis Set: AUG-CC-PVTZ
    Blend: AUG-CC-PVTZ
  Basis Set: (AUG-CC-PVTZ AUX)
    Blend: AUG-CC-PVTZ-JKFIT

    Orbital Energies [Eh]
    ---------------------

    Doubly Occupied:

       1A    -20.613141     2A    -20.571315     3A    -20.561568
       4A    -11.404016     5A    -11.350592     6A    -11.277157
       7A    -11.275393     8A    -11.253127     9A    -11.225665
      10A     -1.471422    11A     -1.391517    12A     -1.374086
      13A     -1.111316    14A     -1.066477    15A     -0.954728
      16A     -0.883084    17A     -0.790534    18A     -0.750448
      19A     -0.717064    20A     -0.712671    21A     -0.661591
      22A     -0.643374    23A     -0.639146    24A     -0.636087
      25A     -0.610373    26A     -0.574133    27A     -0.540513
      28A     -0.540010    29A     -0.525037    30A     -0.506069
      31A     -0.498961    32A     -0.475367    33A     -0.435882
      34A     -0.406724

  @DF-RHF Final Energy:  -456.62618262553343

   => Energetics <=

    Nuclear Repulsion Energy =            413.6896295169116797
    One-Electron Energy =               -1443.7344507603836519
    Two-Electron Energy =                 573.4186386179384272
    Total Energy =                       -456.6261826255334881
  Basis Set: (AUG-CC-PVTZ AUX)
    Blend: AUG-CC-PVTZ-RI
    Molecular point group: c1

    Geometry (in Angstrom), charge = 0, multiplicity = 1:

       Center              X                  Y                   Z               Mass
    ------------   -----------------  -----------------  -----------------  -----------------
         O           -1.661482776905     1.366799112920    -0.082931522079    15.994914619570
         O            3.297173223095     0.877745112920    -0.039722522079    15.994914619570
         O            2.669849223095    -1.294400887080     0.082342477921    15.994914619570
         C           -2.569193776905    -0.858550887080     0.033505477921    12.000000000000
         C           -1.449206776905     0.156119112920    -0.010154522079    12.000000000000
         C           -3.950515776905    -0.225570887080    -0.021426522079    12.000000000000
         C           -0.059394776905    -0.385378887080     0.032114477921    12.000000000000
         C            1.000575223095     0.436263112920    -0.008139522079    12.000000000000
         C            2.352432723095    -0.159995587080     0.024388877921    12.000000000000
         H           -2.439796776905    -1.458310887080     0.944100477921     1.007825032230
         H           -2.416777776905    -1.558920887080    -0.800589522079     1.007825032230
         H           -4.097982776905     0.453267112920     0.821332477921     1.007825032230
         H           -4.726350776905    -0.994626887080     0.009981477921     1.007825032230
         H           -4.072774776905     0.356155112920    -0.937392522079     1.007825032230
         H            0.090381223095    -1.461319887080     0.095795477921     1.007825032230
         H            0.832786223095     1.506969912920    -0.068657322079     1.007825032230
         H            4.166510223095     0.426061112920    -0.023570522079     1.007825032230

  Basis Set: AUG-CC-PVTZ
    Blend: AUG-CC-PVTZ
  Basis Set: (AUG-CC-PVTZ AUX)
    Blend: AUG-CC-PVTZ-JKFIT
	 Reference Energy          =    -456.6261826255334313 [Eh]
	 Singles Energy            =      -0.0000000000000000 [Eh]
	 Same-Spin Energy          =      -0.4479280759785778 [Eh]
	 Opposite-Spin Energy      =      -1.4085441472423261 [Eh]
	 Correlation Energy        =      -1.8564722232209039 [Eh]
	 Total Energy              =    -458.4826548487543505 [Eh]

	 ================> DF-SCS-MP2 Energies <==================
	-----------------------------------------------------------
	 SCS Same-Spin Scale       =       0.3333333333333333 [-]
	 SCS Opposite-Spin Scale   =       1.2000000000000000 [-]
	 SCS Same-Spin Energy      =      -0.1493093586595259 [Eh]
	 SCS Opposite-Spin Energy  =      -1.6902529766907912 [Eh]
	 SCS Correlation Energy    =      -1.8395623353503172 [Eh]
	 SCS Total Energy          =    -458.4657449608837396 [Eh]
	-----------------------------------------------------------

  Dipole Moment: [D]
     X:    -0.4281      Y:    -1.5628      Z:     0.0836     Total:     1.6225

*** Psi4 exiting successfully. Buy a developer a beer!
