                               Psi4 1.3.2 release

  ==> Input File <==

--------------------------------------------------------------------------
#psi4
#
memory 32 gb

molecule  {
0 1
  O       -1.6636540     1.3623100    -0.0826750
  O        3.2950020     0.8732560    -0.0394660
  O        2.6676780    -1.2988900     0.0825990
  C       -2.5713650    -0.8630400     0.0337620
  C       -1.4513780     0.1516300    -0.0098980
  C       -3.9526870    -0.2300600    -0.0211700
  C       -0.0615660    -0.3898680     0.0323710
  C        0.9984040     0.4317740    -0.0078830
  C        2.3459054    -0.0201621     0.0169656
  H       -2.4419680    -1.4628000     0.9443570
  H       -2.4189490    -1.5634100    -0.8003330
  H       -4.1001540     0.4487780     0.8215890
  H       -4.7285220    -0.9991160     0.0102380
  H       -4.0749460     0.3516660    -0.9371360
  H        0.0882100    -1.4658090     0.0960520
  H        0.8681440     1.5076730    -0.0687300
  H        4.1643390     0.4215720    -0.0233140
units angstrom
no_reorient  #important for SAPT in psi4, default
symmetry c1  #important for SAPT in psi4, default
}

set PROPERTIES_ORIGIN ["COM"]
properties('MP2/aug-cc-pvtz', properties = ['dipole'])
--------------------------------------------------------------------------

    Molecular point group: c1
  Charge       = 0
  Multiplicity = 1
  Basis Set: AUG-CC-PVTZ
    Blend: AUG-CC-PVTZ
  Basis Set: (AUG-CC-PVTZ AUX)
    Blend: AUG-CC-PVTZ-JKFIT

    Orbital Energies [Eh]
    ---------------------

    Doubly Occupied:

       1A    -20.641215     2A    -20.565508     3A    -20.540536
       4A    -11.408427     5A    -11.353977     6A    -11.285471
       7A    -11.274900     8A    -11.255148     9A    -11.227174
      10A     -1.486295    11A     -1.394894    12A     -1.309282
      13A     -1.117062    14A     -1.069742    15A     -0.972655
      16A     -0.898114    17A     -0.815503    18A     -0.749414
      19A     -0.726282    20A     -0.710727    21A     -0.665373
      22A     -0.648828    23A     -0.645552    24A     -0.642902
      25A     -0.596611    26A     -0.553343    27A     -0.543117
      28A     -0.541563    29A     -0.526676    30A     -0.501601
      31A     -0.472508    32A     -0.455226    33A     -0.439707
      34A     -0.401162

  @DF-RHF Final Energy:  -456.60572305223724

   => Energetics <=

    Nuclear Repulsion Energy =            413.3650954539611462
    One-Electron Energy =               -1443.0686499255205035
    Two-Electron Energy =                 573.0978314193221195
    Total Energy =                       -456.6057230522371810
  Basis Set: (AUG-CC-PVTZ AUX)
    Blend: AUG-CC-PVTZ-RI
    Molecular point group: c1

    Geometry (in Angstrom), charge = 0, multiplicity = 1:

       Center              X                  Y                   Z               Mass
    ------------   -----------------  -----------------  -----------------  -----------------
         O           -1.661369923847     1.353233005469    -0.082209215993    15.994914619570
         O            3.297286076153     0.864179005469    -0.039000215993    15.994914619570
         O            2.669962076153    -1.307966994531     0.083064784007    15.994914619570
         C           -2.569080923847    -0.872116994531     0.034227784007    12.000000000000
         C           -1.449093923847     0.142553005469    -0.009432215993    12.000000000000
         C           -3.950402923847    -0.239136994531    -0.020704215993    12.000000000000
         C           -0.059281923847    -0.398944994531     0.032836784007    12.000000000000
         C            1.000688076153     0.422697005469    -0.007417215993    12.000000000000
         C            2.348189476153    -0.029239094531     0.017431384007    12.000000000000
         H           -2.439683923847    -1.471876994531     0.944822784007     1.007825032230
         H           -2.416664923847    -1.572486994531    -0.799867215993     1.007825032230
         H           -4.097869923847     0.439701005469     0.822054784007     1.007825032230
         H           -4.726237923847    -1.008192994531     0.010703784007     1.007825032230
         H           -4.072661923847     0.342589005469    -0.936670215993     1.007825032230
         H            0.090494076153    -1.474885994531     0.096517784007     1.007825032230
         H            0.870428076153     1.498596005469    -0.068264215993     1.007825032230
         H            4.166623076153     0.412495005469    -0.022848215993     1.007825032230

  Basis Set: AUG-CC-PVTZ
    Blend: AUG-CC-PVTZ
  Basis Set: (AUG-CC-PVTZ AUX)
    Blend: AUG-CC-PVTZ-JKFIT
	 Reference Energy          =    -456.6057230522372379 [Eh]
	 Singles Energy            =      -0.0000000000000000 [Eh]
	 Same-Spin Energy          =      -0.4505265667790427 [Eh]
	 Opposite-Spin Energy      =      -1.4131908265291409 [Eh]
	 Correlation Energy        =      -1.8637173933081836 [Eh]
	 Total Energy              =    -458.4694404455454446 [Eh]

	 ================> DF-SCS-MP2 Energies <==================
	-----------------------------------------------------------
	 SCS Same-Spin Scale       =       0.3333333333333333 [-]
	 SCS Opposite-Spin Scale   =       1.2000000000000000 [-]
	 SCS Same-Spin Energy      =      -0.1501755222596809 [Eh]
	 SCS Opposite-Spin Energy  =      -1.6958289918349689 [Eh]
	 SCS Correlation Energy    =      -1.8460045140946497 [Eh]
	 SCS Total Energy          =    -458.4517275663318969 [Eh]
	-----------------------------------------------------------

  Dipole Moment: [D]
     X:    -0.2695      Y:    -0.5960      Z:     0.0276     Total:     0.6547

*** Psi4 exiting successfully. Buy a developer a beer!
