                               Psi4 1.4a3.dev225

  ==> Input File <==

--------------------------------------------------------------------------
#psi4
#
memory 32 gb

molecule  {
0 1
  O       -1.5457390    -1.4151030    -0.0000120
  O        3.4055420    -0.8324430     0.0000000
  O        2.7346890     1.3362110     0.0000030
  C       -2.4962220     0.7973420     0.0000070
  C       -1.3600372    -0.2173199    -0.0000120
  C       -3.8659970     0.1363490     0.0000100
  C        0.0231420     0.3709680    -0.0000240
  C        1.1002740    -0.4324720     0.0000170
  C        2.4625110     0.1452670     0.0000070
  H       -2.3684100     1.4519690    -0.8733630
  H       -2.3683970     1.4519470     0.8733920
  H       -3.9887950    -0.4970190    -0.8807080
  H       -4.6559460     0.8916380     0.0000190
  H       -3.9887860    -0.4970320     0.8807180
  H        0.1589340     1.4510060    -0.0000590
  H        0.9863010    -1.5124980     0.0000520
  H        4.2687480    -0.3687180    -0.0000090
units angstrom
no_reorient  #important for SAPT in psi4, default
symmetry c1  #important for SAPT in psi4, default
}

set PROPERTIES_ORIGIN ["COM"]
properties('MP2/aug-cc-pvtz', properties = ['dipole'])
--------------------------------------------------------------------------

    Molecular point group: c1
  Charge       = 0
  Multiplicity = 1
  Basis Set: AUG-CC-PVTZ
    Blend: AUG-CC-PVTZ
  Basis Set: (AUG-CC-PVTZ AUX)
    Blend: AUG-CC-PVTZ-JKFIT

    Orbital Energies [Eh]
    ---------------------

    Doubly Occupied:

       1A    -20.627345     2A    -20.562624     3A    -20.561209
       4A    -11.405621     5A    -11.349317     6A    -11.276288
       7A    -11.274418     8A    -11.251859     9A    -11.224743
      10A     -1.470433    11A     -1.403941    12A     -1.366684
      13A     -1.106763    14A     -1.063571    15A     -0.954280
      16A     -0.885625    17A     -0.797111    18A     -0.746919
      19A     -0.719096    20A     -0.712021    21A     -0.661677
      22A     -0.643624    23A     -0.643088    24A     -0.638179
      25A     -0.606716    26A     -0.571124    27A     -0.544436
      28A     -0.539460    29A     -0.524921    30A     -0.501495
      31A     -0.497192    32A     -0.470755    33A     -0.432565
      34A     -0.404073

  @DF-RHF Final Energy:  -456.62959867258746

   => Energetics <=

    Nuclear Repulsion Energy =            413.2743123949044843
    One-Electron Energy =               -1442.9294739491153905
    Two-Electron Energy =                 573.0255628816235003
    Total Energy =                       -456.6295986725874627
  Basis Set: (AUG-CC-PVTZ AUX)
    Blend: AUG-CC-PVTZ-RI
    Molecular point group: c1

    Geometry (in Angstrom), charge = 0, multiplicity = 1:

       Center              X                  Y                   Z               Mass
    ------------   -----------------  -----------------  -----------------  -----------------
         O           -1.637913086935    -1.394913062532    -0.000011674920    15.994914619570
         O            3.313367913065    -0.812253062532     0.000000325080    15.994914619570
         O            2.642514913065     1.356400937468     0.000003325080    15.994914619570
         C           -2.588396086935     0.817531937468     0.000007325080    12.000000000000
         C           -1.452211286935    -0.197129962532    -0.000011674920    12.000000000000
         C           -3.958171086935     0.156538937468     0.000010325080    12.000000000000
         C           -0.069032086935     0.391157937468    -0.000023674920    12.000000000000
         C            1.008099913065    -0.412282062532     0.000017325080    12.000000000000
         C            2.370336913065     0.165456937468     0.000007325080    12.000000000000
         H           -2.460584086935     1.472158937468    -0.873362674920     1.007825032230
         H           -2.460571086935     1.472136937468     0.873392325080     1.007825032230
         H           -4.080969086935    -0.476829062532    -0.880707674920     1.007825032230
         H           -4.748120086935     0.911827937468     0.000019325080     1.007825032230
         H           -4.080960086935    -0.476842062532     0.880718325080     1.007825032230
         H            0.066759913065     1.471195937468    -0.000058674920     1.007825032230
         H            0.894126913065    -1.492308062532     0.000052325080     1.007825032230
         H            4.176573913065    -0.348528062532    -0.000008674920     1.007825032230

  Basis Set: AUG-CC-PVTZ
    Blend: AUG-CC-PVTZ
  Basis Set: (AUG-CC-PVTZ AUX)
    Blend: AUG-CC-PVTZ-JKFIT
	 Reference Energy          =    -456.6295986725874627 [Eh]
	 Singles Energy            =      -0.0000000000000000 [Eh]
	 Same-Spin Energy          =      -0.4477280209241956 [Eh]
	 Opposite-Spin Energy      =      -1.4080698777860752 [Eh]
	 Correlation Energy        =      -1.8557978987102708 [Eh]
	 Total Energy              =    -458.4853965712977129 [Eh]

	 ================> DF-SCS-MP2 Energies <==================
	-----------------------------------------------------------
	 SCS Same-Spin Scale       =       0.3333333333333333 [-]
	 SCS Opposite-Spin Scale   =       1.2000000000000000 [-]
	 SCS Same-Spin Energy      =      -0.1492426736413985 [Eh]
	 SCS Opposite-Spin Energy  =      -1.6896838533432901 [Eh]
	 SCS Correlation Energy    =      -1.8389265269846886 [Eh]
	 SCS Total Energy          =    -458.4685251995721273 [Eh]
	-----------------------------------------------------------

  Dipole Moment: [D]
     X:    -0.2051      Y:     1.1067      Z:     0.0000     Total:     1.1255

*** Psi4 exiting successfully. Buy a developer a beer!
