                               Psi4 1.3.2 release

  ==> Input File <==

--------------------------------------------------------------------------
#psi4
#
memory 32 gb

molecule  {
0 1
  O       -1.6636540     1.3623100    -0.0826750
  O        3.2775466     0.8892297    -0.0401648
  O        2.6469799    -1.3038832     0.0830531
  C       -2.5713650    -0.8630400     0.0337620
  C       -1.4513780     0.1516300    -0.0098980
  C       -3.9526870    -0.2300600    -0.0211700
  C       -0.0615660    -0.3898680     0.0323710
  C        0.9984040     0.4317740    -0.0078830
  C        2.3702780    -0.1170190     0.0219370
  H       -2.4419680    -1.4628000     0.9443570
  H       -2.4189490    -1.5634100    -0.8003330
  H       -4.1001540     0.4487780     0.8215890
  H       -4.7285220    -0.9991160     0.0102380
  H       -4.0749460     0.3516660    -0.9371360
  H        0.0882100    -1.4658090     0.0960520
  H        0.8681440     1.5076730    -0.0687300
  H        4.1643390     0.4215720    -0.0233140
units angstrom
no_reorient  #important for SAPT in psi4, default
symmetry c1  #important for SAPT in psi4, default
}

set PROPERTIES_ORIGIN ["COM"]
properties('MP2/aug-cc-pvtz', properties = ['dipole'])
--------------------------------------------------------------------------

    Molecular point group: c1
  Charge       = 0
  Multiplicity = 1
  Basis Set: AUG-CC-PVTZ
    Blend: AUG-CC-PVTZ
  Basis Set: (AUG-CC-PVTZ AUX)
    Blend: AUG-CC-PVTZ-JKFIT

    Orbital Energies [Eh]
    ---------------------

    Doubly Occupied:

       1A    -20.632481     2A    -20.562811     3A    -20.559616
       4A    -11.405716     5A    -11.348931     6A    -11.275043
       7A    -11.273314     8A    -11.251777     9A    -11.224628
      10A     -1.470411    11A     -1.389609    12A     -1.369220
      13A     -1.107419    14A     -1.064818    15A     -0.955541
      16A     -0.885706    17A     -0.795712    18A     -0.746028
      19A     -0.716773    20A     -0.713722    21A     -0.660991
      22A     -0.644098    23A     -0.639335    24A     -0.639124
      25A     -0.606162    26A     -0.569573    27A     -0.539267
      28A     -0.538654    29A     -0.523775    30A     -0.501596
      31A     -0.496370    32A     -0.471638    33A     -0.434276
      34A     -0.402882

  @DF-RHF Final Energy:  -456.62569753945843

   => Energetics <=

    Nuclear Repulsion Energy =            413.5859931004947612
    One-Electron Energy =               -1443.5893493484747978
    Two-Electron Energy =                 573.3776587085216079
    Total Energy =                       -456.6256975394584288
  Basis Set: (AUG-CC-PVTZ AUX)
    Blend: AUG-CC-PVTZ-RI
    Molecular point group: c1

    Geometry (in Angstrom), charge = 0, multiplicity = 1:

       Center              X                  Y                   Z               Mass
    ------------   -----------------  -----------------  -----------------  -----------------
         O           -1.658888101384     1.360938363568    -0.082644545947    15.994914619570
         O            3.282312498616     0.887858063568    -0.040134345947    15.994914619570
         O            2.651745798616    -1.305254836432     0.083083554053    15.994914619570
         C           -2.566599101384    -0.864411636432     0.033792454053    12.000000000000
         C           -1.446612101384     0.150258363568    -0.009867545947    12.000000000000
         C           -3.947921101384    -0.231431636432    -0.021139545947    12.000000000000
         C           -0.056800101384    -0.391239636432     0.032401454053    12.000000000000
         C            1.003169898616     0.430402363568    -0.007852545947    12.000000000000
         C            2.375043898616    -0.118390636432     0.021967454053    12.000000000000
         H           -2.437202101384    -1.464171636432     0.944387454053     1.007825032230
         H           -2.414183101384    -1.564781636432    -0.800302545947     1.007825032230
         H           -4.095388101384     0.447406363568     0.821619454053     1.007825032230
         H           -4.723756101384    -1.000487636432     0.010268454053     1.007825032230
         H           -4.070180101384     0.350294363568    -0.937105545947     1.007825032230
         H            0.092975898616    -1.467180636432     0.096082454053     1.007825032230
         H            0.872909898616     1.506301363568    -0.068699545947     1.007825032230
         H            4.169104898616     0.420200363568    -0.023283545947     1.007825032230

  Basis Set: AUG-CC-PVTZ
    Blend: AUG-CC-PVTZ
  Basis Set: (AUG-CC-PVTZ AUX)
    Blend: AUG-CC-PVTZ-JKFIT
	 Reference Energy          =    -456.6256975394584288 [Eh]
	 Singles Energy            =      -0.0000000000000000 [Eh]
	 Same-Spin Energy          =      -0.4487734185421779 [Eh]
	 Opposite-Spin Energy      =      -1.4101533008426701 [Eh]
	 Correlation Energy        =      -1.8589267193848480 [Eh]
	 Total Energy              =    -458.4846242588432688 [Eh]

	 ================> DF-SCS-MP2 Energies <==================
	-----------------------------------------------------------
	 SCS Same-Spin Scale       =       0.3333333333333333 [-]
	 SCS Opposite-Spin Scale   =       1.2000000000000000 [-]
	 SCS Same-Spin Energy      =      -0.1495911395140593 [Eh]
	 SCS Opposite-Spin Energy  =      -1.6921839610112042 [Eh]
	 SCS Correlation Energy    =      -1.8417751005252634 [Eh]
	 SCS Total Energy          =    -458.4674726399836686 [Eh]
	-----------------------------------------------------------

  Dipole Moment: [D]
     X:    -0.0365      Y:    -1.1859      Z:     0.0613     Total:     1.1880

*** Psi4 exiting successfully. Buy a developer a beer!
