                               Psi4 1.3.2 release

  ==> Input File <==

--------------------------------------------------------------------------
#psi4
#
memory 32 gb

molecule  {
0 1
  O       -1.6636540     1.3623100    -0.0826750
  O        3.3290650     0.8404334    -0.0375753
  O        2.6676780    -1.2988900     0.0825990
  C       -2.5713650    -0.8630400     0.0337620
  C       -1.4513780     0.1516300    -0.0098980
  C       -3.9526870    -0.2300600    -0.0211700
  C       -0.0615660    -0.3898680     0.0323710
  C        0.9800592     0.3836501    -0.0049584
  C        2.3702780    -0.1170190     0.0219370
  H       -2.4419680    -1.4628000     0.9443570
  H       -2.4189490    -1.5634100    -0.8003330
  H       -4.1001540     0.4487780     0.8215890
  H       -4.7285220    -0.9991160     0.0102380
  H       -4.0749460     0.3516660    -0.9371360
  H        0.0882100    -1.4658090     0.0960520
  H        0.8681440     1.5076730    -0.0687300
  H        4.1643390     0.4215720    -0.0233140
units angstrom
no_reorient  #important for SAPT in psi4, default
symmetry c1  #important for SAPT in psi4, default
}

set PROPERTIES_ORIGIN ["COM"]
properties('MP2/aug-cc-pvtz', properties = ['dipole'])
--------------------------------------------------------------------------

    Molecular point group: c1
  Charge       = 0
  Multiplicity = 1
  Basis Set: AUG-CC-PVTZ
    Blend: AUG-CC-PVTZ
  Basis Set: (AUG-CC-PVTZ AUX)
    Blend: AUG-CC-PVTZ-JKFIT

    Orbital Energies [Eh]
    ---------------------

    Doubly Occupied:

       1A    -20.622955     2A    -20.561611     3A    -20.559163
       4A    -11.405784     5A    -11.351025     6A    -11.275257
       7A    -11.269770     8A    -11.253089     9A    -11.225565
      10A     -1.477706    11A     -1.391408    12A     -1.368503
      13A     -1.118104    14A     -1.066966    15A     -0.958282
      16A     -0.894007    17A     -0.806688    18A     -0.742349
      19A     -0.723859    20A     -0.712283    21A     -0.668562
      22A     -0.644649    23A     -0.640729    24A     -0.639559
      25A     -0.609358    26A     -0.557948    27A     -0.541499
      28A     -0.540451    29A     -0.524836    30A     -0.501754
      31A     -0.495733    32A     -0.468455    33A     -0.436450
      34A     -0.413607

  @DF-RHF Final Energy:  -456.62689780757967

   => Energetics <=

    Nuclear Repulsion Energy =            414.0333516446534645
    One-Electron Energy =               -1444.3845713747114132
    Two-Electron Energy =                 573.7243219224782251
    Total Energy =                       -456.6268978075796667
  Basis Set: (AUG-CC-PVTZ AUX)
    Blend: AUG-CC-PVTZ-RI
    Molecular point group: c1

    Geometry (in Angstrom), charge = 0, multiplicity = 1:

       Center              X                  Y                   Z               Mass
    ------------   -----------------  -----------------  -----------------  -----------------
         O           -1.666189769045     1.370919934473    -0.083185367321    15.994914619570
         O            3.326529230955     0.849043334473    -0.038085667321    15.994914619570
         O            2.665142230955    -1.290280065527     0.082088632679    15.994914619570
         C           -2.573900769045    -0.854430065527     0.033251632679    12.000000000000
         C           -1.453913769045     0.160239934473    -0.010408367321    12.000000000000
         C           -3.955222769045    -0.221450065527    -0.021680367321    12.000000000000
         C           -0.064101769045    -0.381258065527     0.031860632679    12.000000000000
         C            0.977523430955     0.392260034473    -0.005468767321    12.000000000000
         C            2.367742230955    -0.108409065527     0.021426632679    12.000000000000
         H           -2.444503769045    -1.454190065527     0.943846632679     1.007825032230
         H           -2.421484769045    -1.554800065527    -0.800843367321     1.007825032230
         H           -4.102689769045     0.457387934473     0.821078632679     1.007825032230
         H           -4.731057769045    -0.990506065527     0.009727632679     1.007825032230
         H           -4.077481769045     0.360275934473    -0.937646367321     1.007825032230
         H            0.085674230955    -1.457199065527     0.095541632679     1.007825032230
         H            0.865608230955     1.516282934473    -0.069240367321     1.007825032230
         H            4.161803230955     0.430181934473    -0.023824367321     1.007825032230

  Basis Set: AUG-CC-PVTZ
    Blend: AUG-CC-PVTZ
  Basis Set: (AUG-CC-PVTZ AUX)
    Blend: AUG-CC-PVTZ-JKFIT
	 Reference Energy          =    -456.6268978075796667 [Eh]
	 Singles Energy            =      -0.0000000000000000 [Eh]
	 Same-Spin Energy          =      -0.4471044299508555 [Eh]
	 Opposite-Spin Energy      =      -1.4064798610905431 [Eh]
	 Correlation Energy        =      -1.8535842910413987 [Eh]
	 Total Energy              =    -458.4804820986210530 [Eh]

	 ================> DF-SCS-MP2 Energies <==================
	-----------------------------------------------------------
	 SCS Same-Spin Scale       =       0.3333333333333333 [-]
	 SCS Opposite-Spin Scale   =       1.2000000000000000 [-]
	 SCS Same-Spin Energy      =      -0.1490348099836185 [Eh]
	 SCS Opposite-Spin Energy  =      -1.6877758333086517 [Eh]
	 SCS Correlation Energy    =      -1.8368106432922702 [Eh]
	 SCS Total Energy          =    -458.4637084508719340 [Eh]
	-----------------------------------------------------------

  Dipole Moment: [D]
     X:    -0.2718      Y:    -1.1769      Z:     0.0608     Total:     1.2094

*** Psi4 exiting successfully. Buy a developer a beer!
