                               Psi4 1.3.2 release

  ==> Input File <==

--------------------------------------------------------------------------
#psi4
#
memory 32 gb

molecule  {
0 1
  O       -1.6636540     1.3623100    -0.0826750
  O        3.2950020     0.8732560    -0.0394660
  O        2.6676780    -1.2988900     0.0825990
  C       -2.5713650    -0.8630400     0.0337620
  C       -1.4513780     0.1516300    -0.0098980
  C       -3.9526870    -0.2300600    -0.0211700
  C       -0.0615660    -0.3898680     0.0323710
  C        0.9984040     0.4317740    -0.0078830
  C        2.2774502    -0.0798850     0.0199192
  H       -2.4419680    -1.4628000     0.9443570
  H       -2.4189490    -1.5634100    -0.8003330
  H       -4.1001540     0.4487780     0.8215890
  H       -4.7285220    -0.9991160     0.0102380
  H       -4.0749460     0.3516660    -0.9371360
  H        0.0882100    -1.4658090     0.0960520
  H        0.8681440     1.5076730    -0.0687300
  H        4.1643390     0.4215720    -0.0233140
units angstrom
no_reorient  #important for SAPT in psi4, default
symmetry c1  #important for SAPT in psi4, default
}

set PROPERTIES_ORIGIN ["COM"]
properties('MP2/aug-cc-pvtz', properties = ['dipole'])
--------------------------------------------------------------------------

    Molecular point group: c1
  Charge       = 0
  Multiplicity = 1
  Basis Set: AUG-CC-PVTZ
    Blend: AUG-CC-PVTZ
  Basis Set: (AUG-CC-PVTZ AUX)
    Blend: AUG-CC-PVTZ-JKFIT

    Orbital Energies [Eh]
    ---------------------

    Doubly Occupied:

       1A    -20.614527     2A    -20.570823     3A    -20.552133
       4A    -11.406338     5A    -11.358145     6A    -11.293101
       7A    -11.274627     8A    -11.258498     9A    -11.229734
      10A     -1.440715    11A     -1.399634    12A     -1.325718
      13A     -1.130316    14A     -1.074385    15A     -0.976913
      16A     -0.894760    17A     -0.797694    18A     -0.756166
      19A     -0.725047    20A     -0.693969    21A     -0.661652
      22A     -0.647851    23A     -0.647113    24A     -0.620740
      25A     -0.601764    26A     -0.570005    27A     -0.546129
      28A     -0.544875    29A     -0.529762    30A     -0.504765
      31A     -0.481744    32A     -0.461321    33A     -0.444533
      34A     -0.408399

  @DF-RHF Final Energy:  -456.60482746309776

   => Energetics <=

    Nuclear Repulsion Energy =            413.6087475057254323
    One-Electron Energy =               -1443.5393589339500977
    Two-Electron Energy =                 573.3257839651269023
    Total Energy =                       -456.6048274630977630
  Basis Set: (AUG-CC-PVTZ AUX)
    Blend: AUG-CC-PVTZ-RI
    Molecular point group: c1

    Geometry (in Angstrom), charge = 0, multiplicity = 1:

       Center              X                  Y                   Z               Mass
    ------------   -----------------  -----------------  -----------------  -----------------
         O           -1.654954621713     1.358829957166    -0.082486013612    15.994914619570
         O            3.303701378287     0.869775957166    -0.039277013612    15.994914619570
         O            2.676377378287    -1.302370042834     0.082787986388    15.994914619570
         C           -2.562665621713    -0.866520042834     0.033950986388    12.000000000000
         C           -1.442678621713     0.148149957166    -0.009709013612    12.000000000000
         C           -3.943987621713    -0.233540042834    -0.020981013612    12.000000000000
         C           -0.052866621713    -0.393348042834     0.032559986388    12.000000000000
         C            1.007103378287     0.428293957166    -0.007694013612    12.000000000000
         C            2.286149578287    -0.083365042834     0.020108186388    12.000000000000
         H           -2.433268621713    -1.466280042834     0.944545986388     1.007825032230
         H           -2.410249621713    -1.566890042834    -0.800144013612     1.007825032230
         H           -4.091454621713     0.445297957166     0.821777986388     1.007825032230
         H           -4.719822621713    -1.002596042834     0.010426986388     1.007825032230
         H           -4.066246621713     0.348185957166    -0.936947013612     1.007825032230
         H            0.096909378287    -1.469289042834     0.096240986388     1.007825032230
         H            0.876843378287     1.504192957166    -0.068541013612     1.007825032230
         H            4.173038378287     0.418091957166    -0.023125013612     1.007825032230

  Basis Set: AUG-CC-PVTZ
    Blend: AUG-CC-PVTZ
  Basis Set: (AUG-CC-PVTZ AUX)
    Blend: AUG-CC-PVTZ-JKFIT
	 Reference Energy          =    -456.6048274630977630 [Eh]
	 Singles Energy            =      -0.0000000000000000 [Eh]
	 Same-Spin Energy          =      -0.4509906145528577 [Eh]
	 Opposite-Spin Energy      =      -1.4144779740820081 [Eh]
	 Correlation Energy        =      -1.8654685886348659 [Eh]
	 Total Energy              =    -458.4702960517326460 [Eh]

	 ================> DF-SCS-MP2 Energies <==================
	-----------------------------------------------------------
	 SCS Same-Spin Scale       =       0.3333333333333333 [-]
	 SCS Opposite-Spin Scale   =       1.2000000000000000 [-]
	 SCS Same-Spin Energy      =      -0.1503302048509526 [Eh]
	 SCS Opposite-Spin Energy  =      -1.6973735688984097 [Eh]
	 SCS Correlation Energy    =      -1.8477037737493622 [Eh]
	 SCS Total Energy          =    -458.4525312368471077 [Eh]
	-----------------------------------------------------------

  Dipole Moment: [D]
     X:    -0.9876      Y:    -1.1043      Z:     0.0563     Total:     1.4826

*** Psi4 exiting successfully. Buy a developer a beer!
