                               Psi4 1.3.2 release

  ==> Input File <==

--------------------------------------------------------------------------
#psi4
#
memory 32 gb

molecule  {
0 1
  O       -1.6636540     1.3623100    -0.0826750
  O        3.2950020     0.8732560    -0.0394660
  O        2.7292061    -1.2817215     0.0818060
  C       -2.5713650    -0.8630400     0.0337620
  C       -1.4513780     0.1516300    -0.0098980
  C       -3.9526870    -0.2300600    -0.0211700
  C       -0.0615660    -0.3898680     0.0323710
  C        1.0290479     0.5027291    -0.0114600
  C        2.3702780    -0.1170190     0.0219370
  H       -2.4419680    -1.4628000     0.9443570
  H       -2.4189490    -1.5634100    -0.8003330
  H       -4.1001540     0.4487780     0.8215890
  H       -4.7285220    -0.9991160     0.0102380
  H       -4.0749460     0.3516660    -0.9371360
  H        0.0882100    -1.4658090     0.0960520
  H        0.8681440     1.5076730    -0.0687300
  H        4.1643390     0.4215720    -0.0233140
units angstrom
no_reorient  #important for SAPT in psi4, default
symmetry c1  #important for SAPT in psi4, default
}

set PROPERTIES_ORIGIN ["COM"]
properties('MP2/aug-cc-pvtz', properties = ['dipole'])
--------------------------------------------------------------------------

    Molecular point group: c1
  Charge       = 0
  Multiplicity = 1
  Basis Set: AUG-CC-PVTZ
    Blend: AUG-CC-PVTZ
  Basis Set: (AUG-CC-PVTZ AUX)
    Blend: AUG-CC-PVTZ-JKFIT

    Orbital Energies [Eh]
    ---------------------

    Doubly Occupied:

       1A    -20.619300     2A    -20.562815     3A    -20.560625
       4A    -11.405285     5A    -11.351686     6A    -11.290560
       7A    -11.283956     8A    -11.253940     9A    -11.226321
      10A     -1.471071    11A     -1.392598    12A     -1.361606
      13A     -1.102260    14A     -1.066177    15A     -0.961465
      16A     -0.884744    17A     -0.800584    18A     -0.757529
      19A     -0.717374    20A     -0.710463    21A     -0.658247
      22A     -0.643943    23A     -0.641389    24A     -0.637633
      25A     -0.601297    26A     -0.587280    27A     -0.540582
      28A     -0.539242    29A     -0.525687    30A     -0.500403
      31A     -0.493458    32A     -0.471848    33A     -0.436958
      34A     -0.394535

  @DF-RHF Final Energy:  -456.61489198348903

   => Energetics <=

    Nuclear Repulsion Energy =            412.4061296607691247
    One-Electron Energy =               -1441.1363207529695956
    Two-Electron Energy =                 572.1152991087116106
    Total Energy =                       -456.6148919834889739
  Basis Set: (AUG-CC-PVTZ AUX)
    Blend: AUG-CC-PVTZ-RI
    Molecular point group: c1

    Geometry (in Angstrom), charge = 0, multiplicity = 1:

       Center              X                  Y                   Z               Mass
    ------------   -----------------  -----------------  -----------------  -----------------
         O           -1.674211538935     1.353515814211    -0.082240835803    15.994914619570
         O            3.284444461065     0.864461814211    -0.039031835803    15.994914619570
         O            2.718648561065    -1.290515685789     0.082240164197    15.994914619570
         C           -2.581922538935    -0.871834185789     0.034196164197    12.000000000000
         C           -1.461935538935     0.142835814211    -0.009463835803    12.000000000000
         C           -3.963244538935    -0.238854185789    -0.020735835803    12.000000000000
         C           -0.072123538935    -0.398662185789     0.032805164197    12.000000000000
         C            1.018490361065     0.493934914211    -0.011025835803    12.000000000000
         C            2.359720461065    -0.125813185789     0.022371164197    12.000000000000
         H           -2.452525538935    -1.471594185789     0.944791164197     1.007825032230
         H           -2.429506538935    -1.572204185789    -0.799898835803     1.007825032230
         H           -4.110711538935     0.439983814211     0.822023164197     1.007825032230
         H           -4.739079538935    -1.007910185789     0.010672164197     1.007825032230
         H           -4.085503538935     0.342871814211    -0.936701835803     1.007825032230
         H            0.077652461065    -1.474603185789     0.096486164197     1.007825032230
         H            0.857586461065     1.498878814211    -0.068295835803     1.007825032230
         H            4.153781461065     0.412777814211    -0.022879835803     1.007825032230

  Basis Set: AUG-CC-PVTZ
    Blend: AUG-CC-PVTZ
  Basis Set: (AUG-CC-PVTZ AUX)
    Blend: AUG-CC-PVTZ-JKFIT
	 Reference Energy          =    -456.6148919834890307 [Eh]
	 Singles Energy            =      -0.0000000000000000 [Eh]
	 Same-Spin Energy          =      -0.4491468295735150 [Eh]
	 Opposite-Spin Energy      =      -1.4111876544207502 [Eh]
	 Correlation Energy        =      -1.8603344839942653 [Eh]
	 Total Energy              =    -458.4752264674833100 [Eh]

	 ================> DF-SCS-MP2 Energies <==================
	-----------------------------------------------------------
	 SCS Same-Spin Scale       =       0.3333333333333333 [-]
	 SCS Opposite-Spin Scale   =       1.2000000000000000 [-]
	 SCS Same-Spin Energy      =      -0.1497156098578383 [Eh]
	 SCS Opposite-Spin Energy  =      -1.6934251853049003 [Eh]
	 SCS Correlation Energy    =      -1.8431407951627385 [Eh]
	 SCS Total Energy          =    -458.4580327786517842 [Eh]
	-----------------------------------------------------------

  Dipole Moment: [D]
     X:    -0.4298      Y:    -1.2000      Z:     0.0621     Total:     1.2761

*** Psi4 exiting successfully. Buy a developer a beer!
