                               Psi4 1.4a3.dev225

  ==> Input File <==

--------------------------------------------------------------------------
#psi4
#
memory 32 gb

molecule  {
0 1
  O       -1.5457390    -1.4151030    -0.0000120
  O        3.4055420    -0.8324430     0.0000000
  O        2.7346890     1.3362110     0.0000030
  C       -2.4962220     0.7973420     0.0000070
  C       -1.3569730    -0.1975560    -0.0000120
  C       -3.8659970     0.1363490     0.0000100
  C        0.0231420     0.3709680    -0.0000240
  C        1.1002740    -0.4324720     0.0000170
  C        2.4625110     0.1452670     0.0000070
  H       -2.3684100     1.4519690    -0.8733630
  H       -2.3683970     1.4519470     0.8733920
  H       -3.9887950    -0.4970190    -0.8807080
  H       -4.6559460     0.8916380     0.0000190
  H       -3.9887860    -0.4970320     0.8807180
  H        0.1589340     1.4510060    -0.0000590
  H        0.9863010    -1.5124980     0.0000520
  H        4.3127945    -0.3450557    -0.0000095
units angstrom
no_reorient  #important for SAPT in psi4, default
symmetry c1  #important for SAPT in psi4, default
}

set PROPERTIES_ORIGIN ["COM"]
properties('MP2/aug-cc-pvtz', properties = ['dipole'])
--------------------------------------------------------------------------

    Molecular point group: c1
  Charge       = 0
  Multiplicity = 1
  Basis Set: AUG-CC-PVTZ
    Blend: AUG-CC-PVTZ
  Basis Set: (AUG-CC-PVTZ AUX)
    Blend: AUG-CC-PVTZ-JKFIT

    Orbital Energies [Eh]
    ---------------------

    Doubly Occupied:

       1A    -20.630788     2A    -20.560992     3A    -20.560554
       4A    -11.405440     5A    -11.350136     6A    -11.276967
       7A    -11.275302     8A    -11.252479     9A    -11.225025
      10A     -1.464386    11A     -1.389911    12A     -1.362753
      13A     -1.107679    14A     -1.065124    15A     -0.954606
      16A     -0.884298    17A     -0.794166    18A     -0.746446
      19A     -0.716534    20A     -0.708340    21A     -0.660421
      22A     -0.642770    23A     -0.639428    24A     -0.637462
      25A     -0.602535    26A     -0.569304    27A     -0.539683
      28A     -0.538967    29A     -0.524239    30A     -0.500155
      31A     -0.495105    32A     -0.470444    33A     -0.435247
      34A     -0.403362

  @DF-RHF Final Energy:  -456.62270158710146

   => Energetics <=

    Nuclear Repulsion Energy =            412.8673002979203375
    One-Electron Energy =               -1442.1979057956659744
    Two-Electron Energy =                 572.7079039106441769
    Total Energy =                       -456.6227015871014601
  Basis Set: (AUG-CC-PVTZ AUX)
    Blend: AUG-CC-PVTZ-RI
    Molecular point group: c1

    Geometry (in Angstrom), charge = 0, multiplicity = 1:

       Center              X                  Y                   Z               Mass
    ------------   -----------------  -----------------  -----------------  -----------------
         O           -1.638546927221    -1.396951482462    -0.000011670985    15.994914619570
         O            3.312734072779    -0.814291482462     0.000000329015    15.994914619570
         O            2.641881072779     1.354362517538     0.000003329015    15.994914619570
         C           -2.589029927221     0.815493517538     0.000007329015    12.000000000000
         C           -1.449780927221    -0.179404482462    -0.000011670985    12.000000000000
         C           -3.958804927221     0.154500517538     0.000010329015    12.000000000000
         C           -0.069665927221     0.389119517538    -0.000023670985    12.000000000000
         C            1.007466072779    -0.414320482462     0.000017329015    12.000000000000
         C            2.369703072779     0.163418517538     0.000007329015    12.000000000000
         H           -2.461217927221     1.470120517538    -0.873362670985     1.007825032230
         H           -2.461204927221     1.470098517538     0.873392329015     1.007825032230
         H           -4.081602927221    -0.478867482462    -0.880707670985     1.007825032230
         H           -4.748753927221     0.909789517538     0.000019329015     1.007825032230
         H           -4.081593927221    -0.478880482462     0.880718329015     1.007825032230
         H            0.066126072779     1.469157517538    -0.000058670985     1.007825032230
         H            0.893493072779    -1.494346482462     0.000052329015     1.007825032230
         H            4.219986572779    -0.326904182462    -0.000009170985     1.007825032230

  Basis Set: AUG-CC-PVTZ
    Blend: AUG-CC-PVTZ
  Basis Set: (AUG-CC-PVTZ AUX)
    Blend: AUG-CC-PVTZ-JKFIT
	 Reference Energy          =    -456.6227015871014601 [Eh]
	 Singles Energy            =      -0.0000000000000000 [Eh]
	 Same-Spin Energy          =      -0.4490091326010729 [Eh]
	 Opposite-Spin Energy      =      -1.4109386963615838 [Eh]
	 Correlation Energy        =      -1.8599478289626568 [Eh]
	 Total Energy              =    -458.4826494160641346 [Eh]

	 ================> DF-SCS-MP2 Energies <==================
	-----------------------------------------------------------
	 SCS Same-Spin Scale       =       0.3333333333333333 [-]
	 SCS Opposite-Spin Scale   =       1.2000000000000000 [-]
	 SCS Same-Spin Energy      =      -0.1496697108670243 [Eh]
	 SCS Opposite-Spin Energy  =      -1.6931264356339004 [Eh]
	 SCS Correlation Energy    =      -1.8427961465009246 [Eh]
	 SCS Total Energy          =    -458.4654977336023762 [Eh]
	-----------------------------------------------------------

  Dipole Moment: [D]
     X:    -0.1151      Y:     1.1903      Z:     0.0000     Total:     1.1959

*** Psi4 exiting successfully. Buy a developer a beer!
