                               Psi4 1.3.2 release

  ==> Input File <==

--------------------------------------------------------------------------
#psi4
#
memory 32 gb

molecule  {
0 1
  O       -1.6636540     1.3623100    -0.0826750
  O        3.2950020     0.8732560    -0.0394660
  O        2.6676780    -1.2988900     0.0825990
  C       -2.5713650    -0.8630400     0.0337620
  C       -1.4513780     0.1516300    -0.0098980
  C       -3.9526870    -0.2300600    -0.0211700
  C       -0.1031662    -0.3333419     0.0294401
  C        0.9984040     0.4317740    -0.0078830
  C        2.3971617    -0.0445589     0.0182931
  H       -2.4419680    -1.4628000     0.9443570
  H       -2.4189490    -1.5634100    -0.8003330
  H       -4.1001540     0.4487780     0.8215890
  H       -4.7285220    -0.9991160     0.0102380
  H       -4.0749460     0.3516660    -0.9371360
  H        0.0882100    -1.4658090     0.0960520
  H        0.8681440     1.5076730    -0.0687300
  H        4.1643390     0.4215720    -0.0233140
units angstrom
no_reorient  #important for SAPT in psi4, default
symmetry c1  #important for SAPT in psi4, default
}

set PROPERTIES_ORIGIN ["COM"]
properties('MP2/aug-cc-pvtz', properties = ['dipole'])
--------------------------------------------------------------------------

    Molecular point group: c1
  Charge       = 0
  Multiplicity = 1
  Basis Set: AUG-CC-PVTZ
    Blend: AUG-CC-PVTZ
  Basis Set: (AUG-CC-PVTZ AUX)
    Blend: AUG-CC-PVTZ-JKFIT

    Orbital Energies [Eh]
    ---------------------

    Doubly Occupied:

       1A    -20.649801     2A    -20.558552     3A    -20.548812
       4A    -11.411754     5A    -11.344703     6A    -11.278363
       7A    -11.276255     8A    -11.251762     9A    -11.224543
      10A     -1.504786    11A     -1.391338    12A     -1.334912
      13A     -1.109071    14A     -1.065096    15A     -0.969572
      16A     -0.897244    17A     -0.821235    18A     -0.740322
      19A     -0.722264    20A     -0.718743    21A     -0.671164
      22A     -0.660886    23A     -0.641467    24A     -0.641151
      25A     -0.593052    26A     -0.547499    27A     -0.541995
      28A     -0.535062    29A     -0.523712    30A     -0.498855
      31A     -0.480924    32A     -0.462207    33A     -0.438300
      34A     -0.399365

  @DF-RHF Final Energy:  -456.60933035933641

   => Energetics <=

    Nuclear Repulsion Energy =            413.8616941273992325
    One-Electron Energy =               -1444.0325235494833578
    Two-Electron Energy =                 573.5614990627477709
    Total Energy =                       -456.6093303593363544
  Basis Set: (AUG-CC-PVTZ AUX)
    Blend: AUG-CC-PVTZ-RI
    Molecular point group: c1

    Geometry (in Angstrom), charge = 0, multiplicity = 1:

       Center              X                  Y                   Z               Mass
    ------------   -----------------  -----------------  -----------------  -----------------
         O           -1.662274848512     1.350221997293    -0.082058952822    15.994914619570
         O            3.296381151488     0.861167997293    -0.038849952822    15.994914619570
         O            2.669057151488    -1.310978002707     0.083215047178    15.994914619570
         C           -2.569985848512    -0.875128002707     0.034378047178    12.000000000000
         C           -1.449998848512     0.139541997293    -0.009281952822    12.000000000000
         C           -3.951307848512    -0.242148002707    -0.020553952822    12.000000000000
         C           -0.101787048512    -0.345429902707     0.030056147178    12.000000000000
         C            0.999783151488     0.419685997293    -0.007266952822    12.000000000000
         C            2.398540851488    -0.056646902707     0.018909147178    12.000000000000
         H           -2.440588848512    -1.474888002707     0.944973047178     1.007825032230
         H           -2.417569848512    -1.575498002707    -0.799716952822     1.007825032230
         H           -4.098774848512     0.436689997293     0.822205047178     1.007825032230
         H           -4.727142848512    -1.011204002707     0.010854047178     1.007825032230
         H           -4.073566848512     0.339577997293    -0.936519952822     1.007825032230
         H            0.089589151488    -1.477897002707     0.096668047178     1.007825032230
         H            0.869523151488     1.495584997293    -0.068113952822     1.007825032230
         H            4.165718151488     0.409483997293    -0.022697952822     1.007825032230

  Basis Set: AUG-CC-PVTZ
    Blend: AUG-CC-PVTZ
  Basis Set: (AUG-CC-PVTZ AUX)
    Blend: AUG-CC-PVTZ-JKFIT
	 Reference Energy          =    -456.6093303593364112 [Eh]
	 Singles Energy            =      -0.0000000000000000 [Eh]
	 Same-Spin Energy          =      -0.4499458243404030 [Eh]
	 Opposite-Spin Energy      =      -1.4118115680508203 [Eh]
	 Correlation Energy        =      -1.8617573923912234 [Eh]
	 Total Energy              =    -458.4710877517276231 [Eh]

	 ================> DF-SCS-MP2 Energies <==================
	-----------------------------------------------------------
	 SCS Same-Spin Scale       =       0.3333333333333333 [-]
	 SCS Opposite-Spin Scale   =       1.2000000000000000 [-]
	 SCS Same-Spin Energy      =      -0.1499819414468010 [Eh]
	 SCS Opposite-Spin Energy  =      -1.6941738816609844 [Eh]
	 SCS Correlation Energy    =      -1.8441558231077853 [Eh]
	 SCS Total Energy          =    -458.4534861824441805 [Eh]
	-----------------------------------------------------------

  Dipole Moment: [D]
     X:     0.2616      Y:    -0.6287      Z:     0.0301     Total:     0.6816

*** Psi4 exiting successfully. Buy a developer a beer!
