                               Psi4 1.3.2 release

  ==> Input File <==

--------------------------------------------------------------------------
#psi4
#
memory 32 gb

molecule  {
0 1
  O       -1.6636540     1.3623100    -0.0826750
  O        3.2950020     0.8732560    -0.0394660
  O        2.6676780    -1.2988900     0.0825990
  C       -2.5713650    -0.8630400     0.0337620
  C       -1.4513780     0.1516300    -0.0098980
  C       -3.9526870    -0.2300600    -0.0211700
  C       -0.0757608    -0.3712767     0.0312556
  C        0.9984040     0.4317740    -0.0078830
  C        2.3702780    -0.1170190     0.0219370
  H       -2.4419680    -1.4628000     0.9443570
  H       -2.4189490    -1.5634100    -0.8003330
  H       -4.1001540     0.4487780     0.8215890
  H       -4.7285220    -0.9991160     0.0102380
  H       -4.0749460     0.3516660    -0.9371360
  H        0.0882100    -1.4658090     0.0960520
  H        0.8493571     1.5052337    -0.0686943
  H        4.1643390     0.4215720    -0.0233140
units angstrom
no_reorient  #important for SAPT in psi4, default
symmetry c1  #important for SAPT in psi4, default
}

set PROPERTIES_ORIGIN ["COM"]
properties('MP2/aug-cc-pvtz', properties = ['dipole'])
--------------------------------------------------------------------------

    Molecular point group: c1
  Charge       = 0
  Multiplicity = 1
  Basis Set: AUG-CC-PVTZ
    Blend: AUG-CC-PVTZ
  Basis Set: (AUG-CC-PVTZ AUX)
    Blend: AUG-CC-PVTZ-JKFIT

    Orbital Energies [Eh]
    ---------------------

    Doubly Occupied:

       1A    -20.628237     2A    -20.562423     3A    -20.560252
       4A    -11.406903     5A    -11.348476     6A    -11.277092
       7A    -11.275364     8A    -11.252490     9A    -11.225157
      10A     -1.472909    11A     -1.391106    12A     -1.368254
      13A     -1.109797    14A     -1.065765    15A     -0.959421
      16A     -0.887899    17A     -0.801541    18A     -0.744213
      19A     -0.719304    20A     -0.712720    21A     -0.664068
      22A     -0.644396    23A     -0.640507    24A     -0.639444
      25A     -0.606750    26A     -0.564700    27A     -0.540816
      28A     -0.538963    29A     -0.524533    30A     -0.501218
      31A     -0.496332    32A     -0.472360    33A     -0.436754
      34A     -0.403859

  @DF-RHF Final Energy:  -456.62726738865672

   => Energetics <=

    Nuclear Repulsion Energy =            413.6616564880646365
    One-Electron Energy =               -1443.6897995945857929
    Two-Electron Energy =                 573.4008757178644373
    Total Energy =                       -456.6272673886567190
  Basis Set: (AUG-CC-PVTZ AUX)
    Blend: AUG-CC-PVTZ-RI
    Molecular point group: c1

    Geometry (in Angstrom), charge = 0, multiplicity = 1:

       Center              X                  Y                   Z               Mass
    ------------   -----------------  -----------------  -----------------  -----------------
         O           -1.662175873339     1.360586891597    -0.082570863317    15.994914619570
         O            3.296480126661     0.871532891597    -0.039361863317    15.994914619570
         O            2.669156126661    -1.300613108403     0.082703136683    15.994914619570
         C           -2.569886873339    -0.864763108403     0.033866136683    12.000000000000
         C           -1.449899873339     0.149906891597    -0.009793863317    12.000000000000
         C           -3.951208873339    -0.231783108403    -0.021065863317    12.000000000000
         C           -0.074282673339    -0.372999808403     0.031359736683    12.000000000000
         C            0.999882126661     0.430050891597    -0.007778863317    12.000000000000
         C            2.371756126661    -0.118742108403     0.022041136683    12.000000000000
         H           -2.440489873339    -1.464523108403     0.944461136683     1.007825032230
         H           -2.417470873339    -1.565133108403    -0.800228863317     1.007825032230
         H           -4.098675873339     0.447054891597     0.821693136683     1.007825032230
         H           -4.727043873339    -1.000839108403     0.010342136683     1.007825032230
         H           -4.073467873339     0.349942891597    -0.937031863317     1.007825032230
         H            0.089688126661    -1.467532108403     0.096156136683     1.007825032230
         H            0.850835226661     1.503510591597    -0.068590163317     1.007825032230
         H            4.165817126661     0.419848891597    -0.023209863317     1.007825032230

  Basis Set: AUG-CC-PVTZ
    Blend: AUG-CC-PVTZ
  Basis Set: (AUG-CC-PVTZ AUX)
    Blend: AUG-CC-PVTZ-JKFIT
	 Reference Energy          =    -456.6272673886567190 [Eh]
	 Singles Energy            =      -0.0000000000000000 [Eh]
	 Same-Spin Energy          =      -0.4485216506649488 [Eh]
	 Opposite-Spin Energy      =      -1.4094617124538338 [Eh]
	 Correlation Energy        =      -1.8579833631187825 [Eh]
	 Total Energy              =    -458.4852507517754816 [Eh]

	 ================> DF-SCS-MP2 Energies <==================
	-----------------------------------------------------------
	 SCS Same-Spin Scale       =       0.3333333333333333 [-]
	 SCS Opposite-Spin Scale   =       1.2000000000000000 [-]
	 SCS Same-Spin Energy      =      -0.1495072168883163 [Eh]
	 SCS Opposite-Spin Energy  =      -1.6913540549446004 [Eh]
	 SCS Correlation Energy    =      -1.8408612718329167 [Eh]
	 SCS Total Energy          =    -458.4681286604896400 [Eh]
	-----------------------------------------------------------

  Dipole Moment: [D]
     X:    -0.1423      Y:    -1.1817      Z:     0.0615     Total:     1.1918

*** Psi4 exiting successfully. Buy a developer a beer!
