                               Psi4 1.3.2 release

  ==> Input File <==

--------------------------------------------------------------------------
#psi4
#
memory 32 gb

molecule  {
0 1
  O       -1.6636540     1.3623100    -0.0826750
  O        3.2950020     0.8732560    -0.0394660
  O        2.6676780    -1.2988900     0.0825990
  C       -2.5713650    -0.8630400     0.0337620
  C       -1.4606435     0.1273288    -0.0085410
  C       -3.9526870    -0.2300600    -0.0211700
  C       -0.0615660    -0.3898680     0.0323710
  C        1.0125983     0.4131874    -0.0066847
  C        2.3702780    -0.1170190     0.0219370
  H       -2.4419680    -1.4628000     0.9443570
  H       -2.4189490    -1.5634100    -0.8003330
  H       -4.1001540     0.4487780     0.8215890
  H       -4.7285220    -0.9991160     0.0102380
  H       -4.0749460     0.3516660    -0.9371360
  H        0.0882100    -1.4658090     0.0960520
  H        0.8681440     1.5076730    -0.0687300
  H        4.1643390     0.4215720    -0.0233140
units angstrom
no_reorient  #important for SAPT in psi4, default
symmetry c1  #important for SAPT in psi4, default
}

set PROPERTIES_ORIGIN ["COM"]
properties('MP2/aug-cc-pvtz', properties = ['dipole'])
--------------------------------------------------------------------------

    Molecular point group: c1
  Charge       = 0
  Multiplicity = 1
  Basis Set: AUG-CC-PVTZ
    Blend: AUG-CC-PVTZ
  Basis Set: (AUG-CC-PVTZ AUX)
    Blend: AUG-CC-PVTZ-JKFIT

    Orbital Energies [Eh]
    ---------------------

    Doubly Occupied:

       1A    -20.627453     2A    -20.560593     3A    -20.560061
       4A    -11.404152     5A    -11.352815     6A    -11.278110
       7A    -11.275573     8A    -11.254371     9A    -11.226763
      10A     -1.472359    11A     -1.376922    12A     -1.367341
      13A     -1.110129    14A     -1.071024    15A     -0.961220
      16A     -0.892146    17A     -0.799927    18A     -0.743348
      19A     -0.720168    20A     -0.712316    21A     -0.663356
      22A     -0.645791    23A     -0.640475    24A     -0.635959
      25A     -0.607202    26A     -0.563497    27A     -0.540627
      28A     -0.536581    29A     -0.524757    30A     -0.500895
      31A     -0.493735    32A     -0.471320    33A     -0.439724
      34A     -0.402911

  @DF-RHF Final Energy:  -456.62363706139456

   => Energetics <=

    Nuclear Repulsion Energy =            413.4751720674365174
    One-Electron Energy =               -1443.3303769010760789
    Two-Electron Energy =                 573.2315677722450573
    Total Energy =                       -456.6236370613945610
  Basis Set: (AUG-CC-PVTZ AUX)
    Blend: AUG-CC-PVTZ-RI
    Molecular point group: c1

    Geometry (in Angstrom), charge = 0, multiplicity = 1:

       Center              X                  Y                   Z               Mass
    ------------   -----------------  -----------------  -----------------  -----------------
         O           -1.664115914421     1.366329227117    -0.082914583220    15.994914619570
         O            3.294540085579     0.877275227117    -0.039705583220    15.994914619570
         O            2.667216085579    -1.294870772883     0.082359416780    15.994914619570
         C           -2.571826914421    -0.859020772883     0.033522416780    12.000000000000
         C           -1.461105414421     0.131348027117    -0.008780583220    12.000000000000
         C           -3.953148914421    -0.226040772883    -0.021409583220    12.000000000000
         C           -0.062027914421    -0.385848772883     0.032131416780    12.000000000000
         C            1.012136385579     0.417206627117    -0.006924283220    12.000000000000
         C            2.369816085579    -0.112999772883     0.021697416780    12.000000000000
         H           -2.442429914421    -1.458780772883     0.944117416780     1.007825032230
         H           -2.419410914421    -1.559390772883    -0.800572583220     1.007825032230
         H           -4.100615914421     0.452797227117     0.821349416780     1.007825032230
         H           -4.728983914421    -0.995096772883     0.009998416780     1.007825032230
         H           -4.075407914421     0.355685227117    -0.937375583220     1.007825032230
         H            0.087748085579    -1.461789772883     0.095812416780     1.007825032230
         H            0.867682085579     1.511692227117    -0.068969583220     1.007825032230
         H            4.163877085579     0.425591227117    -0.023553583220     1.007825032230

  Basis Set: AUG-CC-PVTZ
    Blend: AUG-CC-PVTZ
  Basis Set: (AUG-CC-PVTZ AUX)
    Blend: AUG-CC-PVTZ-JKFIT
	 Reference Energy          =    -456.6236370613945610 [Eh]
	 Singles Energy            =      -0.0000000000000000 [Eh]
	 Same-Spin Energy          =      -0.4492394503759632 [Eh]
	 Opposite-Spin Energy      =      -1.4109503766721225 [Eh]
	 Correlation Energy        =      -1.8601898270480857 [Eh]
	 Total Energy              =    -458.4838268884426498 [Eh]

	 ================> DF-SCS-MP2 Energies <==================
	-----------------------------------------------------------
	 SCS Same-Spin Scale       =       0.3333333333333333 [-]
	 SCS Opposite-Spin Scale   =       1.2000000000000000 [-]
	 SCS Same-Spin Energy      =      -0.1497464834586544 [Eh]
	 SCS Opposite-Spin Energy  =      -1.6931404520065469 [Eh]
	 SCS Correlation Energy    =      -1.8428869354652013 [Eh]
	 SCS Total Energy          =    -458.4665239968597348 [Eh]
	-----------------------------------------------------------

  Dipole Moment: [D]
     X:    -0.2889      Y:    -1.2751      Z:     0.0656     Total:     1.3090

*** Psi4 exiting successfully. Buy a developer a beer!
