                               Psi4 1.3.2 release

  ==> Input File <==

--------------------------------------------------------------------------
#psi4
#
memory 32 gb

molecule  {
0 1
  O       -1.6636540     1.3623100    -0.0826750
  O        3.2950020     0.8732560    -0.0394660
  O        2.6676780    -1.2988900     0.0825990
  C       -2.5713650    -0.8630400     0.0337620
  C       -1.4513780     0.1516300    -0.0098980
  C       -3.9526870    -0.2300600    -0.0211700
  C       -0.0615660    -0.3898680     0.0323710
  C        0.9984040     0.4317740    -0.0078830
  C        2.3789708    -0.1250440     0.0222860
  H       -2.4419680    -1.4628000     0.9443570
  H       -2.4189490    -1.5634100    -0.8003330
  H       -4.1001540     0.4487780     0.8215890
  H       -4.7285220    -0.9991160     0.0102380
  H       -4.0749460     0.3516660    -0.9371360
  H        0.0882100    -1.4658090     0.0960520
  H        0.8681440     1.5076730    -0.0687300
  H        4.1603625     0.4140153    -0.0228737
units angstrom
no_reorient  #important for SAPT in psi4, default
symmetry c1  #important for SAPT in psi4, default
}

set PROPERTIES_ORIGIN ["COM"]
properties('MP2/aug-cc-pvtz', properties = ['dipole'])
--------------------------------------------------------------------------

    Molecular point group: c1
  Charge       = 0
  Multiplicity = 1
  Basis Set: AUG-CC-PVTZ
    Blend: AUG-CC-PVTZ
  Basis Set: (AUG-CC-PVTZ AUX)
    Blend: AUG-CC-PVTZ-JKFIT

    Orbital Energies [Eh]
    ---------------------

    Doubly Occupied:

       1A    -20.628034     2A    -20.563314     3A    -20.559741
       4A    -11.405153     5A    -11.349181     6A    -11.276342
       7A    -11.274157     8A    -11.251952     9A    -11.224760
      10A     -1.475237    11A     -1.389773    12A     -1.373563
      13A     -1.107249    14A     -1.064834    15A     -0.955017
      16A     -0.886311    17A     -0.797926    18A     -0.746389
      19A     -0.717574    20A     -0.715310    21A     -0.662095
      22A     -0.644854    23A     -0.640015    24A     -0.639633
      25A     -0.607857    26A     -0.570522    27A     -0.539452
      28A     -0.538861    29A     -0.523940    30A     -0.502524
      31A     -0.496967    32A     -0.472181    33A     -0.434416
      34A     -0.403759

  @DF-RHF Final Energy:  -456.62910841492362

   => Energetics <=

    Nuclear Repulsion Energy =            413.4904430045531853
    One-Electron Energy =               -1443.3613159449914747
    Two-Electron Energy =                 573.2417645255147818
    Total Energy =                       -456.6291084149236212
  Basis Set: (AUG-CC-PVTZ AUX)
    Blend: AUG-CC-PVTZ-RI
    Molecular point group: c1

    Geometry (in Angstrom), charge = 0, multiplicity = 1:

       Center              X                  Y                   Z               Mass
    ------------   -----------------  -----------------  -----------------  -----------------
         O           -1.664437361024     1.363121524752    -0.082711284551    15.994914619570
         O            3.294218638976     0.874067524752    -0.039502284551    15.994914619570
         O            2.666894638976    -1.298078475248     0.082562715449    15.994914619570
         C           -2.572148361024    -0.862228475248     0.033725715449    12.000000000000
         C           -1.452161361024     0.152441524752    -0.009934284551    12.000000000000
         C           -3.953470361024    -0.229248475248    -0.021206284551    12.000000000000
         C           -0.062349361024    -0.389056475248     0.032334715449    12.000000000000
         C            0.997620638976     0.432585524752    -0.007919284551    12.000000000000
         C            2.378187438976    -0.124232475248     0.022249715449    12.000000000000
         H           -2.442751361024    -1.461988475248     0.944320715449     1.007825032230
         H           -2.419732361024    -1.562598475248    -0.800369284551     1.007825032230
         H           -4.100937361024     0.449589524752     0.821552715449     1.007825032230
         H           -4.729305361024    -0.998304475248     0.010201715449     1.007825032230
         H           -4.075729361024     0.352477524752    -0.937172284551     1.007825032230
         H            0.087426638976    -1.464997475248     0.096015715449     1.007825032230
         H            0.867360638976     1.508484524752    -0.068766284551     1.007825032230
         H            4.159579138976     0.414826824752    -0.022909984551     1.007825032230

  Basis Set: AUG-CC-PVTZ
    Blend: AUG-CC-PVTZ
  Basis Set: (AUG-CC-PVTZ AUX)
    Blend: AUG-CC-PVTZ-JKFIT
	 Reference Energy          =    -456.6291084149236212 [Eh]
	 Singles Energy            =      -0.0000000000000000 [Eh]
	 Same-Spin Energy          =      -0.4480290615382518 [Eh]
	 Opposite-Spin Energy      =      -1.4085973714556301 [Eh]
	 Correlation Energy        =      -1.8566264329938820 [Eh]
	 Total Energy              =    -458.4857348479175130 [Eh]

	 ================> DF-SCS-MP2 Energies <==================
	-----------------------------------------------------------
	 SCS Same-Spin Scale       =       0.3333333333333333 [-]
	 SCS Opposite-Spin Scale   =       1.2000000000000000 [-]
	 SCS Same-Spin Energy      =      -0.1493430205127506 [Eh]
	 SCS Opposite-Spin Energy  =      -1.6903168457467561 [Eh]
	 SCS Correlation Energy    =      -1.8396598662595067 [Eh]
	 SCS Total Energy          =    -458.4687682811831451 [Eh]
	-----------------------------------------------------------

  Dipole Moment: [D]
     X:    -0.1110      Y:    -1.2334      Z:     0.0645     Total:     1.2400

*** Psi4 exiting successfully. Buy a developer a beer!
