                               Psi4 1.3.2 release

  ==> Input File <==

--------------------------------------------------------------------------
#psi4
#
memory 32 gb

molecule  {
0 1
  O       -1.6636540     1.3623100    -0.0826750
  O        3.2950020     0.8732560    -0.0394660
  O        2.6676780    -1.2988900     0.0825990
  C       -2.5713650    -0.8630400     0.0337620
  C       -1.4560638     0.1394991    -0.0092296
  C       -3.9526870    -0.2300600    -0.0211700
  C       -0.0615660    -0.3898680     0.0323710
  C        0.9984040     0.4317740    -0.0078830
  C        2.3702780    -0.1170190     0.0219370
  H       -2.4419680    -1.4628000     0.9443570
  H       -2.4189490    -1.5634100    -0.8003330
  H       -4.1001540     0.4487780     0.8215890
  H       -4.7285220    -0.9991160     0.0102380
  H       -4.0749460     0.3516660    -0.9371360
  H        0.0787989    -1.4670771     0.0960525
  H        0.8681440     1.5076730    -0.0687300
  H        4.1643390     0.4215720    -0.0233140
units angstrom
no_reorient  #important for SAPT in psi4, default
symmetry c1  #important for SAPT in psi4, default
}

set PROPERTIES_ORIGIN ["COM"]
properties('MP2/aug-cc-pvtz', properties = ['dipole'])
--------------------------------------------------------------------------

    Molecular point group: c1
  Charge       = 0
  Multiplicity = 1
  Basis Set: AUG-CC-PVTZ
    Blend: AUG-CC-PVTZ
  Basis Set: (AUG-CC-PVTZ AUX)
    Blend: AUG-CC-PVTZ-JKFIT

    Orbital Energies [Eh]
    ---------------------

    Doubly Occupied:

       1A    -20.627587     2A    -20.561301     3A    -20.559780
       4A    -11.405478     5A    -11.350691     6A    -11.277356
       7A    -11.275663     8A    -11.253221     9A    -11.225797
      10A     -1.472206    11A     -1.383270    12A     -1.367445
      13A     -1.109124    14A     -1.068004    15A     -0.958102
      16A     -0.889053    17A     -0.799548    18A     -0.746311
      19A     -0.718300    20A     -0.712866    21A     -0.661248
      22A     -0.644528    23A     -0.639608    24A     -0.639366
      25A     -0.606508    26A     -0.569394    27A     -0.539675
      28A     -0.537914    29A     -0.524428    30A     -0.500764
      31A     -0.494926    32A     -0.471126    33A     -0.436982
      34A     -0.403653

  @DF-RHF Final Energy:  -456.62679124639783

   => Energetics <=

    Nuclear Repulsion Energy =            413.3838654055377333
    One-Electron Energy =               -1443.1588695699629170
    Two-Electron Energy =                 573.1482129180272977
    Total Energy =                       -456.6267912463978291
  Basis Set: (AUG-CC-PVTZ AUX)
    Blend: AUG-CC-PVTZ-RI
    Molecular point group: c1

    Geometry (in Angstrom), charge = 0, multiplicity = 1:

       Center              X                  Y                   Z               Mass
    ------------   -----------------  -----------------  -----------------  -----------------
         O           -1.663140806792     1.363456814732    -0.082737755686    15.994914619570
         O            3.295515193208     0.874402814732    -0.039528755686    15.994914619570
         O            2.668191193208    -1.297743185268     0.082536244314    15.994914619570
         C           -2.570851806792    -0.861893185268     0.033699244314    12.000000000000
         C           -1.455550606792     0.140645914732    -0.009292355686    12.000000000000
         C           -3.952173806792    -0.228913185268    -0.021232755686    12.000000000000
         C           -0.061052806792    -0.388721185268     0.032308244314    12.000000000000
         C            0.998917193208     0.432920814732    -0.007945755686    12.000000000000
         C            2.370791193208    -0.115872185268     0.021874244314    12.000000000000
         H           -2.441454806792    -1.461653185268     0.944294244314     1.007825032230
         H           -2.418435806792    -1.562263185268    -0.800395755686     1.007825032230
         H           -4.099640806792     0.449924814732     0.821526244314     1.007825032230
         H           -4.728008806792    -0.997969185268     0.010175244314     1.007825032230
         H           -4.074432806792     0.352812814732    -0.937198755686     1.007825032230
         H            0.079312093208    -1.465930285268     0.095989744314     1.007825032230
         H            0.868657193208     1.508819814732    -0.068792755686     1.007825032230
         H            4.164852193208     0.422718814732    -0.023376755686     1.007825032230

  Basis Set: AUG-CC-PVTZ
    Blend: AUG-CC-PVTZ
  Basis Set: (AUG-CC-PVTZ AUX)
    Blend: AUG-CC-PVTZ-JKFIT
	 Reference Energy          =    -456.6267912463978291 [Eh]
	 Singles Energy            =      -0.0000000000000000 [Eh]
	 Same-Spin Energy          =      -0.4486228609708959 [Eh]
	 Opposite-Spin Energy      =      -1.4098207039054635 [Eh]
	 Correlation Energy        =      -1.8584435648763593 [Eh]
	 Total Energy              =    -458.4852348112742106 [Eh]

	 ================> DF-SCS-MP2 Energies <==================
	-----------------------------------------------------------
	 SCS Same-Spin Scale       =       0.3333333333333333 [-]
	 SCS Opposite-Spin Scale   =       1.2000000000000000 [-]
	 SCS Same-Spin Energy      =      -0.1495409536569653 [Eh]
	 SCS Opposite-Spin Energy  =      -1.6917848446865562 [Eh]
	 SCS Correlation Energy    =      -1.8413257983435214 [Eh]
	 SCS Total Energy          =    -458.4681170447413479 [Eh]
	-----------------------------------------------------------

  Dipole Moment: [D]
     X:    -0.2139      Y:    -1.2292      Z:     0.0637     Total:     1.2493

*** Psi4 exiting successfully. Buy a developer a beer!
