                               Psi4 1.3.2 release

  ==> Input File <==

--------------------------------------------------------------------------
#psi4
#
memory 32 gb

molecule  {
0 1
  O       -1.6636540     1.3623100    -0.0826750
  O        3.2950020     0.8732560    -0.0394660
  O        2.6676780    -1.2988900     0.0825990
  C       -2.5713650    -0.8630400     0.0337620
  C       -1.4513780     0.1516300    -0.0098980
  C       -3.9526870    -0.2300600    -0.0211700
  C       -0.0687041    -0.3806033     0.0318148
  C        0.9984040     0.4317740    -0.0078830
  C        2.3702780    -0.1170190     0.0219370
  H       -2.4419680    -1.4628000     0.9443570
  H       -2.4189490    -1.5634100    -0.8003330
  H       -4.1001540     0.4487780     0.8215890
  H       -4.7285220    -0.9991160     0.0102380
  H       -4.0749460     0.3516660    -0.9371360
  H        0.0882100    -1.4658090     0.0960520
  H        0.8587452     1.5064943    -0.0687145
  H        4.1643390     0.4215720    -0.0233140
units angstrom
no_reorient  #important for SAPT in psi4, default
symmetry c1  #important for SAPT in psi4, default
}

set PROPERTIES_ORIGIN ["COM"]
properties('MP2/aug-cc-pvtz', properties = ['dipole'])
--------------------------------------------------------------------------

    Molecular point group: c1
  Charge       = 0
  Multiplicity = 1
  Basis Set: AUG-CC-PVTZ
    Blend: AUG-CC-PVTZ
  Basis Set: (AUG-CC-PVTZ AUX)
    Blend: AUG-CC-PVTZ-JKFIT

    Orbital Energies [Eh]
    ---------------------

    Doubly Occupied:

       1A    -20.627920     2A    -20.561893     3A    -20.560470
       4A    -11.406173     5A    -11.349229     6A    -11.276990
       7A    -11.275318     8A    -11.252499     9A    -11.225169
      10A     -1.472572    11A     -1.390855    12A     -1.367881
      13A     -1.109432    14A     -1.065727    15A     -0.958326
      16A     -0.887734    17A     -0.800241    18A     -0.745606
      19A     -0.718846    20A     -0.712840    21A     -0.662758
      22A     -0.644165    23A     -0.640671    24A     -0.639285
      25A     -0.606734    26A     -0.567562    27A     -0.540424
      28A     -0.539210    29A     -0.524484    30A     -0.501072
      31A     -0.496196    32A     -0.471791    33A     -0.436072
      34A     -0.404052

  @DF-RHF Final Energy:  -456.62800161725005

   => Energetics <=

    Nuclear Repulsion Energy =            413.5639927977578054
    One-Electron Energy =               -1443.5035936482677243
    Two-Electron Energy =                 573.3115992332600399
    Total Energy =                       -456.6280016172499927
  Basis Set: (AUG-CC-PVTZ AUX)
    Blend: AUG-CC-PVTZ-RI
    Molecular point group: c1

    Geometry (in Angstrom), charge = 0, multiplicity = 1:

       Center              X                  Y                   Z               Mass
    ------------   -----------------  -----------------  -----------------  -----------------
         O           -1.662911085481     1.361451015226    -0.082623109945    15.994914619570
         O            3.295744914519     0.872397015226    -0.039414109945    15.994914619570
         O            2.668420914519    -1.299748984774     0.082650890055    15.994914619570
         C           -2.570622085481    -0.863898984774     0.033813890055    12.000000000000
         C           -1.450635085481     0.150771015226    -0.009846109945    12.000000000000
         C           -3.951944085481    -0.230918984774    -0.021118109945    12.000000000000
         C           -0.067961185481    -0.381462284774     0.031866690055    12.000000000000
         C            0.999146914519     0.430915015226    -0.007831109945    12.000000000000
         C            2.371020914519    -0.117877984774     0.021988890055    12.000000000000
         H           -2.441225085481    -1.463658984774     0.944408890055     1.007825032230
         H           -2.418206085481    -1.564268984774    -0.800281109945     1.007825032230
         H           -4.099411085481     0.447919015226     0.821640890055     1.007825032230
         H           -4.727779085481    -0.999974984774     0.010289890055     1.007825032230
         H           -4.074203085481     0.350807015226    -0.937084109945     1.007825032230
         H            0.088952914519    -1.466667984774     0.096103890055     1.007825032230
         H            0.859488114519     1.505635315226    -0.068662609945     1.007825032230
         H            4.165081914519     0.420713015226    -0.023262109945     1.007825032230

  Basis Set: AUG-CC-PVTZ
    Blend: AUG-CC-PVTZ
  Basis Set: (AUG-CC-PVTZ AUX)
    Blend: AUG-CC-PVTZ-JKFIT
	 Reference Energy          =    -456.6280016172500495 [Eh]
	 Singles Energy            =      -0.0000000000000000 [Eh]
	 Same-Spin Energy          =      -0.4483920000192633 [Eh]
	 Opposite-Spin Energy      =      -1.4092605565475544 [Eh]
	 Correlation Energy        =      -1.8576525565668178 [Eh]
	 Total Energy              =    -458.4856541738168403 [Eh]

	 ================> DF-SCS-MP2 Energies <==================
	-----------------------------------------------------------
	 SCS Same-Spin Scale       =       0.3333333333333333 [-]
	 SCS Opposite-Spin Scale   =       1.2000000000000000 [-]
	 SCS Same-Spin Energy      =      -0.1494640000064211 [Eh]
	 SCS Opposite-Spin Energy  =      -1.6911126678570654 [Eh]
	 SCS Correlation Energy    =      -1.8405766678634865 [Eh]
	 SCS Total Energy          =    -458.4685782851135514 [Eh]
	-----------------------------------------------------------

  Dipole Moment: [D]
     X:    -0.1580      Y:    -1.1822      Z:     0.0615     Total:     1.1943

*** Psi4 exiting successfully. Buy a developer a beer!
