                               Psi4 1.3.2 release

  ==> Input File <==

--------------------------------------------------------------------------
#psi4
#
memory 32 gb

molecule  {
0 1
  O       -1.6636540     1.3623100    -0.0826750
  O        3.2950020     0.8732560    -0.0394660
  O        2.6676780    -1.2988900     0.0825990
  C       -2.5713650    -0.8630400     0.0337620
  C       -1.4513780     0.1516300    -0.0098980
  C       -3.9526870    -0.2300600    -0.0211700
  C       -0.0687043    -0.3805993     0.0318900
  C        0.9984040     0.4317740    -0.0078830
  C        2.3750219    -0.1050415     0.0213351
  H       -2.4419680    -1.4628000     0.9443570
  H       -2.4189490    -1.5634100    -0.8003330
  H       -4.1001540     0.4487780     0.8215890
  H       -4.7285220    -0.9991160     0.0102380
  H       -4.0749460     0.3516660    -0.9371360
  H        0.0882100    -1.4658090     0.0960520
  H        0.8681440     1.5076730    -0.0687300
  H        4.1643390     0.4215720    -0.0233140
units angstrom
no_reorient  #important for SAPT in psi4, default
symmetry c1  #important for SAPT in psi4, default
}

set PROPERTIES_ORIGIN ["COM"]
properties('MP2/aug-cc-pvtz', properties = ['dipole'])
--------------------------------------------------------------------------

    Molecular point group: c1
  Charge       = 0
  Multiplicity = 1
  Basis Set: AUG-CC-PVTZ
    Blend: AUG-CC-PVTZ
  Basis Set: (AUG-CC-PVTZ AUX)
    Blend: AUG-CC-PVTZ-JKFIT

    Orbital Energies [Eh]
    ---------------------

    Doubly Occupied:

       1A    -20.631405     2A    -20.560290     3A    -20.559347
       4A    -11.406525     5A    -11.349105     6A    -11.277023
       7A    -11.275359     8A    -11.252368     9A    -11.225066
      10A     -1.475866    11A     -1.390667    12A     -1.363478
      13A     -1.108957    14A     -1.065563    15A     -0.959126
      16A     -0.888993    17A     -0.802605    18A     -0.745027
      19A     -0.719174    20A     -0.713576    21A     -0.662870
      22A     -0.645342    23A     -0.641108    24A     -0.640077
      25A     -0.605250    26A     -0.566283    27A     -0.540325
      28A     -0.539077    29A     -0.524349    30A     -0.500186
      31A     -0.494350    32A     -0.470185    33A     -0.435949
      34A     -0.403431

  @DF-RHF Final Energy:  -456.62727216695663

   => Energetics <=

    Nuclear Repulsion Energy =            413.5189550321348975
    One-Electron Energy =               -1443.4158530395161506
    Two-Electron Energy =                 573.2696258404245100
    Total Energy =                       -456.6272721669566863
  Basis Set: (AUG-CC-PVTZ AUX)
    Blend: AUG-CC-PVTZ-RI
    Molecular point group: c1

    Geometry (in Angstrom), charge = 0, multiplicity = 1:

       Center              X                  Y                   Z               Mass
    ------------   -----------------  -----------------  -----------------  -----------------
         O           -1.663429618266     1.360318887697    -0.082573628081    15.994914619570
         O            3.295226381734     0.871264887697    -0.039364628081    15.994914619570
         O            2.667902381734    -1.300881112303     0.082700371919    15.994914619570
         C           -2.571140618266    -0.865031112303     0.033863371919    12.000000000000
         C           -1.451153618266     0.149638887697    -0.009796628081    12.000000000000
         C           -3.952462618266    -0.232051112303    -0.021068628081    12.000000000000
         C           -0.068479918266    -0.382590412303     0.031991371919    12.000000000000
         C            0.998628381734     0.429782887697    -0.007781628081    12.000000000000
         C            2.375246281734    -0.107032612303     0.021436471919    12.000000000000
         H           -2.441743618266    -1.464791112303     0.944458371919     1.007825032230
         H           -2.418724618266    -1.565401112303    -0.800231628081     1.007825032230
         H           -4.099929618266     0.446786887697     0.821690371919     1.007825032230
         H           -4.728297618266    -1.001107112303     0.010339371919     1.007825032230
         H           -4.074721618266     0.349674887697    -0.937034628081     1.007825032230
         H            0.088434381734    -1.467800112303     0.096153371919     1.007825032230
         H            0.868368381734     1.505681887697    -0.068628628081     1.007825032230
         H            4.164563381734     0.419580887697    -0.023212628081     1.007825032230

  Basis Set: AUG-CC-PVTZ
    Blend: AUG-CC-PVTZ
  Basis Set: (AUG-CC-PVTZ AUX)
    Blend: AUG-CC-PVTZ-JKFIT
	 Reference Energy          =    -456.6272721669566295 [Eh]
	 Singles Energy            =      -0.0000000000000000 [Eh]
	 Same-Spin Energy          =      -0.4485042700384458 [Eh]
	 Opposite-Spin Energy      =      -1.4094420688599207 [Eh]
	 Correlation Energy        =      -1.8579463388983666 [Eh]
	 Total Energy              =    -458.4852185058550162 [Eh]

	 ================> DF-SCS-MP2 Energies <==================
	-----------------------------------------------------------
	 SCS Same-Spin Scale       =       0.3333333333333333 [-]
	 SCS Opposite-Spin Scale   =       1.2000000000000000 [-]
	 SCS Same-Spin Energy      =      -0.1495014233461486 [Eh]
	 SCS Opposite-Spin Energy  =      -1.6913304826319049 [Eh]
	 SCS Correlation Energy    =      -1.8408319059780536 [Eh]
	 SCS Total Energy          =    -458.4681040729346932 [Eh]
	-----------------------------------------------------------

  Dipole Moment: [D]
     X:    -0.0982      Y:    -1.0893      Z:     0.0563     Total:     1.0951

*** Psi4 exiting successfully. Buy a developer a beer!
