                               Psi4 1.3.2 release

  ==> Input File <==

--------------------------------------------------------------------------
#psi4
#
memory 32 gb

molecule  {
0 1
  O       -1.6636540     1.3623100    -0.0826750
  O        3.2950020     0.8732560    -0.0394660
  O        2.6676780    -1.2988900     0.0825990
  C       -2.5713650    -0.8630400     0.0337620
  C       -1.4513780     0.1516300    -0.0098980
  C       -3.9526870    -0.2300600    -0.0211700
  C       -0.0615660    -0.3898680     0.0323710
  C        0.9984040     0.4317740    -0.0078830
  C        2.3796609    -0.0930318     0.0205690
  H       -2.4419680    -1.4628000     0.9443570
  H       -2.4189490    -1.5634100    -0.8003330
  H       -4.1001540     0.4487780     0.8215890
  H       -4.7285220    -0.9991160     0.0102380
  H       -4.0749460     0.3516660    -0.9371360
  H        0.0882100    -1.4658090     0.0960520
  H        0.8869709     1.5097779    -0.0688668
  H        4.1643390     0.4215720    -0.0233140
units angstrom
no_reorient  #important for SAPT in psi4, default
symmetry c1  #important for SAPT in psi4, default
}

set PROPERTIES_ORIGIN ["COM"]
properties('MP2/aug-cc-pvtz', properties = ['dipole'])
--------------------------------------------------------------------------

    Molecular point group: c1
  Charge       = 0
  Multiplicity = 1
  Basis Set: AUG-CC-PVTZ
    Blend: AUG-CC-PVTZ
  Basis Set: (AUG-CC-PVTZ AUX)
    Blend: AUG-CC-PVTZ-JKFIT

    Orbital Energies [Eh]
    ---------------------

    Doubly Occupied:

       1A    -20.634545     2A    -20.560355     3A    -20.556240
       4A    -11.406136     5A    -11.349741     6A    -11.277063
       7A    -11.275348     8A    -11.252258     9A    -11.224984
      10A     -1.479772    11A     -1.390269    12A     -1.357917
      13A     -1.108164    14A     -1.065381    15A     -0.958986
      16A     -0.890158    17A     -0.803904    18A     -0.745964
      19A     -0.718896    20A     -0.714725    21A     -0.661635
      22A     -0.646940    23A     -0.641761    24A     -0.640440
      25A     -0.604141    26A     -0.567159    27A     -0.539859
      28A     -0.539043    29A     -0.524160    30A     -0.499552
      31A     -0.491794    32A     -0.467820    33A     -0.435133
      34A     -0.402981

  @DF-RHF Final Energy:  -456.62633338664762

   => Energetics <=

    Nuclear Repulsion Energy =            413.3827545664330501
    One-Electron Energy =               -1443.1517284180326897
    Two-Electron Energy =                 573.1426404649520236
    Total Energy =                       -456.6263333866476160
  Basis Set: (AUG-CC-PVTZ AUX)
    Blend: AUG-CC-PVTZ-RI
    Molecular point group: c1

    Geometry (in Angstrom), charge = 0, multiplicity = 1:

       Center              X                  Y                   Z               Mass
    ------------   -----------------  -----------------  -----------------  -----------------
         O           -1.664681513197     1.360045446876    -0.082545833123    15.994914619570
         O            3.293974486803     0.870991446876    -0.039336833123    15.994914619570
         O            2.666650486803    -1.301154553124     0.082728166877    15.994914619570
         C           -2.572392513197    -0.865304553124     0.033891166877    12.000000000000
         C           -1.452405513197     0.149365446876    -0.009768833123    12.000000000000
         C           -3.953714513197    -0.232324553124    -0.021040833123    12.000000000000
         C           -0.062593513197    -0.392132553124     0.032500166877    12.000000000000
         C            0.997376486803     0.429509446876    -0.007753833123    12.000000000000
         C            2.378633386803    -0.095296353124     0.020698166877    12.000000000000
         H           -2.442995513197    -1.465064553124     0.944486166877     1.007825032230
         H           -2.419976513197    -1.565674553124    -0.800203833123     1.007825032230
         H           -4.101181513197     0.446513446876     0.821718166877     1.007825032230
         H           -4.729549513197    -1.001380553124     0.010367166877     1.007825032230
         H           -4.075973513197     0.349401446876    -0.937006833123     1.007825032230
         H            0.087182486803    -1.468073553124     0.096181166877     1.007825032230
         H            0.885943386803     1.507513346876    -0.068737633123     1.007825032230
         H            4.163311486803     0.419307446876    -0.023184833123     1.007825032230

  Basis Set: AUG-CC-PVTZ
    Blend: AUG-CC-PVTZ
  Basis Set: (AUG-CC-PVTZ AUX)
    Blend: AUG-CC-PVTZ-JKFIT
	 Reference Energy          =    -456.6263333866476160 [Eh]
	 Singles Energy            =      -0.0000000000000000 [Eh]
	 Same-Spin Energy          =      -0.4485103773539468 [Eh]
	 Opposite-Spin Energy      =      -1.4094692952849144 [Eh]
	 Correlation Energy        =      -1.8579796726388611 [Eh]
	 Total Energy              =    -458.4843130592864782 [Eh]

	 ================> DF-SCS-MP2 Energies <==================
	-----------------------------------------------------------
	 SCS Same-Spin Scale       =       0.3333333333333333 [-]
	 SCS Opposite-Spin Scale   =       1.2000000000000000 [-]
	 SCS Same-Spin Energy      =      -0.1495034591179822 [Eh]
	 SCS Opposite-Spin Energy  =      -1.6913631543418972 [Eh]
	 SCS Correlation Energy    =      -1.8408666134598795 [Eh]
	 SCS Total Energy          =    -458.4672000001074821 [Eh]
	-----------------------------------------------------------

  Dipole Moment: [D]
     X:    -0.0561      Y:    -0.9971      Z:     0.0508     Total:     0.9999

*** Psi4 exiting successfully. Buy a developer a beer!
