                               Psi4 1.3.2 release

  ==> Input File <==

--------------------------------------------------------------------------
#psi4
#
memory 32 gb

molecule  {
0 1
  O       -1.6636540     1.3623100    -0.0826750
  O        3.2950020     0.8732560    -0.0394660
  O        2.6676780    -1.2988900     0.0825990
  C       -2.5713650    -0.8630400     0.0337620
  C       -1.4513780     0.1516300    -0.0098980
  C       -3.9526870    -0.2300600    -0.0211700
  C        0.0315741    -0.4261572     0.0352037
  C        0.9984040     0.4317740    -0.0078830
  C        2.3702780    -0.1170190     0.0219370
  H       -2.4419680    -1.4628000     0.9443570
  H       -2.4189490    -1.5634100    -0.8003330
  H       -4.1001540     0.4487780     0.8215890
  H       -4.7285220    -0.9991160     0.0102380
  H       -4.0749460     0.3516660    -0.9371360
  H        0.0882100    -1.4658090     0.0960520
  H        0.8681440     1.5076730    -0.0687300
  H        4.1643390     0.4215720    -0.0233140
units angstrom
no_reorient  #important for SAPT in psi4, default
symmetry c1  #important for SAPT in psi4, default
}

set PROPERTIES_ORIGIN ["COM"]
properties('MP2/aug-cc-pvtz', properties = ['dipole'])
--------------------------------------------------------------------------

    Molecular point group: c1
  Charge       = 0
  Multiplicity = 1
  Basis Set: AUG-CC-PVTZ
    Blend: AUG-CC-PVTZ
  Basis Set: (AUG-CC-PVTZ AUX)
    Blend: AUG-CC-PVTZ-JKFIT

    Orbital Energies [Eh]
    ---------------------

    Doubly Occupied:

       1A    -20.624704     2A    -20.562776     3A    -20.557703
       4A    -11.401006     5A    -11.355260     6A    -11.271993
       7A    -11.265123     8A    -11.254117     9A    -11.226184
      10A     -1.469469    11A     -1.389682    12A     -1.364856
      13A     -1.115123    14A     -1.066898    15A     -0.944630
      16A     -0.887973    17A     -0.791991    18A     -0.752241
      19A     -0.717343    20A     -0.713151    21A     -0.653676
      22A     -0.642934    23A     -0.642456    24A     -0.637889
      25A     -0.611193    26A     -0.576803    27A     -0.539949
      28A     -0.537939    29A     -0.523727    30A     -0.500986
      31A     -0.495225    32A     -0.468040    33A     -0.426546
      34A     -0.415266

  @DF-RHF Final Energy:  -456.62097528759489

   => Energetics <=

    Nuclear Repulsion Energy =            413.2524362567536969
    One-Electron Energy =               -1442.9371200126081476
    Two-Electron Energy =                 573.0637084682595059
    Total Energy =                       -456.6209752875948880
  Basis Set: (AUG-CC-PVTZ AUX)
    Blend: AUG-CC-PVTZ-RI
    Molecular point group: c1

    Geometry (in Angstrom), charge = 0, multiplicity = 1:

       Center              X                  Y                   Z               Mass
    ------------   -----------------  -----------------  -----------------  -----------------
         O           -1.672382666124     1.365710837095    -0.082940579854    15.994914619570
         O            3.286273333876     0.876656837095    -0.039731579854    15.994914619570
         O            2.658949333876    -1.295489162905     0.082333420146    15.994914619570
         C           -2.580093666124    -0.859639162905     0.033496420146    12.000000000000
         C           -1.460106666124     0.155030837095    -0.010163579854    12.000000000000
         C           -3.961415666124    -0.226659162905    -0.021435579854    12.000000000000
         C            0.022845433876    -0.422756362905     0.034938120146    12.000000000000
         C            0.989675333876     0.435174837095    -0.008148579854    12.000000000000
         C            2.361549333876    -0.113618162905     0.021671420146    12.000000000000
         H           -2.450696666124    -1.459399162905     0.944091420146     1.007825032230
         H           -2.427677666124    -1.560009162905    -0.800598579854     1.007825032230
         H           -4.108882666124     0.452178837095     0.821323420146     1.007825032230
         H           -4.737250666124    -0.995715162905     0.009972420146     1.007825032230
         H           -4.083674666124     0.355066837095    -0.937401579854     1.007825032230
         H            0.079481333876    -1.462408162905     0.095786420146     1.007825032230
         H            0.859415333876     1.511073837095    -0.068995579854     1.007825032230
         H            4.155610333876     0.424972837095    -0.023579579854     1.007825032230

  Basis Set: AUG-CC-PVTZ
    Blend: AUG-CC-PVTZ
  Basis Set: (AUG-CC-PVTZ AUX)
    Blend: AUG-CC-PVTZ-JKFIT
	 Reference Energy          =    -456.6209752875948880 [Eh]
	 Singles Energy            =      -0.0000000000000000 [Eh]
	 Same-Spin Energy          =      -0.4473898262094353 [Eh]
	 Opposite-Spin Energy      =      -1.4074363114362995 [Eh]
	 Correlation Energy        =      -1.8548261376457349 [Eh]
	 Total Energy              =    -458.4758014252406042 [Eh]

	 ================> DF-SCS-MP2 Energies <==================
	-----------------------------------------------------------
	 SCS Same-Spin Scale       =       0.3333333333333333 [-]
	 SCS Opposite-Spin Scale   =       1.2000000000000000 [-]
	 SCS Same-Spin Energy      =      -0.1491299420698118 [Eh]
	 SCS Opposite-Spin Energy  =      -1.6889235737235595 [Eh]
	 SCS Correlation Energy    =      -1.8380535157933713 [Eh]
	 SCS Total Energy          =    -458.4590288033882644 [Eh]
	-----------------------------------------------------------

  Dipole Moment: [D]
     X:    -0.4109      Y:    -1.1852      Z:     0.0603     Total:     1.2558

*** Psi4 exiting successfully. Buy a developer a beer!
