                               Psi4 1.4a3.dev225

  ==> Input File <==

--------------------------------------------------------------------------
#psi4
#
memory 32 gb

molecule  {
0 1
  O       -1.5457390    -1.4151030    -0.0000120
  O        3.4055420    -0.8324430     0.0000000
  O        2.7346890     1.3362110     0.0000030
  C       -2.4962220     0.7973420     0.0000070
  C       -1.3569730    -0.1975560    -0.0000120
  C       -3.8659970     0.1363490     0.0000100
  C        0.0231420     0.3709680    -0.0000240
  C        1.1002740    -0.4324720     0.0000170
  C        2.4625110     0.1452670     0.0000070
  H       -2.3684100     1.4519690    -0.8733630
  H       -2.3683970     1.4519470     0.8733920
  H       -3.9887950    -0.4970190    -0.8807080
  H       -4.6559460     0.8916380     0.0000190
  H       -3.9887860    -0.4970320     0.8807180
  H        0.1589340     1.4510060    -0.0000590
  H        0.9863010    -1.5124980     0.0000520
  H        4.2247015    -0.3923803    -0.0000085
units angstrom
no_reorient  #important for SAPT in psi4, default
symmetry c1  #important for SAPT in psi4, default
}

set PROPERTIES_ORIGIN ["COM"]
properties('MP2/aug-cc-pvtz', properties = ['dipole'])
--------------------------------------------------------------------------

    Molecular point group: c1
  Charge       = 0
  Multiplicity = 1
  Basis Set: AUG-CC-PVTZ
    Blend: AUG-CC-PVTZ
  Basis Set: (AUG-CC-PVTZ AUX)
    Blend: AUG-CC-PVTZ-JKFIT

    Orbital Energies [Eh]
    ---------------------

    Doubly Occupied:

       1A    -20.624537     2A    -20.562967     3A    -20.561105
       4A    -11.407369     5A    -11.350648     6A    -11.277541
       7A    -11.275889     8A    -11.252870     9A    -11.225337
      10A     -1.479241    11A     -1.390445    12A     -1.372131
      13A     -1.109031    14A     -1.065826    15A     -0.959665
      16A     -0.891052    17A     -0.804068    18A     -0.747329
      19A     -0.720947    20A     -0.715634    21A     -0.661958
      22A     -0.644558    23A     -0.641459    24A     -0.639722
      25A     -0.609962    26A     -0.570572    27A     -0.540201
      28A     -0.539505    29A     -0.524620    30A     -0.502003
      31A     -0.496908    32A     -0.472346    33A     -0.435814
      34A     -0.404037

  @DF-RHF Final Energy:  -456.62853580832632

   => Energetics <=

    Nuclear Repulsion Energy =            413.4736386223868863
    One-Electron Energy =               -1443.2497561236975798
    Two-Electron Energy =                 573.1475816929843177
    Total Energy =                       -456.6285358083263191
  Basis Set: (AUG-CC-PVTZ AUX)
    Blend: AUG-CC-PVTZ-RI
    Molecular point group: c1

    Geometry (in Angstrom), charge = 0, multiplicity = 1:

       Center              X                  Y                   Z               Mass
    ------------   -----------------  -----------------  -----------------  -----------------
         O           -1.637853571719    -1.396579003698    -0.000011678856    15.994914619570
         O            3.313427428281    -0.813919003698     0.000000321144    15.994914619570
         O            2.642574428281     1.354734996302     0.000003321144    15.994914619570
         C           -2.588336571719     0.815865996302     0.000007321144    12.000000000000
         C           -1.449087571719    -0.179032003698    -0.000011678856    12.000000000000
         C           -3.958111571719     0.154872996302     0.000010321144    12.000000000000
         C           -0.068972571719     0.389491996302    -0.000023678856    12.000000000000
         C            1.008159428281    -0.413948003698     0.000017321144    12.000000000000
         C            2.370396428281     0.163790996302     0.000007321144    12.000000000000
         H           -2.460524571719     1.470492996302    -0.873362678856     1.007825032230
         H           -2.460511571719     1.470470996302     0.873392321144     1.007825032230
         H           -4.080909571719    -0.478495003698    -0.880707678856     1.007825032230
         H           -4.748060571719     0.910161996302     0.000019321144     1.007825032230
         H           -4.080900571719    -0.478508003698     0.880718321144     1.007825032230
         H            0.066819428281     1.469529996302    -0.000058678856     1.007825032230
         H            0.894186428281    -1.493974003698     0.000052321144     1.007825032230
         H            4.132586928281    -0.373856303698    -0.000008178856     1.007825032230

  Basis Set: AUG-CC-PVTZ
    Blend: AUG-CC-PVTZ
  Basis Set: (AUG-CC-PVTZ AUX)
    Blend: AUG-CC-PVTZ-JKFIT
	 Reference Energy          =    -456.6285358083263191 [Eh]
	 Singles Energy            =      -0.0000000000000000 [Eh]
	 Same-Spin Energy          =      -0.4477270411310891 [Eh]
	 Opposite-Spin Energy      =      -1.4079347872070196 [Eh]
	 Correlation Energy        =      -1.8556618283381088 [Eh]
	 Total Energy              =    -458.4841976366644190 [Eh]

	 ================> DF-SCS-MP2 Energies <==================
	-----------------------------------------------------------
	 SCS Same-Spin Scale       =       0.3333333333333333 [-]
	 SCS Opposite-Spin Scale   =       1.2000000000000000 [-]
	 SCS Same-Spin Energy      =      -0.1492423470436963 [Eh]
	 SCS Opposite-Spin Energy  =      -1.6895217446484234 [Eh]
	 SCS Correlation Energy    =      -1.8387640916921197 [Eh]
	 SCS Total Energy          =    -458.4672999000184177 [Eh]
	-----------------------------------------------------------

  Dipole Moment: [D]
     X:    -0.2557      Y:     1.1682      Z:     0.0000     Total:     1.1959

*** Psi4 exiting successfully. Buy a developer a beer!
