                               Psi4 1.3.2 release

  ==> Input File <==

--------------------------------------------------------------------------
#psi4
#
memory 32 gb

molecule  {
0 1
  O       -1.6636540     1.3623100    -0.0826750
  O        3.2950020     0.8732560    -0.0394660
  O        2.6469791    -1.3038950     0.0828265
  C       -2.5713650    -0.8630400     0.0337620
  C       -1.4513780     0.1516300    -0.0098980
  C       -3.9526870    -0.2300600    -0.0211700
  C       -0.0615660    -0.3898680     0.0323710
  C        0.9890211     0.4077783    -0.0066720
  C        2.3702780    -0.1170190     0.0219370
  H       -2.4419680    -1.4628000     0.9443570
  H       -2.4189490    -1.5634100    -0.8003330
  H       -4.1001540     0.4487780     0.8215890
  H       -4.7285220    -0.9991160     0.0102380
  H       -4.0749460     0.3516660    -0.9371360
  H        0.0882100    -1.4658090     0.0960520
  H        0.8681440     1.5076730    -0.0687300
  H        4.1643390     0.4215720    -0.0233140
units angstrom
no_reorient  #important for SAPT in psi4, default
symmetry c1  #important for SAPT in psi4, default
}

set PROPERTIES_ORIGIN ["COM"]
properties('MP2/aug-cc-pvtz', properties = ['dipole'])
--------------------------------------------------------------------------

    Molecular point group: c1
  Charge       = 0
  Multiplicity = 1
  Basis Set: AUG-CC-PVTZ
    Blend: AUG-CC-PVTZ
  Basis Set: (AUG-CC-PVTZ AUX)
    Blend: AUG-CC-PVTZ-JKFIT

    Orbital Energies [Eh]
    ---------------------

    Doubly Occupied:

       1A    -20.630348     2A    -20.561662     3A    -20.560062
       4A    -11.405711     5A    -11.349451     6A    -11.273757
       7A    -11.270968     8A    -11.252064     9A    -11.224818
      10A     -1.472792    11A     -1.389998    12A     -1.369542
      13A     -1.111796    14A     -1.065503    15A     -0.955887
      16A     -0.888654    17A     -0.799225    18A     -0.743480
      19A     -0.719159    20A     -0.713744    21A     -0.663905
      22A     -0.644389    23A     -0.639589    24A     -0.639318
      25A     -0.608222    26A     -0.563734    27A     -0.539962
      28A     -0.539249    29A     -0.523994    30A     -0.501821
      31A     -0.496304    32A     -0.470347    33A     -0.434837
      34A     -0.407587

  @DF-RHF Final Energy:  -456.62807473195335

   => Energetics <=

    Nuclear Repulsion Energy =            413.8483225518354516
    One-Electron Energy =               -1444.0890361767405921
    Two-Electron Energy =                 573.6126388929517361
    Total Energy =                       -456.6280747319533475
  Basis Set: (AUG-CC-PVTZ AUX)
    Blend: AUG-CC-PVTZ-RI
    Molecular point group: c1

    Geometry (in Angstrom), charge = 0, multiplicity = 1:

       Center              X                  Y                   Z               Mass
    ------------   -----------------  -----------------  -----------------  -----------------
         O           -1.660189104836     1.365183942509    -0.082817019643    15.994914619570
         O            3.298466895164     0.876129942509    -0.039608019643    15.994914619570
         O            2.650443995164    -1.301021057491     0.082684480357    15.994914619570
         C           -2.567900104836    -0.860166057491     0.033619980357    12.000000000000
         C           -1.447913104836     0.154503942509    -0.010040019643    12.000000000000
         C           -3.949222104836    -0.227186057491    -0.021312019643    12.000000000000
         C           -0.058101104836    -0.386994057491     0.032228980357    12.000000000000
         C            0.992485995164     0.410652242509    -0.006814019643    12.000000000000
         C            2.373742895164    -0.114145057491     0.021794980357    12.000000000000
         H           -2.438503104836    -1.459926057491     0.944214980357     1.007825032230
         H           -2.415484104836    -1.560536057491    -0.800475019643     1.007825032230
         H           -4.096689104836     0.451651942509     0.821446980357     1.007825032230
         H           -4.725057104836    -0.996242057491     0.010095980357     1.007825032230
         H           -4.071481104836     0.354539942509    -0.937278019643     1.007825032230
         H            0.091674895164    -1.462935057491     0.095909980357     1.007825032230
         H            0.871608895164     1.510546942509    -0.068872019643     1.007825032230
         H            4.167803895164     0.424445942509    -0.023456019643     1.007825032230

  Basis Set: AUG-CC-PVTZ
    Blend: AUG-CC-PVTZ
  Basis Set: (AUG-CC-PVTZ AUX)
    Blend: AUG-CC-PVTZ-JKFIT
	 Reference Energy          =    -456.6280747319533475 [Eh]
	 Singles Energy            =      -0.0000000000000000 [Eh]
	 Same-Spin Energy          =      -0.4481205651056207 [Eh]
	 Opposite-Spin Energy      =      -1.4086923076813396 [Eh]
	 Correlation Energy        =      -1.8568128727869602 [Eh]
	 Total Energy              =    -458.4848876047403223 [Eh]

	 ================> DF-SCS-MP2 Energies <==================
	-----------------------------------------------------------
	 SCS Same-Spin Scale       =       0.3333333333333333 [-]
	 SCS Opposite-Spin Scale   =       1.2000000000000000 [-]
	 SCS Same-Spin Energy      =      -0.1493735217018736 [Eh]
	 SCS Opposite-Spin Energy  =      -1.6904307692176075 [Eh]
	 SCS Correlation Energy    =      -1.8398042909194809 [Eh]
	 SCS Total Energy          =    -458.4678790228728076 [Eh]
	-----------------------------------------------------------

  Dipole Moment: [D]
     X:    -0.0835      Y:    -1.1826      Z:     0.0617     Total:     1.1871

*** Psi4 exiting successfully. Buy a developer a beer!
