                               Psi4 1.3.2 release

  ==> Input File <==

--------------------------------------------------------------------------
#psi4
#
memory 32 gb

molecule  {
0 1
  O       -1.6636540     1.3623100    -0.0826750
  O        3.3121757     0.8569807    -0.0387484
  O        2.6882855    -1.2935368     0.0821265
  C       -2.5713650    -0.8630400     0.0337620
  C       -1.4513780     0.1516300    -0.0098980
  C       -3.9526870    -0.2300600    -0.0211700
  C       -0.0615660    -0.3898680     0.0323710
  C        0.9984040     0.4317740    -0.0078830
  C        2.3702780    -0.1170190     0.0219370
  H       -2.4419680    -1.4628000     0.9443570
  H       -2.4189490    -1.5634100    -0.8003330
  H       -4.1001540     0.4487780     0.8215890
  H       -4.7285220    -0.9991160     0.0102380
  H       -4.0749460     0.3516660    -0.9371360
  H        0.0882100    -1.4658090     0.0960520
  H        0.8681440     1.5076730    -0.0687300
  H        4.1643390     0.4215720    -0.0233140
units angstrom
no_reorient  #important for SAPT in psi4, default
symmetry c1  #important for SAPT in psi4, default
}

set PROPERTIES_ORIGIN ["COM"]
properties('MP2/aug-cc-pvtz', properties = ['dipole'])
--------------------------------------------------------------------------

    Molecular point group: c1
  Charge       = 0
  Multiplicity = 1
  Basis Set: AUG-CC-PVTZ
    Blend: AUG-CC-PVTZ
  Basis Set: (AUG-CC-PVTZ AUX)
    Blend: AUG-CC-PVTZ-JKFIT

    Orbital Energies [Eh]
    ---------------------

    Doubly Occupied:

       1A    -20.622543     2A    -20.561772     3A    -20.559892
       4A    -11.405267     5A    -11.351007     6A    -11.278854
       7A    -11.277182     8A    -11.253238     9A    -11.225733
      10A     -1.474278    11A     -1.391639    12A     -1.365839
      13A     -1.110767    14A     -1.066562    15A     -0.959055
      16A     -0.889568    17A     -0.802529    18A     -0.748048
      19A     -0.720230    20A     -0.711818    21A     -0.662076
      22A     -0.644049    23A     -0.642328    24A     -0.638894
      25A     -0.607233    26A     -0.570991    27A     -0.540837
      28A     -0.540012    29A     -0.525065    30A     -0.500808
      31A     -0.495174    32A     -0.470537    33A     -0.436427
      34A     -0.405594

  @DF-RHF Final Energy:  -456.62946499694243

   => Energetics <=

    Nuclear Repulsion Energy =            413.3699343476079093
    One-Electron Energy =               -1443.0871014585450212
    Two-Electron Energy =                 573.0877021139947374
    Total Energy =                       -456.6294649969424881
  Basis Set: (AUG-CC-PVTZ AUX)
    Blend: AUG-CC-PVTZ-RI
    Molecular point group: c1

    Geometry (in Angstrom), charge = 0, multiplicity = 1:

       Center              X                  Y                   Z               Mass
    ------------   -----------------  -----------------  -----------------  -----------------
         O           -1.668373413645     1.363674306428    -0.082705728857    15.994914619570
         O            3.307456286355     0.858345006428    -0.038779128857    15.994914619570
         O            2.683566086355    -1.292172493572     0.082095771143    15.994914619570
         C           -2.576084413645    -0.861675693572     0.033731271143    12.000000000000
         C           -1.456097413645     0.152994306428    -0.009928728857    12.000000000000
         C           -3.957406413645    -0.228695693572    -0.021200728857    12.000000000000
         C           -0.066285413645    -0.388503693572     0.032340271143    12.000000000000
         C            0.993684586355     0.433138306428    -0.007913728857    12.000000000000
         C            2.365558586355    -0.115654693572     0.021906271143    12.000000000000
         H           -2.446687413645    -1.461435693572     0.944326271143     1.007825032230
         H           -2.423668413645    -1.562045693572    -0.800363728857     1.007825032230
         H           -4.104873413645     0.450142306428     0.821558271143     1.007825032230
         H           -4.733241413645    -0.997751693572     0.010207271143     1.007825032230
         H           -4.079665413645     0.353030306428    -0.937166728857     1.007825032230
         H            0.083490586355    -1.464444693572     0.096021271143     1.007825032230
         H            0.863424586355     1.509037306428    -0.068760728857     1.007825032230
         H            4.159619586355     0.422936306428    -0.023344728857     1.007825032230

  Basis Set: AUG-CC-PVTZ
    Blend: AUG-CC-PVTZ
  Basis Set: (AUG-CC-PVTZ AUX)
    Blend: AUG-CC-PVTZ-JKFIT
	 Reference Energy          =    -456.6294649969424313 [Eh]
	 Singles Energy            =      -0.0000000000000000 [Eh]
	 Same-Spin Energy          =      -0.4478082080079179 [Eh]
	 Opposite-Spin Energy      =      -1.4080982666637463 [Eh]
	 Correlation Energy        =      -1.8559064746716643 [Eh]
	 Total Energy              =    -458.4853714716140871 [Eh]

	 ================> DF-SCS-MP2 Energies <==================
	-----------------------------------------------------------
	 SCS Same-Spin Scale       =       0.3333333333333333 [-]
	 SCS Opposite-Spin Scale   =       1.2000000000000000 [-]
	 SCS Same-Spin Energy      =      -0.1492694026693059 [Eh]
	 SCS Opposite-Spin Energy  =      -1.6897179199964956 [Eh]
	 SCS Correlation Energy    =      -1.8389873226658016 [Eh]
	 SCS Total Energy          =    -458.4684523196082182 [Eh]
	-----------------------------------------------------------

  Dipole Moment: [D]
     X:    -0.3132      Y:    -1.1791      Z:     0.0618     Total:     1.2215

*** Psi4 exiting successfully. Buy a developer a beer!
