                               Psi4 1.4a3.dev225

  ==> Input File <==

--------------------------------------------------------------------------
#psi4
#
memory 32 gb

molecule  {
0 1
  O       -1.5457390    -1.4151030    -0.0000120
  O        3.4055420    -0.8324430     0.0000000
  O        2.7346890     1.3362110     0.0000030
  C       -2.4962220     0.7973420     0.0000070
  C       -1.3569730    -0.1975560    -0.0000120
  C       -3.8659970     0.1363490     0.0000100
  C        0.0231420     0.3709680    -0.0000240
  C        1.1002740    -0.4324720     0.0000170
  C        2.4972223     0.1092792     0.0000067
  H       -2.3684100     1.4519690    -0.8733630
  H       -2.3683970     1.4519470     0.8733920
  H       -3.9887950    -0.4970190    -0.8807080
  H       -4.6559460     0.8916380     0.0000190
  H       -3.9887860    -0.4970320     0.8807180
  H        0.1589340     1.4510060    -0.0000590
  H        0.9863010    -1.5124980     0.0000520
  H        4.2687480    -0.3687180    -0.0000090
units angstrom
no_reorient  #important for SAPT in psi4, default
symmetry c1  #important for SAPT in psi4, default
}

set PROPERTIES_ORIGIN ["COM"]
properties('MP2/aug-cc-pvtz', properties = ['dipole'])
--------------------------------------------------------------------------

    Molecular point group: c1
  Charge       = 0
  Multiplicity = 1
  Basis Set: AUG-CC-PVTZ
    Blend: AUG-CC-PVTZ
  Basis Set: (AUG-CC-PVTZ AUX)
    Blend: AUG-CC-PVTZ-JKFIT

    Orbital Energies [Eh]
    ---------------------

    Doubly Occupied:

       1A    -20.642739     2A    -20.558688     3A    -20.554621
       4A    -11.408291     5A    -11.348707     6A    -11.276150
       7A    -11.273255     8A    -11.251266     9A    -11.224103
      10A     -1.492617    11A     -1.388254    12A     -1.356069
      13A     -1.103517    14A     -1.063404    15A     -0.956590
      16A     -0.891529    17A     -0.807925    18A     -0.743982
      19A     -0.720364    20A     -0.718133    21A     -0.662004
      22A     -0.654351    23A     -0.639872    24A     -0.639751
      25A     -0.601401    26A     -0.563095    27A     -0.538622
      28A     -0.537847    29A     -0.523113    30A     -0.498395
      31A     -0.490316    32A     -0.466065    33A     -0.433724
      34A     -0.400243

  @DF-RHF Final Energy:  -456.62410241186421

   => Energetics <=

    Nuclear Repulsion Energy =            413.0174678380319619
    One-Electron Energy =               -1442.4251383101777719
    Two-Electron Energy =                 572.7835680602815955
    Total Energy =                       -456.6241024118642144
  Basis Set: (AUG-CC-PVTZ AUX)
    Blend: AUG-CC-PVTZ-RI
    Molecular point group: c1

    Geometry (in Angstrom), charge = 0, multiplicity = 1:

       Center              X                  Y                   Z               Mass
    ------------   -----------------  -----------------  -----------------  -----------------
         O           -1.641453230646    -1.393392634277    -0.000011646806    15.994914619570
         O            3.309827769354    -0.810732634277     0.000000353194    15.994914619570
         O            2.638974769354     1.357921365723     0.000003353194    15.994914619570
         C           -2.591936230646     0.819052365723     0.000007353194    12.000000000000
         C           -1.452687230646    -0.175845634277    -0.000011646806    12.000000000000
         C           -3.961711230646     0.158059365723     0.000010353194    12.000000000000
         C           -0.072572230646     0.392678365723    -0.000023646806    12.000000000000
         C            1.004559769354    -0.410761634277     0.000017353194    12.000000000000
         C            2.401508069354     0.130989565723     0.000007053194    12.000000000000
         H           -2.464124230646     1.473679365723    -0.873362646806     1.007825032230
         H           -2.464111230646     1.473657365723     0.873392353194     1.007825032230
         H           -4.084509230646    -0.475308634277    -0.880707646806     1.007825032230
         H           -4.751660230646     0.913348365723     0.000019353194     1.007825032230
         H           -4.084500230646    -0.475321634277     0.880718353194     1.007825032230
         H            0.063219769354     1.472716365723    -0.000058646806     1.007825032230
         H            0.890586769354    -1.490787634277     0.000052353194     1.007825032230
         H            4.173033769354    -0.347007634277    -0.000008646806     1.007825032230

  Basis Set: AUG-CC-PVTZ
    Blend: AUG-CC-PVTZ
  Basis Set: (AUG-CC-PVTZ AUX)
    Blend: AUG-CC-PVTZ-JKFIT
	 Reference Energy          =    -456.6241024118642144 [Eh]
	 Singles Energy            =      -0.0000000000000000 [Eh]
	 Same-Spin Energy          =      -0.4484984559383502 [Eh]
	 Opposite-Spin Energy      =      -1.4094275504895610 [Eh]
	 Correlation Energy        =      -1.8579260064279113 [Eh]
	 Total Energy              =    -458.4820284182921455 [Eh]

	 ================> DF-SCS-MP2 Energies <==================
	-----------------------------------------------------------
	 SCS Same-Spin Scale       =       0.3333333333333333 [-]
	 SCS Opposite-Spin Scale   =       1.2000000000000000 [-]
	 SCS Same-Spin Energy      =      -0.1494994853127834 [Eh]
	 SCS Opposite-Spin Energy  =      -1.6913130605874731 [Eh]
	 SCS Correlation Energy    =      -1.8408125459002564 [Eh]
	 SCS Total Energy          =    -458.4649149577644494 [Eh]
	-----------------------------------------------------------

  Dipole Moment: [D]
     X:     0.1707      Y:     0.8711      Z:     0.0000     Total:     0.8876

*** Psi4 exiting successfully. Buy a developer a beer!
