                               Psi4 1.4a3.dev225

  ==> Input File <==

--------------------------------------------------------------------------
#psi4
#
memory 32 gb

molecule  {
0 1
  O       -1.5457390    -1.4151030    -0.0000120
  O        3.4055420    -0.8324430     0.0000000
  O        2.7346890     1.3362110     0.0000030
  C       -2.4962220     0.7973420     0.0000070
  C       -1.3569730    -0.1975560    -0.0000120
  C       -3.8659970     0.1363490     0.0000100
  C        0.0231420     0.3709680    -0.0000240
  C        1.1002740    -0.4324720     0.0000170
  C        2.4625110     0.1452670     0.0000070
  H       -2.3684100     1.4519690    -0.8733630
  H       -2.3683970     1.4519470     0.8733920
  H       -3.9887950    -0.4970190    -0.8807080
  H       -4.6559460     0.8916380     0.0000190
  H       -3.9887860    -0.4970320     0.8807180
  H        0.1614289     1.4708498    -0.0000596
  H        0.9863010    -1.5124980     0.0000520
  H        4.2687480    -0.3687180    -0.0000090
units angstrom
no_reorient  #important for SAPT in psi4, default
symmetry c1  #important for SAPT in psi4, default
}

set PROPERTIES_ORIGIN ["COM"]
properties('MP2/aug-cc-pvtz', properties = ['dipole'])
--------------------------------------------------------------------------

    Molecular point group: c1
  Charge       = 0
  Multiplicity = 1
  Basis Set: AUG-CC-PVTZ
    Blend: AUG-CC-PVTZ
  Basis Set: (AUG-CC-PVTZ AUX)
    Blend: AUG-CC-PVTZ-JKFIT

    Orbital Energies [Eh]
    ---------------------

    Doubly Occupied:

       1A    -20.627939     2A    -20.561920     3A    -20.560949
       4A    -11.406385     5A    -11.350555     6A    -11.278753
       7A    -11.276203     8A    -11.252619     9A    -11.225142
      10A     -1.471049    11A     -1.390285    12A     -1.367310
      13A     -1.107670    14A     -1.065425    15A     -0.956497
      16A     -0.887269    17A     -0.798830    18A     -0.744369
      19A     -0.718270    20A     -0.711968    21A     -0.661086
      22A     -0.643487    23A     -0.640398    24A     -0.638674
      25A     -0.606159    26A     -0.567751    27A     -0.539981
      28A     -0.539104    29A     -0.524400    30A     -0.500938
      31A     -0.496089    32A     -0.471381    33A     -0.435530
      34A     -0.403728

  @DF-RHF Final Energy:  -456.62709762906854

   => Energetics <=

    Nuclear Repulsion Energy =            413.0654724334518733
    One-Electron Energy =               -1442.5289138716416346
    Two-Electron Energy =                 572.8363438091213311
    Total Energy =                       -456.6270976290685439
  Basis Set: (AUG-CC-PVTZ AUX)
    Blend: AUG-CC-PVTZ-RI
    Molecular point group: c1

    Geometry (in Angstrom), charge = 0, multiplicity = 1:

       Center              X                  Y                   Z               Mass
    ------------   -----------------  -----------------  -----------------  -----------------
         O           -1.638219886134    -1.396921428111    -0.000011670198    15.994914619570
         O            3.313061113866    -0.814261428111     0.000000329802    15.994914619570
         O            2.642208113866     1.354392571889     0.000003329802    15.994914619570
         C           -2.588702886134     0.815523571889     0.000007329802    12.000000000000
         C           -1.449453886134    -0.179374428111    -0.000011670198    12.000000000000
         C           -3.958477886134     0.154530571889     0.000010329802    12.000000000000
         C           -0.069338886134     0.389149571889    -0.000023670198    12.000000000000
         C            1.007793113866    -0.414290428111     0.000017329802    12.000000000000
         C            2.370030113866     0.163448571889     0.000007329802    12.000000000000
         H           -2.460890886134     1.470150571889    -0.873362670198     1.007825032230
         H           -2.460877886134     1.470128571889     0.873392329802     1.007825032230
         H           -4.081275886134    -0.478837428111    -0.880707670198     1.007825032230
         H           -4.748426886134     0.909819571889     0.000019329802     1.007825032230
         H           -4.081266886134    -0.478850428111     0.880718329802     1.007825032230
         H            0.068948013866     1.489031371889    -0.000059270198     1.007825032230
         H            0.893820113866    -1.494316428111     0.000052329802     1.007825032230
         H            4.176267113866    -0.350536428111    -0.000008670198     1.007825032230

  Basis Set: AUG-CC-PVTZ
    Blend: AUG-CC-PVTZ
  Basis Set: (AUG-CC-PVTZ AUX)
    Blend: AUG-CC-PVTZ-JKFIT
	 Reference Energy          =    -456.6270976290685439 [Eh]
	 Singles Energy            =      -0.0000000000000000 [Eh]
	 Same-Spin Energy          =      -0.4484336202430252 [Eh]
	 Opposite-Spin Energy      =      -1.4095646440871707 [Eh]
	 Correlation Energy        =      -1.8579982643301960 [Eh]
	 Total Energy              =    -458.4850958933987499 [Eh]

	 ================> DF-SCS-MP2 Energies <==================
	-----------------------------------------------------------
	 SCS Same-Spin Scale       =       0.3333333333333333 [-]
	 SCS Opposite-Spin Scale   =       1.2000000000000000 [-]
	 SCS Same-Spin Energy      =      -0.1494778734143417 [Eh]
	 SCS Opposite-Spin Energy  =      -1.6914775729046048 [Eh]
	 SCS Correlation Energy    =      -1.8409554463189466 [Eh]
	 SCS Total Energy          =    -458.4680530753875018 [Eh]
	-----------------------------------------------------------

  Dipole Moment: [D]
     X:    -0.1836      Y:     1.1784      Z:     0.0000     Total:     1.1926

*** Psi4 exiting successfully. Buy a developer a beer!
