                               Psi4 1.4a3.dev225

  ==> Input File <==

--------------------------------------------------------------------------
#psi4
#
memory 32 gb

molecule  {
0 1
  O       -1.5457390    -1.4151030    -0.0000120
  O        3.4055420    -0.8324430     0.0000000
  O        2.7346890     1.3362110     0.0000030
  C       -2.4962220     0.7973420     0.0000070
  C       -1.3569730    -0.1975560    -0.0000120
  C       -3.8659970     0.1363490     0.0000100
  C        0.0231420     0.3709680    -0.0000240
  C        1.0601954    -0.4025771     0.0000155
  C        2.4625110     0.1452670     0.0000070
  H       -2.3684100     1.4519690    -0.8733630
  H       -2.3683970     1.4519470     0.8733920
  H       -3.9887950    -0.4970190    -0.8807080
  H       -4.6559460     0.8916380     0.0000190
  H       -3.9887860    -0.4970320     0.8807180
  H        0.1589340     1.4510060    -0.0000590
  H        0.9863010    -1.5124980     0.0000520
  H        4.2687480    -0.3687180    -0.0000090
units angstrom
no_reorient  #important for SAPT in psi4, default
symmetry c1  #important for SAPT in psi4, default
}

set PROPERTIES_ORIGIN ["COM"]
properties('MP2/aug-cc-pvtz', properties = ['dipole'])
--------------------------------------------------------------------------

    Molecular point group: c1
  Charge       = 0
  Multiplicity = 1
  Basis Set: AUG-CC-PVTZ
    Blend: AUG-CC-PVTZ
  Basis Set: (AUG-CC-PVTZ AUX)
    Blend: AUG-CC-PVTZ-JKFIT

    Orbital Energies [Eh]
    ---------------------

    Doubly Occupied:

       1A    -20.630126     2A    -20.562488     3A    -20.559694
       4A    -11.407902     5A    -11.349399     6A    -11.273481
       7A    -11.266360     8A    -11.251975     9A    -11.224639
      10A     -1.471570    11A     -1.389317    12A     -1.368082
      13A     -1.116117    14A     -1.065360    15A     -0.951487
      16A     -0.888112    17A     -0.798916    18A     -0.743996
      19A     -0.717646    20A     -0.713313    21A     -0.664855
      22A     -0.643390    23A     -0.640360    24A     -0.638463
      25A     -0.608035    26A     -0.562069    27A     -0.540386
      28A     -0.539202    29A     -0.523774    30A     -0.501543
      31A     -0.495927    32A     -0.468767    33A     -0.434285
      34A     -0.413600

  @DF-RHF Final Energy:  -456.62651841452856

   => Energetics <=

    Nuclear Repulsion Energy =            413.5592137881872077
    One-Electron Energy =               -1443.5221884753377708
    Two-Electron Energy =                 573.3364562726220583
    Total Energy =                       -456.6265184145285048
  Basis Set: (AUG-CC-PVTZ AUX)
    Blend: AUG-CC-PVTZ-RI
    Molecular point group: c1

    Geometry (in Angstrom), charge = 0, multiplicity = 1:

       Center              X                  Y                   Z               Mass
    ------------   -----------------  -----------------  -----------------  -----------------
         O           -1.634444269967    -1.399566853707    -0.000011534347    15.994914619570
         O            3.316836730033    -0.816906853707     0.000000465653    15.994914619570
         O            2.645983730033     1.351747146293     0.000003465653    15.994914619570
         C           -2.584927269967     0.812878146293     0.000007465653    12.000000000000
         C           -1.445678269967    -0.182019853707    -0.000011534347    12.000000000000
         C           -3.954702269967     0.151885146293     0.000010465653    12.000000000000
         C           -0.065563269967     0.386504146293    -0.000023534347    12.000000000000
         C            0.971490130033    -0.387040953707     0.000015965653    12.000000000000
         C            2.373805730033     0.160803146293     0.000007465653    12.000000000000
         H           -2.457115269967     1.467505146293    -0.873362534347     1.007825032230
         H           -2.457102269967     1.467483146293     0.873392465653     1.007825032230
         H           -4.077500269967    -0.481482853707    -0.880707534347     1.007825032230
         H           -4.744651269967     0.907174146293     0.000019465653     1.007825032230
         H           -4.077491269967    -0.481495853707     0.880718465653     1.007825032230
         H            0.070228730033     1.466542146293    -0.000058534347     1.007825032230
         H            0.897595730033    -1.496961853707     0.000052465653     1.007825032230
         H            4.180042730033    -0.353181853707    -0.000008534347     1.007825032230

  Basis Set: AUG-CC-PVTZ
    Blend: AUG-CC-PVTZ
  Basis Set: (AUG-CC-PVTZ AUX)
    Blend: AUG-CC-PVTZ-JKFIT
	 Reference Energy          =    -456.6265184145285616 [Eh]
	 Singles Energy            =      -0.0000000000000000 [Eh]
	 Same-Spin Energy          =      -0.4477196269051380 [Eh]
	 Opposite-Spin Energy      =      -1.4079946604474247 [Eh]
	 Correlation Energy        =      -1.8557142873525627 [Eh]
	 Total Energy              =    -458.4822327018811166 [Eh]

	 ================> DF-SCS-MP2 Energies <==================
	-----------------------------------------------------------
	 SCS Same-Spin Scale       =       0.3333333333333333 [-]
	 SCS Opposite-Spin Scale   =       1.2000000000000000 [-]
	 SCS Same-Spin Energy      =      -0.1492398756350460 [Eh]
	 SCS Opposite-Spin Energy  =      -1.6895935925369097 [Eh]
	 SCS Correlation Energy    =      -1.8388334681719556 [Eh]
	 SCS Total Energy          =    -458.4653518827005314 [Eh]
	-----------------------------------------------------------

  Dipole Moment: [D]
     X:    -0.1160      Y:     1.1889      Z:     0.0000     Total:     1.1945

*** Psi4 exiting successfully. Buy a developer a beer!
