                               Psi4 1.3.2 release

  ==> Input File <==

--------------------------------------------------------------------------
#psi4
#
memory 32 gb

molecule  {
0 1
  O       -1.6424562     1.3658408    -0.0825959
  O        3.2950020     0.8732560    -0.0394660
  O        2.6676780    -1.2988900     0.0825990
  C       -2.5534731    -0.8823875     0.0351187
  C       -1.4513780     0.1516300    -0.0098980
  C       -3.9526870    -0.2300600    -0.0211700
  C       -0.0615660    -0.3898680     0.0323710
  C        0.9984040     0.4317740    -0.0078830
  C        2.3702780    -0.1170190     0.0219370
  H       -2.4419680    -1.4628000     0.9443570
  H       -2.4189490    -1.5634100    -0.8003330
  H       -4.1001540     0.4487780     0.8215890
  H       -4.7285220    -0.9991160     0.0102380
  H       -4.0749460     0.3516660    -0.9371360
  H        0.0882100    -1.4658090     0.0960520
  H        0.8681440     1.5076730    -0.0687300
  H        4.1643390     0.4215720    -0.0233140
units angstrom
no_reorient  #important for SAPT in psi4, default
symmetry c1  #important for SAPT in psi4, default
}

set PROPERTIES_ORIGIN ["COM"]
properties('MP2/aug-cc-pvtz', properties = ['dipole'])
--------------------------------------------------------------------------

    Molecular point group: c1
  Charge       = 0
  Multiplicity = 1
  Basis Set: AUG-CC-PVTZ
    Blend: AUG-CC-PVTZ
  Basis Set: (AUG-CC-PVTZ AUX)
    Blend: AUG-CC-PVTZ-JKFIT

    Orbital Energies [Eh]
    ---------------------

    Doubly Occupied:

       1A    -20.627004     2A    -20.561668     3A    -20.560635
       4A    -11.404682     5A    -11.350389     6A    -11.275461
       7A    -11.273764     8A    -11.252286     9A    -11.226863
      10A     -1.471601    11A     -1.391036    12A     -1.366848
      13A     -1.108263    14A     -1.064109    15A     -0.955892
      16A     -0.887876    17A     -0.799682    18A     -0.746410
      19A     -0.718993    20A     -0.712290    21A     -0.660230
      22A     -0.645812    23A     -0.641337    24A     -0.639673
      25A     -0.606057    26A     -0.569395    27A     -0.540470
      28A     -0.536268    29A     -0.522363    30A     -0.505207
      31A     -0.496845    32A     -0.470421    33A     -0.435757
      34A     -0.403165

  @DF-RHF Final Energy:  -456.62773722160154

   => Energetics <=

    Nuclear Repulsion Energy =            413.4139209271775712
    One-Electron Energy =               -1443.2258159539017015
    Two-Electron Energy =                 573.1841578051227089
    Total Energy =                       -456.6277372216014783
  Basis Set: (AUG-CC-PVTZ AUX)
    Blend: AUG-CC-PVTZ-RI
    Molecular point group: c1

    Geometry (in Angstrom), charge = 0, multiplicity = 1:

       Center              X                  Y                   Z               Mass
    ------------   -----------------  -----------------  -----------------  -----------------
         O           -1.646780859131     1.367212893380    -0.082733036719    15.994914619570
         O            3.290677340869     0.874628093380    -0.039603136719    15.994914619570
         O            2.663353340869    -1.297517906620     0.082461863281    15.994914619570
         C           -2.557797759131    -0.881015406620     0.034981563281    12.000000000000
         C           -1.455702659131     0.153002093380    -0.010035136719    12.000000000000
         C           -3.957011659131    -0.228687906620    -0.021307136719    12.000000000000
         C           -0.065890659131    -0.388495906620     0.032233863281    12.000000000000
         C            0.994079340869     0.433146093380    -0.008020136719    12.000000000000
         C            2.365953340869    -0.115646906620     0.021799863281    12.000000000000
         H           -2.446292659131    -1.461427906620     0.944219863281     1.007825032230
         H           -2.423273659131    -1.562037906620    -0.800470136719     1.007825032230
         H           -4.104478659131     0.450150093380     0.821451863281     1.007825032230
         H           -4.732846659131    -0.997743906620     0.010100863281     1.007825032230
         H           -4.079270659131     0.353038093380    -0.937273136719     1.007825032230
         H            0.083885340869    -1.464436906620     0.095914863281     1.007825032230
         H            0.863819340869     1.509045093380    -0.068867136719     1.007825032230
         H            4.160014340869     0.422944093380    -0.023451136719     1.007825032230

  Basis Set: AUG-CC-PVTZ
    Blend: AUG-CC-PVTZ
  Basis Set: (AUG-CC-PVTZ AUX)
    Blend: AUG-CC-PVTZ-JKFIT
	 Reference Energy          =    -456.6277372216015351 [Eh]
	 Singles Energy            =      -0.0000000000000000 [Eh]
	 Same-Spin Energy          =      -0.4481326238527188 [Eh]
	 Opposite-Spin Energy      =      -1.4090176221736446 [Eh]
	 Correlation Energy        =      -1.8571502460263634 [Eh]
	 Total Energy              =    -458.4848874676279138 [Eh]

	 ================> DF-SCS-MP2 Energies <==================
	-----------------------------------------------------------
	 SCS Same-Spin Scale       =       0.3333333333333333 [-]
	 SCS Opposite-Spin Scale   =       1.2000000000000000 [-]
	 SCS Same-Spin Energy      =      -0.1493775412842396 [Eh]
	 SCS Opposite-Spin Energy  =      -1.6908211466083733 [Eh]
	 SCS Correlation Energy    =      -1.8401986878926129 [Eh]
	 SCS Total Energy          =    -458.4679359094941447 [Eh]
	-----------------------------------------------------------

  Dipole Moment: [D]
     X:    -0.2373      Y:    -1.1883      Z:     0.0613     Total:     1.2133

*** Psi4 exiting successfully. Buy a developer a beer!
