                               Psi4 1.3.2 release

  ==> Input File <==

--------------------------------------------------------------------------
#psi4
#
memory 32 gb

molecule  {
0 1
  O       -1.6636540     1.3623100    -0.0826750
  O        3.2950020     0.8732560    -0.0394660
  O        2.6676780    -1.2988900     0.0825990
  C       -2.5713650    -0.8630400     0.0337620
  C       -1.4513780     0.1516300    -0.0098980
  C       -3.9526870    -0.2300600    -0.0211700
  C       -0.0615660    -0.3898680     0.0323710
  C        0.9984040     0.4317740    -0.0078830
  C        2.3531043    -0.1007434     0.0212251
  H       -2.4419680    -1.4628000     0.9443570
  H       -2.4189490    -1.5634100    -0.8003330
  H       -4.1001540     0.4487780     0.8215890
  H       -4.7285220    -0.9991160     0.0102380
  H       -4.0749460     0.3516660    -0.9371360
  H        0.0882100    -1.4658090     0.0960520
  H        0.8681440     1.5076730    -0.0687300
  H        4.1720930     0.4367880    -0.0241982
units angstrom
no_reorient  #important for SAPT in psi4, default
symmetry c1  #important for SAPT in psi4, default
}

set PROPERTIES_ORIGIN ["COM"]
properties('MP2/aug-cc-pvtz', properties = ['dipole'])
--------------------------------------------------------------------------

    Molecular point group: c1
  Charge       = 0
  Multiplicity = 1
  Basis Set: AUG-CC-PVTZ
    Blend: AUG-CC-PVTZ
  Basis Set: (AUG-CC-PVTZ AUX)
    Blend: AUG-CC-PVTZ-JKFIT

    Orbital Energies [Eh]
    ---------------------

    Doubly Occupied:

       1A    -20.626767     2A    -20.562627     3A    -20.557448
       4A    -11.406036     5A    -11.351559     6A    -11.279700
       7A    -11.275786     8A    -11.253628     9A    -11.226029
      10A     -1.466857    11A     -1.392348    12A     -1.355051
      13A     -1.112880    14A     -1.067403    15A     -0.961847
      16A     -0.890037    17A     -0.801227    18A     -0.748344
      19A     -0.720425    20A     -0.708201    21A     -0.660909
      22A     -0.643800    23A     -0.642452    24A     -0.636769
      25A     -0.604432    26A     -0.569483    27A     -0.541255
      28A     -0.540319    29A     -0.525401    30A     -0.500642
      31A     -0.491523    32A     -0.468690    33A     -0.437213
      34A     -0.404967

  @DF-RHF Final Energy:  -456.62532454530640

   => Energetics <=

    Nuclear Repulsion Energy =            413.4304409986671089
    One-Electron Energy =               -1443.2474196307771308
    Two-Electron Energy =                 573.1916540868036236
    Total Energy =                       -456.6253245453063982
  Basis Set: (AUG-CC-PVTZ AUX)
    Blend: AUG-CC-PVTZ-RI
    Molecular point group: c1

    Geometry (in Angstrom), charge = 0, multiplicity = 1:

       Center              X                  Y                   Z               Mass
    ------------   -----------------  -----------------  -----------------  -----------------
         O           -1.662105600764     1.360664948247    -0.082601437178    15.994914619570
         O            3.296550399236     0.871610948247    -0.039392437178    15.994914619570
         O            2.669226399236    -1.300535051753     0.082672562822    15.994914619570
         C           -2.569816600764    -0.864685051753     0.033835562822    12.000000000000
         C           -1.449829600764     0.149984948247    -0.009824437178    12.000000000000
         C           -3.951138600764    -0.231705051753    -0.021096437178    12.000000000000
         C           -0.060017600764    -0.391513051753     0.032444562822    12.000000000000
         C            0.999952399236     0.430128948247    -0.007809437178    12.000000000000
         C            2.354652699236    -0.102388451753     0.021298662822    12.000000000000
         H           -2.440419600764    -1.464445051753     0.944430562822     1.007825032230
         H           -2.417400600764    -1.565055051753    -0.800259437178     1.007825032230
         H           -4.098605600764     0.447132948247     0.821662562822     1.007825032230
         H           -4.726973600764    -1.000761051753     0.010311562822     1.007825032230
         H           -4.073397600764     0.350020948247    -0.937062437178     1.007825032230
         H            0.089758399236    -1.467454051753     0.096125562822     1.007825032230
         H            0.869692399236     1.506027948247    -0.068656437178     1.007825032230
         H            4.173641399236     0.435142948247    -0.024124637178     1.007825032230

  Basis Set: AUG-CC-PVTZ
    Blend: AUG-CC-PVTZ
  Basis Set: (AUG-CC-PVTZ AUX)
    Blend: AUG-CC-PVTZ-JKFIT
	 Reference Energy          =    -456.6253245453063982 [Eh]
	 Singles Energy            =      -0.0000000000000000 [Eh]
	 Same-Spin Energy          =      -0.4488188410140221 [Eh]
	 Opposite-Spin Energy      =      -1.4101571787641849 [Eh]
	 Correlation Energy        =      -1.8589760197782070 [Eh]
	 Total Energy              =    -458.4843005650845953 [Eh]

	 ================> DF-SCS-MP2 Energies <==================
	-----------------------------------------------------------
	 SCS Same-Spin Scale       =       0.3333333333333333 [-]
	 SCS Opposite-Spin Scale   =       1.2000000000000000 [-]
	 SCS Same-Spin Energy      =      -0.1496062803380074 [Eh]
	 SCS Opposite-Spin Energy  =      -1.6921886145170217 [Eh]
	 SCS Correlation Energy    =      -1.8417948948550291 [Eh]
	 SCS Total Energy          =    -458.4671194401614116 [Eh]
	-----------------------------------------------------------

  Dipole Moment: [D]
     X:    -0.2950      Y:    -1.0817      Z:     0.0557     Total:     1.1226

*** Psi4 exiting successfully. Buy a developer a beer!
