                               Psi4 1.3.2 release

  ==> Input File <==

--------------------------------------------------------------------------
#psi4
#
memory 32 gb

molecule  {
0 1
  O       -1.6636540     1.3623100    -0.0826750
  O        3.2950020     0.8732560    -0.0394660
  O        2.6676780    -1.2988900     0.0825990
  C       -2.5713650    -0.8630400     0.0337620
  C       -1.4513780     0.1516300    -0.0098980
  C       -3.9526870    -0.2300600    -0.0211700
  C       -0.0615660    -0.3898680     0.0323710
  C        0.9984040     0.4317740    -0.0078830
  C        2.5559335    -0.1912871     0.0259725
  H       -2.4419680    -1.4628000     0.9443570
  H       -2.4189490    -1.5634100    -0.8003330
  H       -4.1001540     0.4487780     0.8215890
  H       -4.7285220    -0.9991160     0.0102380
  H       -4.0749460     0.3516660    -0.9371360
  H        0.0882100    -1.4658090     0.0960520
  H        0.8681440     1.5076730    -0.0687300
  H        4.1643390     0.4215720    -0.0233140
units angstrom
no_reorient  #important for SAPT in psi4, default
symmetry c1  #important for SAPT in psi4, default
}

set PROPERTIES_ORIGIN ["COM"]
properties('MP2/aug-cc-pvtz', properties = ['dipole'])
--------------------------------------------------------------------------

    Molecular point group: c1
  Charge       = 0
  Multiplicity = 1
  Basis Set: AUG-CC-PVTZ
    Blend: AUG-CC-PVTZ
  Basis Set: (AUG-CC-PVTZ AUX)
    Blend: AUG-CC-PVTZ-JKFIT

    Orbital Energies [Eh]
    ---------------------

    Doubly Occupied:

       1A    -20.653860     2A    -20.583104     3A    -20.542905
       4A    -11.408846     5A    -11.334786     6A    -11.263648
       7A    -11.247891     8A    -11.241581     9A    -11.216877
      10A     -1.534181    11A     -1.452309    12A     -1.374410
      13A     -1.079256    14A     -1.048278    15A     -0.927141
      16A     -0.876826    17A     -0.797721    18A     -0.755281
      19A     -0.728203    20A     -0.722904    21A     -0.689095
      22A     -0.672178    23A     -0.631071    24A     -0.626484
      25A     -0.610704    26A     -0.563497    27A     -0.542144
      28A     -0.529667    29A     -0.527629    30A     -0.515091
      31A     -0.487990    32A     -0.450155    33A     -0.415815
      34A     -0.386009

  @DF-RHF Final Energy:  -456.58966004935269

   => Energetics <=

    Nuclear Repulsion Energy =            413.4209019086616195
    One-Electron Energy =               -1443.1460532535672883
    Two-Electron Energy =                 573.1354912955530381
    Total Energy =                       -456.5896600493526876
  Basis Set: (AUG-CC-PVTZ AUX)
    Blend: AUG-CC-PVTZ-RI
    Molecular point group: c1

    Geometry (in Angstrom), charge = 0, multiplicity = 1:

       Center              X                  Y                   Z               Mass
    ------------   -----------------  -----------------  -----------------  -----------------
         O           -1.681052778008     1.369270042505    -0.083053300661    15.994914619570
         O            3.277603221992     0.880216042505    -0.039844300661    15.994914619570
         O            2.650279221992    -1.291929957495     0.082220699339    15.994914619570
         C           -2.588763778008    -0.856079957495     0.033383699339    12.000000000000
         C           -1.468776778008     0.158590042505    -0.010276300661    12.000000000000
         C           -3.970085778008    -0.223099957495    -0.021548300661    12.000000000000
         C           -0.078964778008    -0.382907957495     0.031992699339    12.000000000000
         C            0.981005221992     0.438734042505    -0.008261300661    12.000000000000
         C            2.538534721992    -0.184327057495     0.025594199339    12.000000000000
         H           -2.459366778008    -1.455839957495     0.943978699339     1.007825032230
         H           -2.436347778008    -1.556449957495    -0.800711300661     1.007825032230
         H           -4.117552778008     0.455738042505     0.821210699339     1.007825032230
         H           -4.745920778008    -0.992155957495     0.009859699339     1.007825032230
         H           -4.092344778008     0.358626042505    -0.937514300661     1.007825032230
         H            0.070811221992    -1.458848957495     0.095673699339     1.007825032230
         H            0.850745221992     1.514633042505    -0.069108300661     1.007825032230
         H            4.146940221992     0.428532042505    -0.023692300661     1.007825032230

  Basis Set: AUG-CC-PVTZ
    Blend: AUG-CC-PVTZ
  Basis Set: (AUG-CC-PVTZ AUX)
    Blend: AUG-CC-PVTZ-JKFIT
	 Reference Energy          =    -456.5896600493526876 [Eh]
	 Singles Energy            =      -0.0000000000000000 [Eh]
	 Same-Spin Energy          =      -0.4463888611102420 [Eh]
	 Opposite-Spin Energy      =      -1.4047576891490046 [Eh]
	 Correlation Energy        =      -1.8511465502592466 [Eh]
	 Total Energy              =    -458.4408065996119603 [Eh]

	 ================> DF-SCS-MP2 Energies <==================
	-----------------------------------------------------------
	 SCS Same-Spin Scale       =       0.3333333333333333 [-]
	 SCS Opposite-Spin Scale   =       1.2000000000000000 [-]
	 SCS Same-Spin Energy      =      -0.1487962870367473 [Eh]
	 SCS Opposite-Spin Energy  =      -1.6857092269788054 [Eh]
	 SCS Correlation Energy    =      -1.8345055140155528 [Eh]
	 SCS Total Energy          =    -458.4241655633682626 [Eh]
	-----------------------------------------------------------

  Dipole Moment: [D]
     X:     1.5761      Y:    -1.5119      Z:     0.0808     Total:     2.1856

*** Psi4 exiting successfully. Buy a developer a beer!
