                               Psi4 1.4a3.dev225

  ==> Input File <==

--------------------------------------------------------------------------
#psi4
#
memory 32 gb

molecule  {
0 1
  O       -1.5457390    -1.4151030    -0.0000120
  O        3.4055420    -0.8324430     0.0000000
  O        2.7346890     1.3362110     0.0000030
  C       -2.4962220     0.7973420     0.0000070
  C       -1.3569730    -0.1975560    -0.0000120
  C       -3.8659970     0.1363490     0.0000100
  C        0.0416344     0.3785858    -0.0000242
  C        1.1002740    -0.4324720     0.0000170
  C        2.4625110     0.1452670     0.0000070
  H       -2.3684100     1.4519690    -0.8733630
  H       -2.3683970     1.4519470     0.8733920
  H       -3.9887950    -0.4970190    -0.8807080
  H       -4.6559460     0.8916380     0.0000190
  H       -3.9887860    -0.4970320     0.8807180
  H        0.1589340     1.4510060    -0.0000590
  H        0.9863010    -1.5124980     0.0000520
  H        4.2687480    -0.3687180    -0.0000090
units angstrom
no_reorient  #important for SAPT in psi4, default
symmetry c1  #important for SAPT in psi4, default
}

set PROPERTIES_ORIGIN ["COM"]
properties('MP2/aug-cc-pvtz', properties = ['dipole'])
--------------------------------------------------------------------------

    Molecular point group: c1
  Charge       = 0
  Multiplicity = 1
  Basis Set: AUG-CC-PVTZ
    Blend: AUG-CC-PVTZ
  Basis Set: (AUG-CC-PVTZ AUX)
    Blend: AUG-CC-PVTZ-JKFIT

    Orbital Energies [Eh]
    ---------------------

    Doubly Occupied:

       1A    -20.627294     2A    -20.561324     3A    -20.561134
       4A    -11.405410     5A    -11.351753     6A    -11.275867
       7A    -11.273639     8A    -11.253075     9A    -11.225440
      10A     -1.470428    11A     -1.390013    12A     -1.366712
      13A     -1.109180    14A     -1.065839    15A     -0.954084
      16A     -0.887597    17A     -0.797185    18A     -0.748085
      19A     -0.718031    20A     -0.712581    21A     -0.659483
      22A     -0.643275    23A     -0.640527    24A     -0.638436
      25A     -0.607045    26A     -0.571960    27A     -0.539747
      28A     -0.539493    29A     -0.524412    30A     -0.500926
      31A     -0.495916    32A     -0.470639    33A     -0.434197
      34A     -0.405909

  @DF-RHF Final Energy:  -456.62815762237966

   => Energetics <=

    Nuclear Repulsion Energy =            413.1029354376326523
    One-Electron Energy =               -1442.6089155208837838
    Two-Electron Energy =                 572.8778224608715846
    Total Energy =                       -456.6281576223796037
  Basis Set: (AUG-CC-PVTZ AUX)
    Blend: AUG-CC-PVTZ-RI
    Molecular point group: c1

    Geometry (in Angstrom), charge = 0, multiplicity = 1:

       Center              X                  Y                   Z               Mass
    ------------   -----------------  -----------------  -----------------  -----------------
         O           -1.639933270967    -1.397479147774    -0.000011656177    15.994914619570
         O            3.311347729033    -0.814819147774     0.000000343823    15.994914619570
         O            2.640494729033     1.353834852226     0.000003343823    15.994914619570
         C           -2.590416270967     0.814965852226     0.000007343823    12.000000000000
         C           -1.451167270967    -0.179932147774    -0.000011656177    12.000000000000
         C           -3.960191270967     0.153972852226     0.000010343823    12.000000000000
         C           -0.052559870967     0.396209652226    -0.000023856177    12.000000000000
         C            1.006079729033    -0.414848147774     0.000017343823    12.000000000000
         C            2.368316729033     0.162890852226     0.000007343823    12.000000000000
         H           -2.462604270967     1.469592852226    -0.873362656177     1.007825032230
         H           -2.462591270967     1.469570852226     0.873392343823     1.007825032230
         H           -4.082989270967    -0.479395147774    -0.880707656177     1.007825032230
         H           -4.750140270967     0.909261852226     0.000019343823     1.007825032230
         H           -4.082980270967    -0.479408147774     0.880718343823     1.007825032230
         H            0.064739729033     1.468629852226    -0.000058656177     1.007825032230
         H            0.892106729033    -1.494874147774     0.000052343823     1.007825032230
         H            4.174553729033    -0.351094147774    -0.000008656177     1.007825032230

  Basis Set: AUG-CC-PVTZ
    Blend: AUG-CC-PVTZ
  Basis Set: (AUG-CC-PVTZ AUX)
    Blend: AUG-CC-PVTZ-JKFIT
	 Reference Energy          =    -456.6281576223796606 [Eh]
	 Singles Energy            =      -0.0000000000000000 [Eh]
	 Same-Spin Energy          =      -0.4480931206920981 [Eh]
	 Opposite-Spin Energy      =      -1.4088964298897975 [Eh]
	 Correlation Energy        =      -1.8569895505818956 [Eh]
	 Total Energy              =    -458.4851471729615469 [Eh]

	 ================> DF-SCS-MP2 Energies <==================
	-----------------------------------------------------------
	 SCS Same-Spin Scale       =       0.3333333333333333 [-]
	 SCS Opposite-Spin Scale   =       1.2000000000000000 [-]
	 SCS Same-Spin Energy      =      -0.1493643735640327 [Eh]
	 SCS Opposite-Spin Energy  =      -1.6906757158677570 [Eh]
	 SCS Correlation Energy    =      -1.8400400894317896 [Eh]
	 SCS Total Energy          =    -458.4681977118114560 [Eh]
	-----------------------------------------------------------

  Dipole Moment: [D]
     X:    -0.2360      Y:     1.1781      Z:     0.0000     Total:     1.2015

*** Psi4 exiting successfully. Buy a developer a beer!
