                               Psi4 1.3.2 release

  ==> Input File <==

--------------------------------------------------------------------------
#psi4
#
memory 32 gb

molecule  {
0 1
  O       -1.6636540     1.3623100    -0.0826750
  O        3.2950020     0.8732560    -0.0394660
  O        2.6676780    -1.2988900     0.0825990
  C       -2.5713650    -0.8630400     0.0337620
  C       -1.4513780     0.1516300    -0.0098980
  C       -3.9526870    -0.2300600    -0.0211700
  C       -0.1547061    -0.3535788     0.0295383
  C        0.9984040     0.4317740    -0.0078830
  C        2.3702780    -0.1170190     0.0219370
  H       -2.4419680    -1.4628000     0.9443570
  H       -2.4189490    -1.5634100    -0.8003330
  H       -4.1001540     0.4487780     0.8215890
  H       -4.7285220    -0.9991160     0.0102380
  H       -4.0749460     0.3516660    -0.9371360
  H        0.0882100    -1.4658090     0.0960520
  H        0.8681440     1.5076730    -0.0687300
  H        4.1643390     0.4215720    -0.0233140
units angstrom
no_reorient  #important for SAPT in psi4, default
symmetry c1  #important for SAPT in psi4, default
}

set PROPERTIES_ORIGIN ["COM"]
properties('MP2/aug-cc-pvtz', properties = ['dipole'])
--------------------------------------------------------------------------

    Molecular point group: c1
  Charge       = 0
  Multiplicity = 1
  Basis Set: AUG-CC-PVTZ
    Blend: AUG-CC-PVTZ
  Basis Set: (AUG-CC-PVTZ AUX)
    Blend: AUG-CC-PVTZ-JKFIT

    Orbital Energies [Eh]
    ---------------------

    Doubly Occupied:

       1A    -20.631340     2A    -20.566216     3A    -20.557585
       4A    -11.411028     5A    -11.340787     6A    -11.289718
       7A    -11.280458     8A    -11.249904     9A    -11.223425
      10A     -1.476016    11A     -1.391325    12A     -1.371329
      13A     -1.108017    14A     -1.062915    15A     -0.972985
      16A     -0.886261    17A     -0.808913    18A     -0.741185
      19A     -0.719630    20A     -0.712981    21A     -0.669755
      22A     -0.646107    23A     -0.641153    24A     -0.639871
      25A     -0.606973    26A     -0.559475    27A     -0.542630
      28A     -0.531317    29A     -0.523710    30A     -0.501847
      31A     -0.496490    32A     -0.475741    33A     -0.439370
      34A     -0.393052

  @DF-RHF Final Energy:  -456.61126376321050

   => Energetics <=

    Nuclear Repulsion Energy =            413.8627593007928454
    One-Electron Energy =               -1444.0090363124522810
    Two-Electron Energy =                 573.5350132484491041
    Total Energy =                       -456.6112637632104452
  Basis Set: (AUG-CC-PVTZ AUX)
    Blend: AUG-CC-PVTZ-RI
    Molecular point group: c1

    Geometry (in Angstrom), charge = 0, multiplicity = 1:

       Center              X                  Y                   Z               Mass
    ------------   -----------------  -----------------  -----------------  -----------------
         O           -1.654925354413     1.358909127883    -0.082409644984    15.994914619570
         O            3.303730645587     0.869855127883    -0.039200644984    15.994914619570
         O            2.676406645587    -1.302290872117     0.082864355016    15.994914619570
         C           -2.562636354413    -0.866440872117     0.034027355016    12.000000000000
         C           -1.442649354413     0.148229127883    -0.009632644984    12.000000000000
         C           -3.943958354413    -0.233460872117    -0.020904644984    12.000000000000
         C           -0.145977454413    -0.356979672117     0.029803655016    12.000000000000
         C            1.007132645587     0.428373127883    -0.007617644984    12.000000000000
         C            2.379006645587    -0.120419872117     0.022202355016    12.000000000000
         H           -2.433239354413    -1.466200872117     0.944622355016     1.007825032230
         H           -2.410220354413    -1.566810872117    -0.800067644984     1.007825032230
         H           -4.091425354413     0.445377127883     0.821854355016     1.007825032230
         H           -4.719793354413    -1.002516872117     0.010503355016     1.007825032230
         H           -4.066217354413     0.348265127883    -0.936870644984     1.007825032230
         H            0.096938645587    -1.469209872117     0.096317355016     1.007825032230
         H            0.876872645587     1.504272127883    -0.068464644984     1.007825032230
         H            4.173067645587     0.418171127883    -0.023048644984     1.007825032230

  Basis Set: AUG-CC-PVTZ
    Blend: AUG-CC-PVTZ
  Basis Set: (AUG-CC-PVTZ AUX)
    Blend: AUG-CC-PVTZ-JKFIT
	 Reference Energy          =    -456.6112637632105020 [Eh]
	 Singles Energy            =      -0.0000000000000000 [Eh]
	 Same-Spin Energy          =      -0.4503717985527624 [Eh]
	 Opposite-Spin Energy      =      -1.4129151909880049 [Eh]
	 Correlation Energy        =      -1.8632869895407673 [Eh]
	 Total Energy              =    -458.4745507527512700 [Eh]

	 ================> DF-SCS-MP2 Energies <==================
	-----------------------------------------------------------
	 SCS Same-Spin Scale       =       0.3333333333333333 [-]
	 SCS Opposite-Spin Scale   =       1.2000000000000000 [-]
	 SCS Same-Spin Energy      =      -0.1501239328509208 [Eh]
	 SCS Opposite-Spin Energy  =      -1.6954982291856058 [Eh]
	 SCS Correlation Energy    =      -1.8456221620365265 [Eh]
	 SCS Total Energy          =    -458.4568859252470361 [Eh]
	-----------------------------------------------------------

  Dipole Moment: [D]
     X:     0.0999      Y:    -1.1735      Z:     0.0625     Total:     1.1794

*** Psi4 exiting successfully. Buy a developer a beer!
