                               Psi4 1.3.2 release

  ==> Input File <==

--------------------------------------------------------------------------
#psi4
#
memory 32 gb

molecule  {
0 1
  O       -1.6636540     1.3623100    -0.0826750
  O        3.2950020     0.8732560    -0.0394660
  O        2.6676780    -1.2988900     0.0825990
  C       -2.5713650    -0.8630400     0.0337620
  C       -1.4778933     0.0782612    -0.0057900
  C       -3.9526870    -0.2300600    -0.0211700
  C       -0.0615660    -0.3898680     0.0323710
  C        1.0400011     0.3752862    -0.0042528
  C        2.3702780    -0.1170190     0.0219370
  H       -2.4419680    -1.4628000     0.9443570
  H       -2.4189490    -1.5634100    -0.8003330
  H       -4.1001540     0.4487780     0.8215890
  H       -4.7285220    -0.9991160     0.0102380
  H       -4.0749460     0.3516660    -0.9371360
  H        0.0882100    -1.4658090     0.0960520
  H        0.8681440     1.5076730    -0.0687300
  H        4.1643390     0.4215720    -0.0233140
units angstrom
no_reorient  #important for SAPT in psi4, default
symmetry c1  #important for SAPT in psi4, default
}

set PROPERTIES_ORIGIN ["COM"]
properties('MP2/aug-cc-pvtz', properties = ['dipole'])
--------------------------------------------------------------------------

    Molecular point group: c1
  Charge       = 0
  Multiplicity = 1
  Basis Set: AUG-CC-PVTZ
    Blend: AUG-CC-PVTZ
  Basis Set: (AUG-CC-PVTZ AUX)
    Blend: AUG-CC-PVTZ-JKFIT

    Orbital Energies [Eh]
    ---------------------

    Doubly Occupied:

       1A    -20.627089     2A    -20.559083     3A    -20.558692
       4A    -11.401304     5A    -11.358660     6A    -11.281831
       7A    -11.275818     8A    -11.257521     9A    -11.229929
      10A     -1.472592    11A     -1.367166    12A     -1.350998
      13A     -1.113243    14A     -1.081905    15A     -0.969141
      16A     -0.901559    17A     -0.802212    18A     -0.737197
      19A     -0.724095    20A     -0.710926    21A     -0.668357
      22A     -0.650956    23A     -0.642395    24A     -0.627298
      25A     -0.606694    26A     -0.549789    27A     -0.544192
      28A     -0.533664    29A     -0.523754    30A     -0.500952
      31A     -0.485980    32A     -0.471035    33A     -0.445159
      34A     -0.400121

  @DF-RHF Final Energy:  -456.60388937959345

   => Energetics <=

    Nuclear Repulsion Energy =            413.5475790667347269
    One-Electron Energy =               -1443.4403249904464701
    Two-Electron Energy =                 573.2888565441182891
    Total Energy =                       -456.6038893795935110
  Basis Set: (AUG-CC-PVTZ AUX)
    Blend: AUG-CC-PVTZ-RI
    Molecular point group: c1

    Geometry (in Angstrom), charge = 0, multiplicity = 1:

       Center              X                  Y                   Z               Mass
    ------------   -----------------  -----------------  -----------------  -----------------
         O           -1.665067406237     1.374479537514    -0.083400300440    15.994914619570
         O            3.293588593763     0.885425537514    -0.040191300440    15.994914619570
         O            2.666264593763    -1.286720462486     0.081873699560    15.994914619570
         C           -2.572778406237    -0.850870462486     0.033036699560    12.000000000000
         C           -1.479306706237     0.090430737514    -0.006515300440    12.000000000000
         C           -3.954100406237    -0.217890462486    -0.021895300440    12.000000000000
         C           -0.062979406237    -0.377698462486     0.031645699560    12.000000000000
         C            1.038587693763     0.387455737514    -0.004978100440    12.000000000000
         C            2.368864593763    -0.104849462486     0.021211699560    12.000000000000
         H           -2.443381406237    -1.450630462486     0.943631699560     1.007825032230
         H           -2.420362406237    -1.551240462486    -0.801058300440     1.007825032230
         H           -4.101567406237     0.460947537514     0.820863699560     1.007825032230
         H           -4.729935406237    -0.986946462486     0.009512699560     1.007825032230
         H           -4.076359406237     0.363835537514    -0.937861300440     1.007825032230
         H            0.086796593763    -1.453639462486     0.095326699560     1.007825032230
         H            0.866730593763     1.519842537514    -0.069455300440     1.007825032230
         H            4.162925593763     0.433741537514    -0.024039300440     1.007825032230

  Basis Set: AUG-CC-PVTZ
    Blend: AUG-CC-PVTZ
  Basis Set: (AUG-CC-PVTZ AUX)
    Blend: AUG-CC-PVTZ-JKFIT
	 Reference Energy          =    -456.6038893795934541 [Eh]
	 Singles Energy            =      -0.0000000000000000 [Eh]
	 Same-Spin Energy          =      -0.4515699913546034 [Eh]
	 Opposite-Spin Energy      =      -1.4154331122502275 [Eh]
	 Correlation Energy        =      -1.8670031036048309 [Eh]
	 Total Energy              =    -458.4708924831982699 [Eh]

	 ================> DF-SCS-MP2 Energies <==================
	-----------------------------------------------------------
	 SCS Same-Spin Scale       =       0.3333333333333333 [-]
	 SCS Opposite-Spin Scale   =       1.2000000000000000 [-]
	 SCS Same-Spin Energy      =      -0.1505233304515345 [Eh]
	 SCS Opposite-Spin Energy  =      -1.6985197347002730 [Eh]
	 SCS Correlation Energy    =      -1.8490430651518075 [Eh]
	 SCS Total Energy          =    -458.4529324447452723 [Eh]
	-----------------------------------------------------------

  Dipole Moment: [D]
     X:    -0.5201      Y:    -1.4455      Z:     0.0730     Total:     1.5380

*** Psi4 exiting successfully. Buy a developer a beer!
