                               Psi4 1.3.2 release

  ==> Input File <==

--------------------------------------------------------------------------
#psi4
#
memory 32 gb

molecule  {
0 1
  O       -1.6636540     1.3623100    -0.0826750
  O        3.2950020     0.8732560    -0.0394660
  O        2.6676780    -1.2988900     0.0825990
  C       -2.5713650    -0.8630400     0.0337620
  C       -1.4513780     0.1516300    -0.0098980
  C       -3.9526870    -0.2300600    -0.0211700
  C       -0.0615660    -0.3898680     0.0323710
  C        0.9984040     0.4317740    -0.0078830
  C        2.3702780    -0.1170190     0.0219370
  H       -2.4419680    -1.4628000     0.9443570
  H       -2.4189490    -1.5634100    -0.8003330
  H       -4.1001540     0.4487780     0.8215890
  H       -4.7285220    -0.9991160     0.0102380
  H       -4.0749460     0.3516660    -0.9371360
  H        0.0882100    -1.4658090     0.0960520
  H        0.8561436     1.6067920    -0.0743356
  H        4.1643390     0.4215720    -0.0233140
units angstrom
no_reorient  #important for SAPT in psi4, default
symmetry c1  #important for SAPT in psi4, default
}

set PROPERTIES_ORIGIN ["COM"]
properties('MP2/aug-cc-pvtz', properties = ['dipole'])
--------------------------------------------------------------------------

    Molecular point group: c1
  Charge       = 0
  Multiplicity = 1
  Basis Set: AUG-CC-PVTZ
    Blend: AUG-CC-PVTZ
  Basis Set: (AUG-CC-PVTZ AUX)
    Blend: AUG-CC-PVTZ-JKFIT

    Orbital Energies [Eh]
    ---------------------

    Doubly Occupied:

       1A    -20.627315     2A    -20.561779     3A    -20.560370
       4A    -11.406109     5A    -11.349830     6A    -11.285417
       7A    -11.276121     8A    -11.252446     9A    -11.225115
      10A     -1.472129    11A     -1.390320    12A     -1.367663
      13A     -1.106607    14A     -1.064934    15A     -0.955862
      16A     -0.887543    17A     -0.797283    18A     -0.736702
      19A     -0.716876    20A     -0.712201    21A     -0.661597
      22A     -0.643843    23A     -0.639018    24A     -0.635065
      25A     -0.606733    26A     -0.559009    27A     -0.539885
      28A     -0.539283    29A     -0.524334    30A     -0.500891
      31A     -0.496032    32A     -0.469961    33A     -0.435241
      34A     -0.404158

  @DF-RHF Final Energy:  -456.62073520146976

   => Energetics <=

    Nuclear Repulsion Energy =            413.0166635498146661
    One-Electron Energy =               -1442.4594520914679379
    Two-Electron Energy =                 572.8220533401835155
    Total Energy =                       -456.6207352014697562
  Basis Set: (AUG-CC-PVTZ AUX)
    Blend: AUG-CC-PVTZ-RI
    Molecular point group: c1

    Geometry (in Angstrom), charge = 0, multiplicity = 1:

       Center              X                  Y                   Z               Mass
    ------------   -----------------  -----------------  -----------------  -----------------
         O           -1.663559558458     1.361529844407    -0.082630992301    15.994914619570
         O            3.295096441542     0.872475844407    -0.039421992301    15.994914619570
         O            2.667772441542    -1.299670155593     0.082643007699    15.994914619570
         C           -2.571270558458    -0.863820155593     0.033806007699    12.000000000000
         C           -1.451283558458     0.150849844407    -0.009853992301    12.000000000000
         C           -3.952592558458    -0.230840155593    -0.021125992301    12.000000000000
         C           -0.061471558458    -0.390648155593     0.032415007699    12.000000000000
         C            0.998498441542     0.430993844407    -0.007838992301    12.000000000000
         C            2.370372441542    -0.117799155593     0.021981007699    12.000000000000
         H           -2.441873558458    -1.463580155593     0.944401007699     1.007825032230
         H           -2.418854558458    -1.564190155593    -0.800288992301     1.007825032230
         H           -4.100059558458     0.447997844407     0.821633007699     1.007825032230
         H           -4.728427558458    -0.999896155593     0.010282007699     1.007825032230
         H           -4.074851558458     0.350885844407    -0.937091992301     1.007825032230
         H            0.088304441542    -1.466589155593     0.096096007699     1.007825032230
         H            0.856238041542     1.606011844407    -0.074291592301     1.007825032230
         H            4.164433441542     0.420791844407    -0.023269992301     1.007825032230

  Basis Set: AUG-CC-PVTZ
    Blend: AUG-CC-PVTZ
  Basis Set: (AUG-CC-PVTZ AUX)
    Blend: AUG-CC-PVTZ-JKFIT
	 Reference Energy          =    -456.6207352014697562 [Eh]
	 Singles Energy            =      -0.0000000000000000 [Eh]
	 Same-Spin Energy          =      -0.4486701725655406 [Eh]
	 Opposite-Spin Energy      =      -1.4100946084985342 [Eh]
	 Correlation Energy        =      -1.8587647810640748 [Eh]
	 Total Energy              =    -458.4794999825338095 [Eh]

	 ================> DF-SCS-MP2 Energies <==================
	-----------------------------------------------------------
	 SCS Same-Spin Scale       =       0.3333333333333333 [-]
	 SCS Opposite-Spin Scale   =       1.2000000000000000 [-]
	 SCS Same-Spin Energy      =      -0.1495567241885135 [Eh]
	 SCS Opposite-Spin Energy  =      -1.6921135301982411 [Eh]
	 SCS Correlation Energy    =      -1.8416702543867547 [Eh]
	 SCS Total Energy          =    -458.4624054558565263 [Eh]
	-----------------------------------------------------------

  Dipole Moment: [D]
     X:    -0.1719      Y:    -1.1622      Z:     0.0603     Total:     1.1763

*** Psi4 exiting successfully. Buy a developer a beer!
