                               Psi4 1.4a3.dev225

  ==> Input File <==

--------------------------------------------------------------------------
#psi4
#
memory 32 gb

molecule  {
0 1
  O       -1.5457390    -1.4151030    -0.0000120
  O        3.4055420    -0.8324430     0.0000000
  O        2.7346890     1.3362110     0.0000030
  C       -2.4962220     0.7973420     0.0000070
  C       -1.3569730    -0.1975560    -0.0000120
  C       -3.8659970     0.1363490     0.0000100
  C        0.0231420     0.3709680    -0.0000240
  C        1.1002740    -0.4324720     0.0000170
  C        2.4164797     0.1257447     0.0000073
  H       -2.3684100     1.4519690    -0.8733630
  H       -2.3683970     1.4519470     0.8733920
  H       -3.9887950    -0.4970190    -0.8807080
  H       -4.6559460     0.8916380     0.0000190
  H       -3.9887860    -0.4970320     0.8807180
  H        0.1589340     1.4510060    -0.0000590
  H        0.9863010    -1.5124980     0.0000520
  H        4.2687480    -0.3687180    -0.0000090
units angstrom
no_reorient  #important for SAPT in psi4, default
symmetry c1  #important for SAPT in psi4, default
}

set PROPERTIES_ORIGIN ["COM"]
properties('MP2/aug-cc-pvtz', properties = ['dipole'])
--------------------------------------------------------------------------

    Molecular point group: c1
  Charge       = 0
  Multiplicity = 1
  Basis Set: AUG-CC-PVTZ
    Blend: AUG-CC-PVTZ
  Basis Set: (AUG-CC-PVTZ AUX)
    Blend: AUG-CC-PVTZ-JKFIT

    Orbital Energies [Eh]
    ---------------------

    Doubly Occupied:

       1A    -20.621589     2A    -20.565684     3A    -20.557473
       4A    -11.407008     5A    -11.354335     6A    -11.284503
       7A    -11.276213     8A    -11.255558     9A    -11.227374
      10A     -1.455576    11A     -1.394507    12A     -1.346413
      13A     -1.118232    14A     -1.069739    15A     -0.966350
      16A     -0.890893    17A     -0.798459    18A     -0.751223
      19A     -0.721375    20A     -0.703058    21A     -0.660000
      22A     -0.644753    23A     -0.643898    24A     -0.629851
      25A     -0.604293    26A     -0.571053    27A     -0.542921
      28A     -0.541872    29A     -0.526992    30A     -0.502012
      31A     -0.489011    32A     -0.467749    33A     -0.440027
      34A     -0.406475

  @DF-RHF Final Energy:  -456.61998456073559

   => Energetics <=

    Nuclear Repulsion Energy =            413.2149849823318846
    One-Electron Energy =               -1442.7969992310238467
    Two-Electron Energy =                 572.9620296879562602
    Total Energy =                       -456.6199845607355883
  Basis Set: (AUG-CC-PVTZ AUX)
    Blend: AUG-CC-PVTZ-RI
    Molecular point group: c1

    Geometry (in Angstrom), charge = 0, multiplicity = 1:

       Center              X                  Y                   Z               Mass
    ------------   -----------------  -----------------  -----------------  -----------------
         O           -1.633886410680    -1.394935704157    -0.000011703035    15.994914619570
         O            3.317394589320    -0.812275704157     0.000000296965    15.994914619570
         O            2.646541589320     1.356378295843     0.000003296965    15.994914619570
         C           -2.584369410680     0.817509295843     0.000007296965    12.000000000000
         C           -1.445120410680    -0.177388704157    -0.000011703035    12.000000000000
         C           -3.954144410680     0.156516295843     0.000010296965    12.000000000000
         C           -0.065005410680     0.391135295843    -0.000023703035    12.000000000000
         C            1.012126589320    -0.412304704157     0.000017296965    12.000000000000
         C            2.328332289320     0.145911995843     0.000007596965    12.000000000000
         H           -2.456557410680     1.472136295843    -0.873362703035     1.007825032230
         H           -2.456544410680     1.472114295843     0.873392296965     1.007825032230
         H           -4.076942410680    -0.476851704157    -0.880707703035     1.007825032230
         H           -4.744093410680     0.911805295843     0.000019296965     1.007825032230
         H           -4.076933410680    -0.476864704157     0.880718296965     1.007825032230
         H            0.070786589320     1.471173295843    -0.000058703035     1.007825032230
         H            0.898153589320    -1.492330704157     0.000052296965     1.007825032230
         H            4.180600589320    -0.348550704157    -0.000008703035     1.007825032230

  Basis Set: AUG-CC-PVTZ
    Blend: AUG-CC-PVTZ
  Basis Set: (AUG-CC-PVTZ AUX)
    Blend: AUG-CC-PVTZ-JKFIT
	 Reference Energy          =    -456.6199845607355883 [Eh]
	 Singles Energy            =      -0.0000000000000000 [Eh]
	 Same-Spin Energy          =      -0.4495806380921875 [Eh]
	 Opposite-Spin Energy      =      -1.4118231899992599 [Eh]
	 Correlation Energy        =      -1.8614038280914476 [Eh]
	 Total Energy              =    -458.4813883888270425 [Eh]

	 ================> DF-SCS-MP2 Energies <==================
	-----------------------------------------------------------
	 SCS Same-Spin Scale       =       0.3333333333333333 [-]
	 SCS Opposite-Spin Scale   =       1.2000000000000000 [-]
	 SCS Same-Spin Energy      =      -0.1498602126973958 [Eh]
	 SCS Opposite-Spin Energy  =      -1.6941878279991118 [Eh]
	 SCS Correlation Energy    =      -1.8440480406965076 [Eh]
	 SCS Total Energy          =    -458.4640326014321090 [Eh]
	-----------------------------------------------------------

  Dipole Moment: [D]
     X:    -0.5931      Y:     1.1243      Z:     0.0000     Total:     1.2711

*** Psi4 exiting successfully. Buy a developer a beer!
