                               Psi4 1.3.2 release

  ==> Input File <==

--------------------------------------------------------------------------
#psi4
#
memory 32 gb

molecule  {
0 1
  O       -1.6636540     1.3623100    -0.0826750
  O        3.2950020     0.8732560    -0.0394660
  O        2.6676780    -1.2988900     0.0825990
  C       -2.5713650    -0.8630400     0.0337620
  C       -1.4560638     0.1394996    -0.0092211
  C       -3.9526870    -0.2300600    -0.0211700
  C       -0.0615660    -0.3898680     0.0323710
  C        1.0055418     0.4225117    -0.0072854
  C        2.3702780    -0.1170190     0.0219370
  H       -2.4419680    -1.4628000     0.9443570
  H       -2.4189490    -1.5634100    -0.8003330
  H       -4.1001540     0.4487780     0.8215890
  H       -4.7285220    -0.9991160     0.0102380
  H       -4.0749460     0.3516660    -0.9371360
  H        0.0882100    -1.4658090     0.0960520
  H        0.8681440     1.5076730    -0.0687300
  H        4.1643390     0.4215720    -0.0233140
units angstrom
no_reorient  #important for SAPT in psi4, default
symmetry c1  #important for SAPT in psi4, default
}

set PROPERTIES_ORIGIN ["COM"]
properties('MP2/aug-cc-pvtz', properties = ['dipole'])
--------------------------------------------------------------------------

    Molecular point group: c1
  Charge       = 0
  Multiplicity = 1
  Basis Set: AUG-CC-PVTZ
    Blend: AUG-CC-PVTZ
  Basis Set: (AUG-CC-PVTZ AUX)
    Blend: AUG-CC-PVTZ-JKFIT

    Orbital Energies [Eh]
    ---------------------

    Doubly Occupied:

       1A    -20.627532     2A    -20.560978     3A    -20.560377
       4A    -11.404812     5A    -11.351381     6A    -11.277424
       7A    -11.275473     8A    -11.253468     9A    -11.225973
      10A     -1.472299    11A     -1.383707    12A     -1.367429
      13A     -1.109568    14A     -1.068344    15A     -0.959240
      16A     -0.889853    17A     -0.799443    18A     -0.745147
      19A     -0.719250    20A     -0.712636    21A     -0.662346
      22A     -0.644793    23A     -0.639842    24A     -0.638388
      25A     -0.607033    26A     -0.566963    27A     -0.539926
      28A     -0.538130    29A     -0.524642    30A     -0.500919
      31A     -0.495037    32A     -0.471290    33A     -0.437679
      34A     -0.403581

  @DF-RHF Final Energy:  -456.62644212273199

   => Energetics <=

    Nuclear Repulsion Energy =            413.4691886892042589
    One-Electron Energy =               -1443.3214555799725076
    Two-Electron Energy =                 573.2258247680363183
    Total Energy =                       -456.6264421227319872
  Basis Set: (AUG-CC-PVTZ AUX)
    Blend: AUG-CC-PVTZ-RI
    Molecular point group: c1

    Geometry (in Angstrom), charge = 0, multiplicity = 1:

       Center              X                  Y                   Z               Mass
    ------------   -----------------  -----------------  -----------------  -----------------
         O           -1.663883800275     1.364314806578    -0.082794552616    15.994914619570
         O            3.294772199725     0.875260806578    -0.039585552616    15.994914619570
         O            2.667448199725    -1.296885193422     0.082479447384    15.994914619570
         C           -2.571594800275    -0.861035193422     0.033642447384    12.000000000000
         C           -1.456293600275     0.141504406578    -0.009340652616    12.000000000000
         C           -3.952916800275    -0.228055193422    -0.021289552616    12.000000000000
         C           -0.061795800275    -0.387863193422     0.032251447384    12.000000000000
         C            1.005311999725     0.424516506578    -0.007404952616    12.000000000000
         C            2.370048199725    -0.115014193422     0.021817447384    12.000000000000
         H           -2.442197800275    -1.460795193422     0.944237447384     1.007825032230
         H           -2.419178800275    -1.561405193422    -0.800452552616     1.007825032230
         H           -4.100383800275     0.450782806578     0.821469447384     1.007825032230
         H           -4.728751800275    -0.997111193422     0.010118447384     1.007825032230
         H           -4.075175800275     0.353670806578    -0.937255552616     1.007825032230
         H            0.087980199725    -1.463804193422     0.095932447384     1.007825032230
         H            0.867914199725     1.509677806578    -0.068849552616     1.007825032230
         H            4.164109199725     0.423576806578    -0.023433552616     1.007825032230

  Basis Set: AUG-CC-PVTZ
    Blend: AUG-CC-PVTZ
  Basis Set: (AUG-CC-PVTZ AUX)
    Blend: AUG-CC-PVTZ-JKFIT
	 Reference Energy          =    -456.6264421227319872 [Eh]
	 Singles Energy            =      -0.0000000000000000 [Eh]
	 Same-Spin Energy          =      -0.4487404466261389 [Eh]
	 Opposite-Spin Energy      =      -1.4099866367967244 [Eh]
	 Correlation Energy        =      -1.8587270834228633 [Eh]
	 Total Energy              =    -458.4851692061548647 [Eh]

	 ================> DF-SCS-MP2 Energies <==================
	-----------------------------------------------------------
	 SCS Same-Spin Scale       =       0.3333333333333333 [-]
	 SCS Opposite-Spin Scale   =       1.2000000000000000 [-]
	 SCS Same-Spin Energy      =      -0.1495801488753796 [Eh]
	 SCS Opposite-Spin Energy  =      -1.6919839641560692 [Eh]
	 SCS Correlation Energy    =      -1.8415641130314488 [Eh]
	 SCS Total Energy          =    -458.4680062357634256 [Eh]
	-----------------------------------------------------------

  Dipole Moment: [D]
     X:    -0.2315      Y:    -1.2293      Z:     0.0636     Total:     1.2525

*** Psi4 exiting successfully. Buy a developer a beer!
