                               Psi4 1.3.2 release

  ==> Input File <==

--------------------------------------------------------------------------
#psi4
#
memory 32 gb

molecule  {
0 1
  O       -1.6636540     1.3623100    -0.0826750
  O        3.2950020     0.8732560    -0.0394660
  O        2.6676780    -1.2988900     0.0825990
  C       -2.5713650    -0.8630400     0.0337620
  C       -1.4513780     0.1516300    -0.0098980
  C       -3.9526870    -0.2300600    -0.0211700
  C       -0.0615660    -0.3898680     0.0323710
  C        0.9984040     0.4317740    -0.0078830
  C        2.3702780    -0.1170190     0.0219370
  H       -2.4419680    -1.4628000     0.9443570
  H       -2.4189490    -1.5634100    -0.8003330
  H       -4.1001540     0.4487780     0.8215890
  H       -4.7285220    -0.9991160     0.0102380
  H       -4.0749460     0.3516660    -0.9371360
  H        0.0606822    -1.2680586     0.0843479
  H        0.8681440     1.5076730    -0.0687300
  H        4.1643390     0.4215720    -0.0233140
units angstrom
no_reorient  #important for SAPT in psi4, default
symmetry c1  #important for SAPT in psi4, default
}

set PROPERTIES_ORIGIN ["COM"]
properties('MP2/aug-cc-pvtz', properties = ['dipole'])
--------------------------------------------------------------------------

    Molecular point group: c1
  Charge       = 0
  Multiplicity = 1
  Basis Set: AUG-CC-PVTZ
    Blend: AUG-CC-PVTZ
  Basis Set: (AUG-CC-PVTZ AUX)
    Blend: AUG-CC-PVTZ-JKFIT

    Orbital Energies [Eh]
    ---------------------

    Doubly Occupied:

       1A    -20.627785     2A    -20.561914     3A    -20.559647
       4A    -11.405708     5A    -11.348674     6A    -11.276139
       7A    -11.254373     8A    -11.252903     9A    -11.225469
      10A     -1.472531    11A     -1.389697    12A     -1.367902
      13A     -1.119494    14A     -1.066039    15A     -0.963472
      16A     -0.890592    17A     -0.804603    18A     -0.777959
      19A     -0.718272    20A     -0.716734    21A     -0.662647
      22A     -0.644197    23A     -0.641637    24A     -0.639405
      25A     -0.611550    26A     -0.586127    27A     -0.539965
      28A     -0.539697    29A     -0.524579    30A     -0.501152
      31A     -0.496147    32A     -0.471374    33A     -0.435249
      34A     -0.404362

  @DF-RHF Final Energy:  -456.59386854404664

   => Energetics <=

    Nuclear Repulsion Energy =            414.5413423449971333
    One-Electron Energy =               -1445.2744264175580611
    Two-Electron Energy =                 574.1392155285142280
    Total Energy =                       -456.5938685440465861
  Basis Set: (AUG-CC-PVTZ AUX)
    Blend: AUG-CC-PVTZ-RI
    Molecular point group: c1

    Geometry (in Angstrom), charge = 0, multiplicity = 1:

       Center              X                  Y                   Z               Mass
    ------------   -----------------  -----------------  -----------------  -----------------
         O           -1.663437346611     1.360753544090    -0.082582992703    15.994914619570
         O            3.295218653389     0.871699544090    -0.039373992703    15.994914619570
         O            2.667894653389    -1.300446455910     0.082691007297    15.994914619570
         C           -2.571148346611    -0.864596455910     0.033854007297    12.000000000000
         C           -1.451161346611     0.150073544090    -0.009805992703    12.000000000000
         C           -3.952470346611    -0.231616455910    -0.021077992703    12.000000000000
         C           -0.061349346611    -0.391424455910     0.032463007297    12.000000000000
         C            0.998620653389     0.430217544090    -0.007790992703    12.000000000000
         C            2.370494653389    -0.118575455910     0.022029007297    12.000000000000
         H           -2.441751346611    -1.464356455910     0.944449007297     1.007825032230
         H           -2.418732346611    -1.564966455910    -0.800240992703     1.007825032230
         H           -4.099937346611     0.447221544090     0.821681007297     1.007825032230
         H           -4.728305346611    -1.000672455910     0.010330007297     1.007825032230
         H           -4.074729346611     0.350109544090    -0.937043992703     1.007825032230
         H            0.060898853389    -1.269615055910     0.084439907297     1.007825032230
         H            0.868360653389     1.506116544090    -0.068637992703     1.007825032230
         H            4.164555653389     0.420015544090    -0.023221992703     1.007825032230

  Basis Set: AUG-CC-PVTZ
    Blend: AUG-CC-PVTZ
  Basis Set: (AUG-CC-PVTZ AUX)
    Blend: AUG-CC-PVTZ-JKFIT
	 Reference Energy          =    -456.5938685440466429 [Eh]
	 Singles Energy            =      -0.0000000000000000 [Eh]
	 Same-Spin Energy          =      -0.4478654951739979 [Eh]
	 Opposite-Spin Energy      =      -1.4084479964883125 [Eh]
	 Correlation Energy        =      -1.8563134916623105 [Eh]
	 Total Energy              =    -458.4501820357089628 [Eh]

	 ================> DF-SCS-MP2 Energies <==================
	-----------------------------------------------------------
	 SCS Same-Spin Scale       =       0.3333333333333333 [-]
	 SCS Opposite-Spin Scale   =       1.2000000000000000 [-]
	 SCS Same-Spin Energy      =      -0.1492884983913326 [Eh]
	 SCS Opposite-Spin Energy  =      -1.6901375957859750 [Eh]
	 SCS Correlation Energy    =      -1.8394260941773077 [Eh]
	 SCS Total Energy          =    -458.4332946382239697 [Eh]
	-----------------------------------------------------------

  Dipole Moment: [D]
     X:    -0.1745      Y:    -1.1653      Z:     0.0604     Total:     1.1799

*** Psi4 exiting successfully. Buy a developer a beer!
