                               Psi4 1.3.2 release

  ==> Input File <==

--------------------------------------------------------------------------
#psi4
#
memory 32 gb

molecule  {
0 1
  O       -1.6636540     1.3623100    -0.0826750
  O        3.3456610     0.8235822    -0.0366027
  O        2.6676780    -1.2988900     0.0825990
  C       -2.5713650    -0.8630400     0.0337620
  C       -1.4513780     0.1516300    -0.0098980
  C       -3.9526870    -0.2300600    -0.0211700
  C       -0.0615660    -0.3898680     0.0323710
  C        0.9715206     0.3593558    -0.0034836
  C        2.3702780    -0.1170190     0.0219370
  H       -2.4419680    -1.4628000     0.9443570
  H       -2.4189490    -1.5634100    -0.8003330
  H       -4.1001540     0.4487780     0.8215890
  H       -4.7285220    -0.9991160     0.0102380
  H       -4.0749460     0.3516660    -0.9371360
  H        0.0882100    -1.4658090     0.0960520
  H        0.8681440     1.5076730    -0.0687300
  H        4.1643390     0.4215720    -0.0233140
units angstrom
no_reorient  #important for SAPT in psi4, default
symmetry c1  #important for SAPT in psi4, default
}

set PROPERTIES_ORIGIN ["COM"]
properties('MP2/aug-cc-pvtz', properties = ['dipole'])
--------------------------------------------------------------------------

    Molecular point group: c1
  Charge       = 0
  Multiplicity = 1
  Basis Set: AUG-CC-PVTZ
    Blend: AUG-CC-PVTZ
  Basis Set: (AUG-CC-PVTZ AUX)
    Blend: AUG-CC-PVTZ-JKFIT

    Orbital Energies [Eh]
    ---------------------

    Doubly Occupied:

       1A    -20.620463     2A    -20.562120     3A    -20.558180
       4A    -11.406235     5A    -11.351590     6A    -11.274867
       7A    -11.266712     8A    -11.253401     9A    -11.225768
      10A     -1.480874    11A     -1.391821    12A     -1.369260
      13A     -1.122922    14A     -1.067540    15A     -0.959036
      16A     -0.897546    17A     -0.810832    18A     -0.740807
      19A     -0.726743    20A     -0.711827    21A     -0.672619
      22A     -0.645085    23A     -0.640178    24A     -0.639849
      25A     -0.609770    26A     -0.551203    27A     -0.542317
      28A     -0.540939    29A     -0.525011    30A     -0.502298
      31A     -0.495641    32A     -0.466817    33A     -0.436978
      34A     -0.418270

  @DF-RHF Final Energy:  -456.62058895460837

   => Energetics <=

    Nuclear Repulsion Energy =            414.3407266018301129
    One-Electron Energy =               -1444.9515912581077828
    Two-Electron Energy =                 573.9902757016693613
    Total Energy =                       -456.6205889546083654
  Basis Set: (AUG-CC-PVTZ AUX)
    Blend: AUG-CC-PVTZ-RI
    Molecular point group: c1

    Geometry (in Angstrom), charge = 0, multiplicity = 1:

       Center              X                  Y                   Z               Mass
    ------------   -----------------  -----------------  -----------------  -----------------
         O           -1.667462645138     1.375301634923    -0.083445070123    15.994914619570
         O            3.341852354862     0.836573834923    -0.037372770123    15.994914619570
         O            2.663869354862    -1.285898365077     0.081828929877    15.994914619570
         C           -2.575173645138    -0.850048365077     0.032991929877    12.000000000000
         C           -1.455186645138     0.164621634923    -0.010668070123    12.000000000000
         C           -3.956495645138    -0.217068365077    -0.021940070123    12.000000000000
         C           -0.065374645138    -0.376876365077     0.031600929877    12.000000000000
         C            0.967711954862     0.372347434923    -0.004253670123    12.000000000000
         C            2.366469354862    -0.104027365077     0.021166929877    12.000000000000
         H           -2.445776645138    -1.449808365077     0.943586929877     1.007825032230
         H           -2.422757645138    -1.550418365077    -0.801103070123     1.007825032230
         H           -4.103962645138     0.461769634923     0.820818929877     1.007825032230
         H           -4.732330645138    -0.986124365077     0.009467929877     1.007825032230
         H           -4.078754645138     0.364657634923    -0.937906070123     1.007825032230
         H            0.084401354862    -1.452817365077     0.095281929877     1.007825032230
         H            0.864335354862     1.520664634923    -0.069500070123     1.007825032230
         H            4.160530354862     0.434563634923    -0.024084070123     1.007825032230

  Basis Set: AUG-CC-PVTZ
    Blend: AUG-CC-PVTZ
  Basis Set: (AUG-CC-PVTZ AUX)
    Blend: AUG-CC-PVTZ-JKFIT
	 Reference Energy          =    -456.6205889546083654 [Eh]
	 Singles Energy            =      -0.0000000000000000 [Eh]
	 Same-Spin Energy          =      -0.4466467118031612 [Eh]
	 Opposite-Spin Energy      =      -1.4054562059108151 [Eh]
	 Correlation Energy        =      -1.8521029177139763 [Eh]
	 Total Energy              =    -458.4726918723223434 [Eh]

	 ================> DF-SCS-MP2 Energies <==================
	-----------------------------------------------------------
	 SCS Same-Spin Scale       =       0.3333333333333333 [-]
	 SCS Opposite-Spin Scale   =       1.2000000000000000 [-]
	 SCS Same-Spin Energy      =      -0.1488822372677204 [Eh]
	 SCS Opposite-Spin Energy  =      -1.6865474470929780 [Eh]
	 SCS Correlation Energy    =      -1.8354296843606983 [Eh]
	 SCS Total Energy          =    -458.4560186389690557 [Eh]
	-----------------------------------------------------------

  Dipole Moment: [D]
     X:    -0.3212      Y:    -1.1779      Z:     0.0606     Total:     1.2224

*** Psi4 exiting successfully. Buy a developer a beer!
