                               Psi4 1.4a3.dev225

  ==> Input File <==

--------------------------------------------------------------------------
#psi4
#
memory 32 gb

molecule  {
0 1
  O       -1.5457390    -1.4151030    -0.0000120
  O        3.4055420    -0.8324430     0.0000000
  O        2.7346890     1.3362110     0.0000030
  C       -2.4962220     0.7973420     0.0000070
  C       -1.3569730    -0.1975560    -0.0000120
  C       -3.8659970     0.1363490     0.0000100
  C        0.0231420     0.3709680    -0.0000240
  C        1.1002740    -0.4324720     0.0000170
  C        2.4277997     0.1812548     0.0000073
  H       -2.3684100     1.4519690    -0.8733630
  H       -2.3683970     1.4519470     0.8733920
  H       -3.9887950    -0.4970190    -0.8807080
  H       -4.6559460     0.8916380     0.0000190
  H       -3.9887860    -0.4970320     0.8807180
  H        0.1589340     1.4510060    -0.0000590
  H        0.9863010    -1.5124980     0.0000520
  H        4.2687480    -0.3687180    -0.0000090
units angstrom
no_reorient  #important for SAPT in psi4, default
symmetry c1  #important for SAPT in psi4, default
}

set PROPERTIES_ORIGIN ["COM"]
properties('MP2/aug-cc-pvtz', properties = ['dipole'])
--------------------------------------------------------------------------

    Molecular point group: c1
  Charge       = 0
  Multiplicity = 1
  Basis Set: AUG-CC-PVTZ
    Blend: AUG-CC-PVTZ
  Basis Set: (AUG-CC-PVTZ AUX)
    Blend: AUG-CC-PVTZ-JKFIT

    Orbital Energies [Eh]
    ---------------------

    Doubly Occupied:

       1A    -20.612833     2A    -20.569045     3A    -20.563052
       4A    -11.404751     5A    -11.352145     6A    -11.279709
       7A    -11.277140     8A    -11.254136     9A    -11.226300
      10A     -1.462871    11A     -1.392169    12A     -1.367669
      13A     -1.113597    14A     -1.067550    15A     -0.958148
      16A     -0.884900    17A     -0.790853    18A     -0.751135
      19A     -0.716985    20A     -0.708907    21A     -0.659830
      22A     -0.643537    23A     -0.640600    24A     -0.631932
      25A     -0.609466    26A     -0.575588    27A     -0.541208
      28A     -0.540639    29A     -0.525773    30A     -0.503109
      31A     -0.498882    32A     -0.473787    33A     -0.437329
      34A     -0.407293

  @DF-RHF Final Energy:  -456.62529178435875

   => Energetics <=

    Nuclear Repulsion Energy =            413.3425277004860732
    One-Electron Energy =               -1443.0499002648759870
    Two-Electron Energy =                 573.0820807800312195
    Total Energy =                       -456.6252917843587511
  Basis Set: (AUG-CC-PVTZ AUX)
    Blend: AUG-CC-PVTZ-RI
    Molecular point group: c1

    Geometry (in Angstrom), charge = 0, multiplicity = 1:

       Center              X                  Y                   Z               Mass
    ------------   -----------------  -----------------  -----------------  -----------------
         O           -1.634947268295    -1.400137851883    -0.000011703035    15.994914619570
         O            3.316333731705    -0.817477851883     0.000000296965    15.994914619570
         O            2.645480731705     1.351176148117     0.000003296965    15.994914619570
         C           -2.585430268295     0.812307148117     0.000007296965    12.000000000000
         C           -1.446181268295    -0.182590851883    -0.000011703035    12.000000000000
         C           -3.955205268295     0.151314148117     0.000010296965    12.000000000000
         C           -0.066066268295     0.385933148117    -0.000023703035    12.000000000000
         C            1.011065731705    -0.417506851883     0.000017296965    12.000000000000
         C            2.338591431705     0.196219948117     0.000007596965    12.000000000000
         H           -2.457618268295     1.466934148117    -0.873362703035     1.007825032230
         H           -2.457605268295     1.466912148117     0.873392296965     1.007825032230
         H           -4.078003268295    -0.482053851883    -0.880707703035     1.007825032230
         H           -4.745154268295     0.906603148117     0.000019296965     1.007825032230
         H           -4.077994268295    -0.482066851883     0.880718296965     1.007825032230
         H            0.069725731705     1.465971148117    -0.000058703035     1.007825032230
         H            0.897092731705    -1.497532851883     0.000052296965     1.007825032230
         H            4.179539731705    -0.353752851883    -0.000008703035     1.007825032230

  Basis Set: AUG-CC-PVTZ
    Blend: AUG-CC-PVTZ
  Basis Set: (AUG-CC-PVTZ AUX)
    Blend: AUG-CC-PVTZ-JKFIT
	 Reference Energy          =    -456.6252917843587511 [Eh]
	 Singles Energy            =      -0.0000000000000000 [Eh]
	 Same-Spin Energy          =      -0.4483631905143347 [Eh]
	 Opposite-Spin Energy      =      -1.4095984104024601 [Eh]
	 Correlation Energy        =      -1.8579616009167947 [Eh]
	 Total Energy              =    -458.4832533852755319 [Eh]

	 ================> DF-SCS-MP2 Energies <==================
	-----------------------------------------------------------
	 SCS Same-Spin Scale       =       0.3333333333333333 [-]
	 SCS Opposite-Spin Scale   =       1.2000000000000000 [-]
	 SCS Same-Spin Energy      =      -0.1494543968381115 [Eh]
	 SCS Opposite-Spin Energy  =      -1.6915180924829520 [Eh]
	 SCS Correlation Energy    =      -1.8409724893210635 [Eh]
	 SCS Total Energy          =    -458.4662642736798261 [Eh]
	-----------------------------------------------------------

  Dipole Moment: [D]
     X:    -0.5546      Y:     1.4869      Z:     0.0000     Total:     1.5870

*** Psi4 exiting successfully. Buy a developer a beer!
