                               Psi4 1.4a3.dev225

  ==> Input File <==

--------------------------------------------------------------------------
#psi4
#
memory 32 gb

molecule  {
0 1
  O       -1.5457390    -1.4151030    -0.0000120
  O        3.4055420    -0.8324430     0.0000000
  O        2.7346890     1.3362110     0.0000030
  C       -2.4962220     0.7973420     0.0000070
  C       -1.3569730    -0.1975560    -0.0000120
  C       -3.8659970     0.1363490     0.0000100
  C        0.0231420     0.3709680    -0.0000240
  C        1.1403526    -0.4623669     0.0000185
  C        2.4625110     0.1452670     0.0000070
  H       -2.3684100     1.4519690    -0.8733630
  H       -2.3683970     1.4519470     0.8733920
  H       -3.9887950    -0.4970190    -0.8807080
  H       -4.6559460     0.8916380     0.0000190
  H       -3.9887860    -0.4970320     0.8807180
  H        0.1589340     1.4510060    -0.0000590
  H        0.9863010    -1.5124980     0.0000520
  H        4.2687480    -0.3687180    -0.0000090
units angstrom
no_reorient  #important for SAPT in psi4, default
symmetry c1  #important for SAPT in psi4, default
}

set PROPERTIES_ORIGIN ["COM"]
properties('MP2/aug-cc-pvtz', properties = ['dipole'])
--------------------------------------------------------------------------

    Molecular point group: c1
  Charge       = 0
  Multiplicity = 1
  Basis Set: AUG-CC-PVTZ
    Blend: AUG-CC-PVTZ
  Basis Set: (AUG-CC-PVTZ AUX)
    Blend: AUG-CC-PVTZ-JKFIT

    Orbital Energies [Eh]
    ---------------------

    Doubly Occupied:

       1A    -20.625490     2A    -20.562266     3A    -20.561190
       4A    -11.404610     5A    -11.351601     6A    -11.285995
       7A    -11.279172     8A    -11.253527     9A    -11.225830
      10A     -1.470418    11A     -1.391290    12A     -1.366368
      13A     -1.102418    14A     -1.065690    15A     -0.962010
      16A     -0.886634    17A     -0.799090    18A     -0.750065
      19A     -0.719193    20A     -0.711783    21A     -0.659469
      22A     -0.643770    23A     -0.638987    24A     -0.638875
      25A     -0.604704    26A     -0.576137    27A     -0.539889
      28A     -0.539068    29A     -0.525172    30A     -0.500607
      31A     -0.496087    32A     -0.473059    33A     -0.436804
      34A     -0.394507

  @DF-RHF Final Energy:  -456.62115063844197

   => Energetics <=

    Nuclear Repulsion Energy =            412.8029076659102543
    One-Electron Energy =               -1441.9645646264923471
    Two-Electron Energy =                 572.5405063221401178
    Total Energy =                       -456.6211506384420318
  Basis Set: (AUG-CC-PVTZ AUX)
    Blend: AUG-CC-PVTZ-RI
    Molecular point group: c1

    Geometry (in Angstrom), charge = 0, multiplicity = 1:

       Center              X                  Y                   Z               Mass
    ------------   -----------------  -----------------  -----------------  -----------------
         O           -1.641956228974    -1.393963632453    -0.000011815493    15.994914619570
         O            3.309324771026    -0.811303632453     0.000000184507    15.994914619570
         O            2.638471771026     1.357350367547     0.000003184507    15.994914619570
         C           -2.592439228974     0.818481367547     0.000007184507    12.000000000000
         C           -1.453190228974    -0.176416632453    -0.000011815493    12.000000000000
         C           -3.962214228974     0.157488367547     0.000010184507    12.000000000000
         C           -0.073075228974     0.392107367547    -0.000023815493    12.000000000000
         C            1.044135371026    -0.441227532453     0.000018684507    12.000000000000
         C            2.366293771026     0.166406367547     0.000007184507    12.000000000000
         H           -2.464627228974     1.473108367547    -0.873362815493     1.007825032230
         H           -2.464614228974     1.473086367547     0.873392184507     1.007825032230
         H           -4.085012228974    -0.475879632453    -0.880707815493     1.007825032230
         H           -4.752163228974     0.912777367547     0.000019184507     1.007825032230
         H           -4.085003228974    -0.475892632453     0.880718184507     1.007825032230
         H            0.062716771026     1.472145367547    -0.000058815493     1.007825032230
         H            0.890083771026    -1.491358632453     0.000052184507     1.007825032230
         H            4.172530771026    -0.347578632453    -0.000008815493     1.007825032230

  Basis Set: AUG-CC-PVTZ
    Blend: AUG-CC-PVTZ
  Basis Set: (AUG-CC-PVTZ AUX)
    Blend: AUG-CC-PVTZ-JKFIT
	 Reference Energy          =    -456.6211506384419749 [Eh]
	 Singles Energy            =      -0.0000000000000000 [Eh]
	 Same-Spin Energy          =      -0.4492594186362991 [Eh]
	 Opposite-Spin Energy      =      -1.4112432607734067 [Eh]
	 Correlation Energy        =      -1.8605026794097057 [Eh]
	 Total Energy              =    -458.4816533178516806 [Eh]

	 ================> DF-SCS-MP2 Energies <==================
	-----------------------------------------------------------
	 SCS Same-Spin Scale       =       0.3333333333333333 [-]
	 SCS Opposite-Spin Scale   =       1.2000000000000000 [-]
	 SCS Same-Spin Energy      =      -0.1497531395454330 [Eh]
	 SCS Opposite-Spin Energy  =      -1.6934919129280879 [Eh]
	 SCS Correlation Energy    =      -1.8432450524735209 [Eh]
	 SCS Total Energy          =    -458.4643956909155236 [Eh]
	-----------------------------------------------------------

  Dipole Moment: [D]
     X:    -0.2542      Y:     1.1682      Z:     0.0000     Total:     1.1956

*** Psi4 exiting successfully. Buy a developer a beer!
