                               Psi4 1.3.2 release

  ==> Input File <==

--------------------------------------------------------------------------
#psi4
#
memory 32 gb

molecule  {
0 1
  O       -1.6847872     1.3584104    -0.0827320
  O        3.2950020     0.8732560    -0.0394660
  O        2.6676780    -1.2988900     0.0825990
  C       -2.5889157    -0.8433834     0.0323920
  C       -1.4513780     0.1516300    -0.0098980
  C       -3.9526870    -0.2300600    -0.0211700
  C       -0.0615660    -0.3898680     0.0323710
  C        0.9984040     0.4317740    -0.0078830
  C        2.3702780    -0.1170190     0.0219370
  H       -2.4419680    -1.4628000     0.9443570
  H       -2.4189490    -1.5634100    -0.8003330
  H       -4.1001540     0.4487780     0.8215890
  H       -4.7285220    -0.9991160     0.0102380
  H       -4.0749460     0.3516660    -0.9371360
  H        0.0882100    -1.4658090     0.0960520
  H        0.8681440     1.5076730    -0.0687300
  H        4.1643390     0.4215720    -0.0233140
units angstrom
no_reorient  #important for SAPT in psi4, default
symmetry c1  #important for SAPT in psi4, default
}

set PROPERTIES_ORIGIN ["COM"]
properties('MP2/aug-cc-pvtz', properties = ['dipole'])
--------------------------------------------------------------------------

    Molecular point group: c1
  Charge       = 0
  Multiplicity = 1
  Basis Set: AUG-CC-PVTZ
    Blend: AUG-CC-PVTZ
  Basis Set: (AUG-CC-PVTZ AUX)
    Blend: AUG-CC-PVTZ-JKFIT

    Orbital Energies [Eh]
    ---------------------

    Doubly Occupied:

       1A    -20.628204     2A    -20.562090     3A    -20.559706
       4A    -11.406209     5A    -11.349642     6A    -11.278474
       7A    -11.276691     8A    -11.252937     9A    -11.223501
      10A     -1.472873    11A     -1.390308    12A     -1.368171
      13A     -1.109952    14A     -1.067591    15A     -0.958636
      16A     -0.887308    17A     -0.798386    18A     -0.747612
      19A     -0.717733    20A     -0.713594    21A     -0.662686
      22A     -0.643421    23A     -0.640515    24A     -0.637691
      25A     -0.607643    26A     -0.571244    27A     -0.544709
      28A     -0.539683    29A     -0.524066    30A     -0.499632
      31A     -0.491892    32A     -0.472014    33A     -0.434556
      34A     -0.405326

  @DF-RHF Final Energy:  -456.62718174140792

   => Energetics <=

    Nuclear Repulsion Energy =            413.5395973924117357
    One-Electron Energy =               -1443.4441692254138161
    Two-Electron Energy =                 573.2773900915942704
    Total Energy =                       -456.6271817414078669
  Basis Set: (AUG-CC-PVTZ AUX)
    Blend: AUG-CC-PVTZ-RI
    Molecular point group: c1

    Geometry (in Angstrom), charge = 0, multiplicity = 1:

       Center              X                  Y                   Z               Mass
    ------------   -----------------  -----------------  -----------------  -----------------
         O           -1.680502606527     1.357055372495    -0.082596602306    15.994914619570
         O            3.299286593473     0.871900972495    -0.039330602306    15.994914619570
         O            2.671962593473    -1.300245027505     0.082734397694    15.994914619570
         C           -2.584631106527    -0.844738427505     0.032527397694    12.000000000000
         C           -1.447093406527     0.150274972495    -0.009762602306    12.000000000000
         C           -3.948402406527    -0.231415027505    -0.021034602306    12.000000000000
         C           -0.057281406527    -0.391223027505     0.032506397694    12.000000000000
         C            1.002688593473     0.430418972495    -0.007747602306    12.000000000000
         C            2.374562593473    -0.118374027505     0.022072397694    12.000000000000
         H           -2.437683406527    -1.464155027505     0.944492397694     1.007825032230
         H           -2.414664406527    -1.564765027505    -0.800197602306     1.007825032230
         H           -4.095869406527     0.447422972495     0.821724397694     1.007825032230
         H           -4.724237406527    -1.000471027505     0.010373397694     1.007825032230
         H           -4.070661406527     0.350310972495    -0.937000602306     1.007825032230
         H            0.092494593473    -1.467164027505     0.096187397694     1.007825032230
         H            0.872428593473     1.506317972495    -0.068594602306     1.007825032230
         H            4.168623593473     0.420216972495    -0.023178602306     1.007825032230

  Basis Set: AUG-CC-PVTZ
    Blend: AUG-CC-PVTZ
  Basis Set: (AUG-CC-PVTZ AUX)
    Blend: AUG-CC-PVTZ-JKFIT
	 Reference Energy          =    -456.6271817414079237 [Eh]
	 Singles Energy            =      -0.0000000000000000 [Eh]
	 Same-Spin Energy          =      -0.4484810085839254 [Eh]
	 Opposite-Spin Energy      =      -1.4092845620489411 [Eh]
	 Correlation Energy        =      -1.8577655706328664 [Eh]
	 Total Energy              =    -458.4849473120407879 [Eh]

	 ================> DF-SCS-MP2 Energies <==================
	-----------------------------------------------------------
	 SCS Same-Spin Scale       =       0.3333333333333333 [-]
	 SCS Opposite-Spin Scale   =       1.2000000000000000 [-]
	 SCS Same-Spin Energy      =      -0.1494936695279751 [Eh]
	 SCS Opposite-Spin Energy  =      -1.6911414744587294 [Eh]
	 SCS Correlation Energy    =      -1.8406351439867046 [Eh]
	 SCS Total Energy          =    -458.4678168853946545 [Eh]
	-----------------------------------------------------------

  Dipole Moment: [D]
     X:    -0.1130      Y:    -1.1732      Z:     0.0616     Total:     1.1802

*** Psi4 exiting successfully. Buy a developer a beer!
