                               Psi4 1.3.2 release

  ==> Input File <==

--------------------------------------------------------------------------
#psi4
#
memory 32 gb

molecule  {
0 1
  O       -1.6636540     1.3623100    -0.0826750
  O        3.2950020     0.8732560    -0.0394660
  O        2.6676780    -1.2988900     0.0825990
  C       -2.5713650    -0.8630400     0.0337620
  C       -1.5995345     0.0174052    -0.0041225
  C       -3.9526870    -0.2300600    -0.0211700
  C       -0.0615660    -0.3898680     0.0323710
  C        0.9984040     0.4317740    -0.0078830
  C        2.3702780    -0.1170190     0.0219370
  H       -2.4419680    -1.4628000     0.9443570
  H       -2.4189490    -1.5634100    -0.8003330
  H       -4.1001540     0.4487780     0.8215890
  H       -4.7285220    -0.9991160     0.0102380
  H       -4.0749460     0.3516660    -0.9371360
  H        0.0882100    -1.4658090     0.0960520
  H        0.8681440     1.5076730    -0.0687300
  H        4.1643390     0.4215720    -0.0233140
units angstrom
no_reorient  #important for SAPT in psi4, default
symmetry c1  #important for SAPT in psi4, default
}

set PROPERTIES_ORIGIN ["COM"]
properties('MP2/aug-cc-pvtz', properties = ['dipole'])
--------------------------------------------------------------------------

    Molecular point group: c1
  Charge       = 0
  Multiplicity = 1
  Basis Set: AUG-CC-PVTZ
    Blend: AUG-CC-PVTZ
  Basis Set: (AUG-CC-PVTZ AUX)
    Blend: AUG-CC-PVTZ-JKFIT

    Orbital Energies [Eh]
    ---------------------

    Doubly Occupied:

       1A    -20.622955     2A    -20.554989     3A    -20.552641
       4A    -11.400593     5A    -11.363511     6A    -11.282409
       7A    -11.267763     8A    -11.258367     9A    -11.237025
      10A     -1.467144    11A     -1.362060    12A     -1.324508
      13A     -1.131308    14A     -1.086313    15A     -0.960604
      16A     -0.901847    17A     -0.791497    18A     -0.743643
      19A     -0.721151    20A     -0.706330    21A     -0.670527
      22A     -0.663562    23A     -0.636322    24A     -0.626396
      25A     -0.600187    26A     -0.566382    27A     -0.544163
      28A     -0.538730    29A     -0.518319    30A     -0.495201
      31A     -0.469802    32A     -0.464865    33A     -0.435622
      34A     -0.393582

  @DF-RHF Final Energy:  -456.56039541801778

   => Energetics <=

    Nuclear Repulsion Energy =            412.6664370426490223
    One-Electron Energy =               -1441.7330288287812436
    Two-Electron Energy =                 572.5061963681143880
    Total Energy =                       -456.5603954180178334
  Basis Set: (AUG-CC-PVTZ AUX)
    Blend: AUG-CC-PVTZ-RI
    Molecular point group: c1

    Geometry (in Angstrom), charge = 0, multiplicity = 1:

       Center              X                  Y                   Z               Mass
    ------------   -----------------  -----------------  -----------------  -----------------
         O           -1.649769473949     1.374888904849    -0.083216365348    15.994914619570
         O            3.308886526051     0.885834904849    -0.040007365348    15.994914619570
         O            2.681562526051    -1.286311095151     0.082057634652    15.994914619570
         C           -2.557480473949    -0.850461095151     0.033220634652    12.000000000000
         C           -1.585649973949     0.029984104849    -0.004663865348    12.000000000000
         C           -3.938802473949    -0.217481095151    -0.021711365348    12.000000000000
         C           -0.047681473949    -0.377289095151     0.031829634652    12.000000000000
         C            1.012288526051     0.444352904849    -0.008424365348    12.000000000000
         C            2.384162526051    -0.104440095151     0.021395634652    12.000000000000
         H           -2.428083473949    -1.450221095151     0.943815634652     1.007825032230
         H           -2.405064473949    -1.550831095151    -0.800874365348     1.007825032230
         H           -4.086269473949     0.461356904849     0.821047634652     1.007825032230
         H           -4.714637473949    -0.986537095151     0.009696634652     1.007825032230
         H           -4.061061473949     0.364244904849    -0.937677365348     1.007825032230
         H            0.102094526051    -1.453230095151     0.095510634652     1.007825032230
         H            0.882028526051     1.520251904849    -0.069271365348     1.007825032230
         H            4.178223526051     0.434150904849    -0.023855365348     1.007825032230

  Basis Set: AUG-CC-PVTZ
    Blend: AUG-CC-PVTZ
  Basis Set: (AUG-CC-PVTZ AUX)
    Blend: AUG-CC-PVTZ-JKFIT
	 Reference Energy          =    -456.5603954180177766 [Eh]
	 Singles Energy            =      -0.0000000000000000 [Eh]
	 Same-Spin Energy          =      -0.4536370938581039 [Eh]
	 Opposite-Spin Energy      =      -1.4192774854909098 [Eh]
	 Correlation Energy        =      -1.8729145793490138 [Eh]
	 Total Energy              =    -458.4333099973667913 [Eh]

	 ================> DF-SCS-MP2 Energies <==================
	-----------------------------------------------------------
	 SCS Same-Spin Scale       =       0.3333333333333333 [-]
	 SCS Opposite-Spin Scale   =       1.2000000000000000 [-]
	 SCS Same-Spin Energy      =      -0.1512123646193680 [Eh]
	 SCS Opposite-Spin Energy  =      -1.7031329825890917 [Eh]
	 SCS Correlation Energy    =      -1.8543453472084597 [Eh]
	 SCS Total Energy          =    -458.4147407652262132 [Eh]
	-----------------------------------------------------------

  Dipole Moment: [D]
     X:    -1.2297      Y:    -1.7402      Z:     0.0821     Total:     2.1324

*** Psi4 exiting successfully. Buy a developer a beer!
