                               Psi4 1.3.2 release

  ==> Input File <==

--------------------------------------------------------------------------
#psi4
#
memory 32 gb

molecule  {
0 1
  O       -1.6636540     1.3623100    -0.0826750
  O        3.2950020     0.8732560    -0.0394660
  O        2.6676780    -1.2988900     0.0825990
  C       -2.5713650    -0.8630400     0.0337620
  C       -1.4513780     0.1516300    -0.0098980
  C       -3.9526870    -0.2300600    -0.0211700
  C        0.1247141    -0.4624464     0.0380364
  C        0.9984040     0.4317740    -0.0078830
  C        2.3702780    -0.1170190     0.0219370
  H       -2.4419680    -1.4628000     0.9443570
  H       -2.4189490    -1.5634100    -0.8003330
  H       -4.1001540     0.4487780     0.8215890
  H       -4.7285220    -0.9991160     0.0102380
  H       -4.0749460     0.3516660    -0.9371360
  H        0.0882100    -1.4658090     0.0960520
  H        0.8681440     1.5076730    -0.0687300
  H        4.1643390     0.4215720    -0.0233140
units angstrom
no_reorient  #important for SAPT in psi4, default
symmetry c1  #important for SAPT in psi4, default
}

set PROPERTIES_ORIGIN ["COM"]
properties('MP2/aug-cc-pvtz', properties = ['dipole'])
--------------------------------------------------------------------------

    Molecular point group: c1
  Charge       = 0
  Multiplicity = 1
  Basis Set: AUG-CC-PVTZ
    Blend: AUG-CC-PVTZ
  Basis Set: (AUG-CC-PVTZ AUX)
    Blend: AUG-CC-PVTZ-JKFIT

    Orbital Energies [Eh]
    ---------------------

    Doubly Occupied:

       1A    -20.622644     2A    -20.563873     3A    -20.555200
       4A    -11.397857     5A    -11.356899     6A    -11.269133
       7A    -11.257610     8A    -11.254696     9A    -11.226440
      10A     -1.467744    11A     -1.388282    12A     -1.363432
      13A     -1.124398    14A     -1.066747    15A     -0.935123
      16A     -0.887632    17A     -0.791398    18A     -0.753884
      19A     -0.716544    20A     -0.714150    21A     -0.652615
      22A     -0.644692    23A     -0.642035    24A     -0.637063
      25A     -0.613898    26A     -0.576987    27A     -0.538100
      28A     -0.535978    29A     -0.521435    30A     -0.501212
      31A     -0.494947    32A     -0.466173    33A     -0.425997
      34A     -0.412047

  @DF-RHF Final Energy:  -456.59422205860329

   => Energetics <=

    Nuclear Repulsion Energy =            413.1723175051824910
    One-Electron Energy =               -1442.7793513136971342
    Two-Electron Energy =                 573.0128117499112932
    Total Energy =                       -456.5942220586033500
  Basis Set: (AUG-CC-PVTZ AUX)
    Blend: AUG-CC-PVTZ-RI
    Molecular point group: c1

    Geometry (in Angstrom), charge = 0, multiplicity = 1:

       Center              X                  Y                   Z               Mass
    ------------   -----------------  -----------------  -----------------  -----------------
         O           -1.681111312608     1.369111691701    -0.083206047289    15.994914619570
         O            3.277544687392     0.880057691701    -0.039997047289    15.994914619570
         O            2.650220687392    -1.292088308299     0.082067952711    15.994914619570
         C           -2.588822312608    -0.856238308299     0.033230952711    12.000000000000
         C           -1.468835312608     0.158431691701    -0.010429047289    12.000000000000
         C           -3.970144312608    -0.223258308299    -0.021701047289    12.000000000000
         C            0.107256787392    -0.455644708299     0.037505352711    12.000000000000
         C            0.980946687392     0.438575691701    -0.008414047289    12.000000000000
         C            2.352820687392    -0.110217308299     0.021405952711    12.000000000000
         H           -2.459425312608    -1.455998308299     0.943825952711     1.007825032230
         H           -2.436406312608    -1.556608308299    -0.800864047289     1.007825032230
         H           -4.117611312608     0.455579691701     0.821057952711     1.007825032230
         H           -4.745979312608    -0.992314308299     0.009706952711     1.007825032230
         H           -4.092403312608     0.358467691701    -0.937667047289     1.007825032230
         H            0.070752687392    -1.459007308299     0.095520952711     1.007825032230
         H            0.850686687392     1.514474691701    -0.069261047289     1.007825032230
         H            4.146881687392     0.428373691701    -0.023845047289     1.007825032230

  Basis Set: AUG-CC-PVTZ
    Blend: AUG-CC-PVTZ
  Basis Set: (AUG-CC-PVTZ AUX)
    Blend: AUG-CC-PVTZ-JKFIT
	 Reference Energy          =    -456.5942220586032931 [Eh]
	 Singles Energy            =      -0.0000000000000000 [Eh]
	 Same-Spin Energy          =      -0.4475790581509708 [Eh]
	 Opposite-Spin Energy      =      -1.4076974153990758 [Eh]
	 Correlation Energy        =      -1.8552764735500467 [Eh]
	 Total Energy              =    -458.4494985321533136 [Eh]

	 ================> DF-SCS-MP2 Energies <==================
	-----------------------------------------------------------
	 SCS Same-Spin Scale       =       0.3333333333333333 [-]
	 SCS Opposite-Spin Scale   =       1.2000000000000000 [-]
	 SCS Same-Spin Energy      =      -0.1491930193836569 [Eh]
	 SCS Opposite-Spin Energy  =      -1.6892368984788908 [Eh]
	 SCS Correlation Energy    =      -1.8384299178625478 [Eh]
	 SCS Total Energy          =    -458.4326519764658201 [Eh]
	-----------------------------------------------------------

  Dipole Moment: [D]
     X:    -0.5916      Y:    -1.1878      Z:     0.0594     Total:     1.3283

*** Psi4 exiting successfully. Buy a developer a beer!
