                               Psi4 1.3.2 release

  ==> Input File <==

--------------------------------------------------------------------------
#psi4
#
memory 32 gb

molecule  {
0 1
  O       -1.5998884     1.3717695    -0.0827526
  O        3.2950020     0.8732560    -0.0394660
  O        2.6676780    -1.2988900     0.0825990
  C       -2.5713650    -0.8630400     0.0337620
  C       -1.4513780     0.1516300    -0.0098980
  C       -3.9526870    -0.2300600    -0.0211700
  C       -0.0350507    -0.3164996     0.0282562
  C        0.9984040     0.4317740    -0.0078830
  C        2.3702780    -0.1170190     0.0219370
  H       -2.4419680    -1.4628000     0.9443570
  H       -2.4189490    -1.5634100    -0.8003330
  H       -4.1001540     0.4487780     0.8215890
  H       -4.7285220    -0.9991160     0.0102380
  H       -4.0749460     0.3516660    -0.9371360
  H        0.0882100    -1.4658090     0.0960520
  H        0.8681440     1.5076730    -0.0687300
  H        4.1643390     0.4215720    -0.0233140
units angstrom
no_reorient  #important for SAPT in psi4, default
symmetry c1  #important for SAPT in psi4, default
}

set PROPERTIES_ORIGIN ["COM"]
properties('MP2/aug-cc-pvtz', properties = ['dipole'])
--------------------------------------------------------------------------

    Molecular point group: c1
  Charge       = 0
  Multiplicity = 1
  Basis Set: AUG-CC-PVTZ
    Blend: AUG-CC-PVTZ
  Basis Set: (AUG-CC-PVTZ AUX)
    Blend: AUG-CC-PVTZ-JKFIT

    Orbital Energies [Eh]
    ---------------------

    Doubly Occupied:

       1A    -20.626128     2A    -20.560880     3A    -20.559550
       4A    -11.403906     5A    -11.350278     6A    -11.268263
       7A    -11.260989     8A    -11.258078     9A    -11.228887
      10A     -1.470545    11A     -1.392633    12A     -1.365677
      13A     -1.116856    14A     -1.070849    15A     -0.952721
      16A     -0.891348    17A     -0.802343    18A     -0.735809
      19A     -0.721340    20A     -0.708366    21A     -0.667075
      22A     -0.645567    23A     -0.640879    24A     -0.638962
      25A     -0.606433    26A     -0.550073    27A     -0.543491
      28A     -0.543206    29A     -0.526775    30A     -0.503321
      31A     -0.495439    32A     -0.469167    33A     -0.434940
      34A     -0.414191

  @DF-RHF Final Energy:  -456.62037844039497

   => Energetics <=

    Nuclear Repulsion Energy =            414.4735696610418927
    One-Electron Energy =               -1445.3379746251541746
    Two-Electron Energy =                 574.2440265237173662
    Total Energy =                       -456.6203784403949157
  Basis Set: (AUG-CC-PVTZ AUX)
    Blend: AUG-CC-PVTZ-RI
    Molecular point group: c1

    Geometry (in Angstrom), charge = 0, multiplicity = 1:

       Center              X                  Y                   Z               Mass
    ------------   -----------------  -----------------  -----------------  -----------------
         O           -1.610338521022     1.363712113537    -0.082357399219    15.994914619570
         O            3.284551878978     0.865198613537    -0.039070799219    15.994914619570
         O            2.657227878978    -1.306947386463     0.082994200781    15.994914619570
         C           -2.581815121022    -0.871097386463     0.034157200781    12.000000000000
         C           -1.461828121022     0.143572613537    -0.009502799219    12.000000000000
         C           -3.963137121022    -0.238117386463    -0.020774799219    12.000000000000
         C           -0.045500821022    -0.324556986463     0.028651400781    12.000000000000
         C            0.987953878978     0.423716613537    -0.007487799219    12.000000000000
         C            2.359827878978    -0.125076386463     0.022332200781    12.000000000000
         H           -2.452418121022    -1.470857386463     0.944752200781     1.007825032230
         H           -2.429399121022    -1.571467386463    -0.799937799219     1.007825032230
         H           -4.110604121022     0.440720613537     0.821984200781     1.007825032230
         H           -4.738972121022    -1.007173386463     0.010633200781     1.007825032230
         H           -4.085396121022     0.343608613537    -0.936740799219     1.007825032230
         H            0.077759878978    -1.473866386463     0.096447200781     1.007825032230
         H            0.857693878978     1.499615613537    -0.068334799219     1.007825032230
         H            4.153888878978     0.413514613537    -0.022918799219     1.007825032230

  Basis Set: AUG-CC-PVTZ
    Blend: AUG-CC-PVTZ
  Basis Set: (AUG-CC-PVTZ AUX)
    Blend: AUG-CC-PVTZ-JKFIT
	 Reference Energy          =    -456.6203784403949726 [Eh]
	 Singles Energy            =      -0.0000000000000000 [Eh]
	 Same-Spin Energy          =      -0.4478013908540265 [Eh]
	 Opposite-Spin Energy      =      -1.4080216253743925 [Eh]
	 Correlation Energy        =      -1.8558230162284191 [Eh]
	 Total Energy              =    -458.4762014566234143 [Eh]

	 ================> DF-SCS-MP2 Energies <==================
	-----------------------------------------------------------
	 SCS Same-Spin Scale       =       0.3333333333333333 [-]
	 SCS Opposite-Spin Scale   =       1.2000000000000000 [-]
	 SCS Same-Spin Energy      =      -0.1492671302846755 [Eh]
	 SCS Opposite-Spin Energy  =      -1.6896259504492710 [Eh]
	 SCS Correlation Energy    =      -1.8388930807339465 [Eh]
	 SCS Total Energy          =    -458.4592715211289260 [Eh]
	-----------------------------------------------------------

  Dipole Moment: [D]
     X:    -0.4996      Y:    -1.1871      Z:     0.0590     Total:     1.2893

*** Psi4 exiting successfully. Buy a developer a beer!
