                               Psi4 1.3.2 release

  ==> Input File <==

--------------------------------------------------------------------------
#psi4
#
memory 32 gb

molecule  {
0 1
  O       -1.6636540     1.3623100    -0.0826750
  O        3.3121770     0.8569931    -0.0385299
  O        2.6676780    -1.2988900     0.0825990
  C       -2.5713650    -0.8630400     0.0337620
  C       -1.4513780     0.1516300    -0.0098980
  C       -3.9526870    -0.2300600    -0.0211700
  C       -0.0615660    -0.3898680     0.0323710
  C        0.9890212     0.4077920    -0.0064250
  C        2.3702780    -0.1170190     0.0219370
  H       -2.4419680    -1.4628000     0.9443570
  H       -2.4189490    -1.5634100    -0.8003330
  H       -4.1001540     0.4487780     0.8215890
  H       -4.7285220    -0.9991160     0.0102380
  H       -4.0749460     0.3516660    -0.9371360
  H        0.0882100    -1.4658090     0.0960520
  H        0.8681440     1.5076730    -0.0687300
  H        4.1643390     0.4215720    -0.0233140
units angstrom
no_reorient  #important for SAPT in psi4, default
symmetry c1  #important for SAPT in psi4, default
}

set PROPERTIES_ORIGIN ["COM"]
properties('MP2/aug-cc-pvtz', properties = ['dipole'])
--------------------------------------------------------------------------

    Molecular point group: c1
  Charge       = 0
  Multiplicity = 1
  Basis Set: AUG-CC-PVTZ
    Blend: AUG-CC-PVTZ
  Basis Set: (AUG-CC-PVTZ AUX)
    Blend: AUG-CC-PVTZ-JKFIT

    Orbital Energies [Eh]
    ---------------------

    Doubly Occupied:

       1A    -20.625335     2A    -20.561137     3A    -20.560226
       4A    -11.405523     5A    -11.350486     6A    -11.275815
       7A    -11.272765     8A    -11.252792     9A    -11.225369
      10A     -1.474828    11A     -1.391011    12A     -1.367920
      13A     -1.113486    14A     -1.066353    15A     -0.957702
      16A     -0.890679    17A     -0.802707    18A     -0.744519
      19A     -0.721002    20A     -0.712669    21A     -0.664703
      22A     -0.644268    23A     -0.640996    24A     -0.639316
      25A     -0.608443    26A     -0.564356    27A     -0.540747
      28A     -0.539920    29A     -0.524636    30A     -0.501297
      31A     -0.495878    32A     -0.469920    33A     -0.435906
      34A     -0.408927

  @DF-RHF Final Energy:  -456.62943953394910

   => Energetics <=

    Nuclear Repulsion Energy =            413.7423148754710951
    One-Electron Energy =               -1443.8402295303255869
    Two-Electron Energy =                 573.4684751209055094
    Total Energy =                       -456.6294395339490393
  Basis Set: (AUG-CC-PVTZ AUX)
    Blend: AUG-CC-PVTZ-RI
    Molecular point group: c1

    Geometry (in Angstrom), charge = 0, multiplicity = 1:

       Center              X                  Y                   Z               Mass
    ------------   -----------------  -----------------  -----------------  -----------------
         O           -1.664920097119     1.366588928692    -0.082928681439    15.994914619570
         O            3.310910902881     0.861272028692    -0.038783581439    15.994914619570
         O            2.666411902881    -1.294611071308     0.082345318561    15.994914619570
         C           -2.572631097119    -0.858761071308     0.033508318561    12.000000000000
         C           -1.452644097119     0.155908928692    -0.010151681439    12.000000000000
         C           -3.953953097119    -0.225781071308    -0.021423681439    12.000000000000
         C           -0.062832097119    -0.385589071308     0.032117318561    12.000000000000
         C            0.987755102881     0.412070928692    -0.006678681439    12.000000000000
         C            2.369011902881    -0.112740071308     0.021683318561    12.000000000000
         H           -2.443234097119    -1.458521071308     0.944103318561     1.007825032230
         H           -2.420215097119    -1.559131071308    -0.800586681439     1.007825032230
         H           -4.101420097119     0.453056928692     0.821335318561     1.007825032230
         H           -4.729788097119    -0.994837071308     0.009984318561     1.007825032230
         H           -4.076212097119     0.355944928692    -0.937389681439     1.007825032230
         H            0.086943902881    -1.461530071308     0.095798318561     1.007825032230
         H            0.866877902881     1.511951928692    -0.068983681439     1.007825032230
         H            4.163072902881     0.425850928692    -0.023567681439     1.007825032230

  Basis Set: AUG-CC-PVTZ
    Blend: AUG-CC-PVTZ
  Basis Set: (AUG-CC-PVTZ AUX)
    Blend: AUG-CC-PVTZ-JKFIT
	 Reference Energy          =    -456.6294395339490961 [Eh]
	 Singles Energy            =      -0.0000000000000000 [Eh]
	 Same-Spin Energy          =      -0.4476470272929816 [Eh]
	 Opposite-Spin Energy      =      -1.4076881249761641 [Eh]
	 Correlation Energy        =      -1.8553351522691457 [Eh]
	 Total Energy              =    -458.4847746862182589 [Eh]

	 ================> DF-SCS-MP2 Energies <==================
	-----------------------------------------------------------
	 SCS Same-Spin Scale       =       0.3333333333333333 [-]
	 SCS Opposite-Spin Scale   =       1.2000000000000000 [-]
	 SCS Same-Spin Energy      =      -0.1492156757643272 [Eh]
	 SCS Opposite-Spin Energy  =      -1.6892257499713970 [Eh]
	 SCS Correlation Energy    =      -1.8384414257357242 [Eh]
	 SCS Total Energy          =    -458.4678809596848055 [Eh]
	-----------------------------------------------------------

  Dipole Moment: [D]
     X:    -0.2228      Y:    -1.1784      Z:     0.0611     Total:     1.2009

*** Psi4 exiting successfully. Buy a developer a beer!
