                               Psi4 1.3.2 release

  ==> Input File <==

--------------------------------------------------------------------------
#psi4
#
memory 32 gb

molecule  {
0 1
  O       -1.6636540     1.3623100    -0.0826750
  O        3.2950020     0.8732560    -0.0394660
  O        2.6676780    -1.2988900     0.0825990
  C       -2.5713650    -0.8630400     0.0337620
  C       -1.4513780     0.1516300    -0.0098980
  C       -3.9526870    -0.2300600    -0.0211700
  C       -0.0615660    -0.3898680     0.0323710
  C        0.9984040     0.4317740    -0.0078830
  C        2.3702780    -0.1170190     0.0219370
  H       -2.4419680    -1.4628000     0.9443570
  H       -2.4189490    -1.5634100    -0.8003330
  H       -4.1001540     0.4487780     0.8215890
  H       -4.7285220    -0.9991160     0.0102380
  H       -4.0749460     0.3516660    -0.9371360
  H        0.1019739    -1.5646842     0.1019041
  H        0.8681440     1.5076730    -0.0687300
  H        4.1643390     0.4215720    -0.0233140
units angstrom
no_reorient  #important for SAPT in psi4, default
symmetry c1  #important for SAPT in psi4, default
}

set PROPERTIES_ORIGIN ["COM"]
properties('MP2/aug-cc-pvtz', properties = ['dipole'])
--------------------------------------------------------------------------

    Molecular point group: c1
  Charge       = 0
  Multiplicity = 1
  Basis Set: AUG-CC-PVTZ
    Blend: AUG-CC-PVTZ
  Basis Set: (AUG-CC-PVTZ AUX)
    Blend: AUG-CC-PVTZ-JKFIT

    Orbital Energies [Eh]
    ---------------------

    Doubly Occupied:

       1A    -20.627608     2A    -20.561345     3A    -20.561169
       4A    -11.405428     5A    -11.350866     6A    -11.286194
       7A    -11.276335     8A    -11.252228     9A    -11.224986
      10A     -1.472177    11A     -1.391215    12A     -1.367373
      13A     -1.106343    14A     -1.065522    15A     -0.955634
      16A     -0.886852    17A     -0.798563    18A     -0.736586
      19A     -0.718516    20A     -0.709227    21A     -0.661006
      22A     -0.643834    23A     -0.640604    24A     -0.638989
      25A     -0.605341    26A     -0.558547    27A     -0.540290
      28A     -0.538282    29A     -0.524258    30A     -0.500826
      31A     -0.496030    32A     -0.471186    33A     -0.435327
      34A     -0.404498

  @DF-RHF Final Energy:  -456.62084758707203

   => Energetics <=

    Nuclear Repulsion Energy =            413.0191899261200206
    One-Electron Energy =               -1442.4537047366156912
    Two-Electron Energy =                 572.8136672234237494
    Total Energy =                       -456.6208475870720349
  Basis Set: (AUG-CC-PVTZ AUX)
    Blend: AUG-CC-PVTZ-RI
    Molecular point group: c1

    Geometry (in Angstrom), charge = 0, multiplicity = 1:

       Center              X                  Y                   Z               Mass
    ------------   -----------------  -----------------  -----------------  -----------------
         O           -1.663762342097     1.363088201688    -0.082721172671    15.994914619570
         O            3.294893657903     0.874034201688    -0.039512172671    15.994914619570
         O            2.667569657903    -1.298111798312     0.082552827329    15.994914619570
         C           -2.571473342097    -0.862261798312     0.033715827329    12.000000000000
         C           -1.451486342097     0.152408201688    -0.009944172671    12.000000000000
         C           -3.952795342097    -0.229281798312    -0.021216172671    12.000000000000
         C           -0.061674342097    -0.389089798312     0.032324827329    12.000000000000
         C            0.998295657903     0.432552201688    -0.007929172671    12.000000000000
         C            2.370169657903    -0.116240798312     0.021890827329    12.000000000000
         H           -2.442076342097    -1.462021798312     0.944310827329     1.007825032230
         H           -2.419057342097    -1.562631798312    -0.800379172671     1.007825032230
         H           -4.100262342097     0.449556201688     0.821542827329     1.007825032230
         H           -4.728630342097    -0.998337798312     0.010191827329     1.007825032230
         H           -4.075054342097     0.352444201688    -0.937182172671     1.007825032230
         H            0.101865557903    -1.563905998312     0.101857927329     1.007825032230
         H            0.868035657903     1.508451201688    -0.068776172671     1.007825032230
         H            4.164230657903     0.422350201688    -0.023360172671     1.007825032230

  Basis Set: AUG-CC-PVTZ
    Blend: AUG-CC-PVTZ
  Basis Set: (AUG-CC-PVTZ AUX)
    Blend: AUG-CC-PVTZ-JKFIT
	 Reference Energy          =    -456.6208475870720349 [Eh]
	 Singles Energy            =      -0.0000000000000000 [Eh]
	 Same-Spin Energy          =      -0.4486369151937482 [Eh]
	 Opposite-Spin Energy      =      -1.4100747909077893 [Eh]
	 Correlation Energy        =      -1.8587117061015375 [Eh]
	 Total Energy              =    -458.4795592931735655 [Eh]

	 ================> DF-SCS-MP2 Energies <==================
	-----------------------------------------------------------
	 SCS Same-Spin Scale       =       0.3333333333333333 [-]
	 SCS Opposite-Spin Scale   =       1.2000000000000000 [-]
	 SCS Same-Spin Energy      =      -0.1495456383979160 [Eh]
	 SCS Opposite-Spin Energy  =      -1.6920897490893472 [Eh]
	 SCS Correlation Energy    =      -1.8416353874872633 [Eh]
	 SCS Total Energy          =    -458.4624829745592933 [Eh]
	-----------------------------------------------------------

  Dipole Moment: [D]
     X:    -0.1693      Y:    -1.1803      Z:     0.0614     Total:     1.1939

*** Psi4 exiting successfully. Buy a developer a beer!
