                               Psi4 1.3.2 release

  ==> Input File <==

--------------------------------------------------------------------------
#psi4
#
memory 32 gb

molecule  {
0 1
  O       -1.6636540     1.3623100    -0.0826750
  O        3.2950020     0.8732560    -0.0394660
  O        2.6676780    -1.2988900     0.0825990
  C       -2.5713650    -0.8630400     0.0337620
  C       -1.4513780     0.1516300    -0.0098980
  C       -3.9526870    -0.2300600    -0.0211700
  C       -0.0615660    -0.3898680     0.0323710
  C        0.9984040     0.4317740    -0.0078830
  C        2.3702780    -0.1170190     0.0219370
  H       -2.4419680    -1.4628000     0.9443570
  H       -2.4189490    -1.5634100    -0.8003330
  H       -4.1001540     0.4487780     0.8215890
  H       -4.7285220    -0.9991160     0.0102380
  H       -4.0749460     0.3516660    -0.9371360
  H        0.0882100    -1.4658090     0.0960520
  H        0.8681440     1.5076730    -0.0687300
  H        3.9868887     0.5137704    -0.0266110
units angstrom
no_reorient  #important for SAPT in psi4, default
symmetry c1  #important for SAPT in psi4, default
}

set PROPERTIES_ORIGIN ["COM"]
properties('MP2/aug-cc-pvtz', properties = ['dipole'])
--------------------------------------------------------------------------

    Molecular point group: c1
  Charge       = 0
  Multiplicity = 1
  Basis Set: AUG-CC-PVTZ
    Blend: AUG-CC-PVTZ
  Basis Set: (AUG-CC-PVTZ AUX)
    Blend: AUG-CC-PVTZ-JKFIT

    Orbital Energies [Eh]
    ---------------------

    Doubly Occupied:

       1A    -20.610638     2A    -20.565575     3A    -20.561856
       4A    -11.409458     5A    -11.351058     6A    -11.278326
       7A    -11.276485     8A    -11.253334     9A    -11.225834
      10A     -1.517719    11A     -1.391818    12A     -1.386810
      13A     -1.112356    14A     -1.067342    15A     -0.972815
      16A     -0.903938    17A     -0.819509    18A     -0.749072
      19A     -0.731313    20A     -0.720459    21A     -0.664491
      22A     -0.650114    23A     -0.644950    24A     -0.641756
      25A     -0.618277    26A     -0.572629    27A     -0.541175
      28A     -0.540368    29A     -0.525205    30A     -0.506276
      31A     -0.498515    32A     -0.475137    33A     -0.436533
      34A     -0.405681

  @DF-RHF Final Energy:  -456.58449996968898

   => Energetics <=

    Nuclear Repulsion Energy =            414.9090542867979252
    One-Electron Energy =               -1445.7334627772320346
    Two-Electron Energy =                 574.2399085207450753
    Total Energy =                       -456.5844999696889772
  Basis Set: (AUG-CC-PVTZ AUX)
    Blend: AUG-CC-PVTZ-RI
    Molecular point group: c1

    Geometry (in Angstrom), charge = 0, multiplicity = 1:

       Center              X                  Y                   Z               Mass
    ------------   -----------------  -----------------  -----------------  -----------------
         O           -1.662257348311     1.361584314525    -0.082649162649    15.994914619570
         O            3.296398651689     0.872530314525    -0.039440162649    15.994914619570
         O            2.669074651689    -1.299615685475     0.082624837351    15.994914619570
         C           -2.569968348311    -0.863765685475     0.033787837351    12.000000000000
         C           -1.449981348311     0.150904314525    -0.009872162649    12.000000000000
         C           -3.951290348311    -0.230785685475    -0.021144162649    12.000000000000
         C           -0.060169348311    -0.390593685475     0.032396837351    12.000000000000
         C            0.999800651689     0.431048314525    -0.007857162649    12.000000000000
         C            2.371674651689    -0.117744685475     0.021962837351    12.000000000000
         H           -2.440571348311    -1.463525685475     0.944382837351     1.007825032230
         H           -2.417552348311    -1.564135685475    -0.800307162649     1.007825032230
         H           -4.098757348311     0.448052314525     0.821614837351     1.007825032230
         H           -4.727125348311    -0.999841685475     0.010263837351     1.007825032230
         H           -4.073549348311     0.350940314525    -0.937110162649     1.007825032230
         H            0.089606651689    -1.466534685475     0.096077837351     1.007825032230
         H            0.869540651689     1.506947314525    -0.068704162649     1.007825032230
         H            3.988285351689     0.513044714525    -0.026585162649     1.007825032230

  Basis Set: AUG-CC-PVTZ
    Blend: AUG-CC-PVTZ
  Basis Set: (AUG-CC-PVTZ AUX)
    Blend: AUG-CC-PVTZ-JKFIT
	 Reference Energy          =    -456.5844999696889772 [Eh]
	 Singles Energy            =      -0.0000000000000000 [Eh]
	 Same-Spin Energy          =      -0.4458342529560537 [Eh]
	 Opposite-Spin Energy      =      -1.4037815434178755 [Eh]
	 Correlation Energy        =      -1.8496157963739293 [Eh]
	 Total Energy              =    -458.4341157660629165 [Eh]

	 ================> DF-SCS-MP2 Energies <==================
	-----------------------------------------------------------
	 SCS Same-Spin Scale       =       0.3333333333333333 [-]
	 SCS Opposite-Spin Scale   =       1.2000000000000000 [-]
	 SCS Same-Spin Energy      =      -0.1486114176520179 [Eh]
	 SCS Opposite-Spin Energy  =      -1.6845378521014507 [Eh]
	 SCS Correlation Energy    =      -1.8331492697534686 [Eh]
	 SCS Total Energy          =    -458.4176492394424258 [Eh]
	-----------------------------------------------------------

  Dipole Moment: [D]
     X:    -0.4662      Y:    -1.1601      Z:     0.0629     Total:     1.2519

*** Psi4 exiting successfully. Buy a developer a beer!
