                               Psi4 1.3.2 release

  ==> Input File <==

--------------------------------------------------------------------------
#psi4
#
memory 32 gb

molecule  {
0 1
  O       -1.6636540     1.3623100    -0.0826750
  O        3.2950020     0.8732560    -0.0394660
  O        2.6676780    -1.2988900     0.0825990
  C       -2.5713650    -0.8630400     0.0337620
  C       -1.4513780     0.1516300    -0.0098980
  C       -3.9526870    -0.2300600    -0.0211700
  C       -0.1031647    -0.3333660     0.0289893
  C        0.9984040     0.4317740    -0.0078830
  C        2.3702780    -0.1170190     0.0219370
  H       -2.4419680    -1.4628000     0.9443570
  H       -2.4189490    -1.5634100    -0.8003330
  H       -4.1001540     0.4487780     0.8215890
  H       -4.7285220    -0.9991160     0.0102380
  H       -4.0749460     0.3516660    -0.9371360
  H        0.0882100    -1.4658090     0.0960520
  H        0.8119252     1.4993749    -0.0685674
  H        4.1643390     0.4215720    -0.0233140
units angstrom
no_reorient  #important for SAPT in psi4, default
symmetry c1  #important for SAPT in psi4, default
}

set PROPERTIES_ORIGIN ["COM"]
properties('MP2/aug-cc-pvtz', properties = ['dipole'])
--------------------------------------------------------------------------

    Molecular point group: c1
  Charge       = 0
  Multiplicity = 1
  Basis Set: AUG-CC-PVTZ
    Blend: AUG-CC-PVTZ
  Basis Set: (AUG-CC-PVTZ AUX)
    Blend: AUG-CC-PVTZ-JKFIT

    Orbital Energies [Eh]
    ---------------------

    Doubly Occupied:

       1A    -20.629548     2A    -20.564577     3A    -20.559491
       4A    -11.409860     5A    -11.345377     6A    -11.277965
       7A    -11.275503     8A    -11.252475     9A    -11.225104
      10A     -1.474304    11A     -1.392370    12A     -1.369788
      13A     -1.111500    14A     -1.065947    15A     -0.964139
      16A     -0.888731    17A     -0.807231    18A     -0.738987
      19A     -0.721316    20A     -0.711990    21A     -0.669183
      22A     -0.645421    23A     -0.640066    24A     -0.639982
      25A     -0.607676    26A     -0.554059    27A     -0.542587
      28A     -0.535457    29A     -0.524528    30A     -0.501869
      31A     -0.496895    32A     -0.474652    33A     -0.439175
      34A     -0.403113

  @DF-RHF Final Energy:  -456.62067213137993

   => Energetics <=

    Nuclear Repulsion Energy =            414.0698400129153356
    One-Electron Energy =               -1444.4592917830170791
    Two-Electron Energy =                 573.7687796387217531
    Total Energy =                       -456.6206721313799335
  Basis Set: (AUG-CC-PVTZ AUX)
    Blend: AUG-CC-PVTZ-RI
    Molecular point group: c1

    Geometry (in Angstrom), charge = 0, multiplicity = 1:

       Center              X                  Y                   Z               Mass
    ------------   -----------------  -----------------  -----------------  -----------------
         O           -1.659313091542     1.357080190557    -0.082359475043    15.994914619570
         O            3.299342908458     0.868026190557    -0.039150475043    15.994914619570
         O            2.672018908458    -1.304119809443     0.082914524957    15.994914619570
         C           -2.567024091542    -0.868269809443     0.034077524957    12.000000000000
         C           -1.447037091542     0.146400190557    -0.009582475043    12.000000000000
         C           -3.948346091542    -0.235289809443    -0.020854475043    12.000000000000
         C           -0.098823791542    -0.338595809443     0.029304824957    12.000000000000
         C            1.002744908458     0.426544190557    -0.007567475043    12.000000000000
         C            2.374618908458    -0.122248809443     0.022252524957    12.000000000000
         H           -2.437627091542    -1.468029809443     0.944672524957     1.007825032230
         H           -2.414608091542    -1.568639809443    -0.800017475043     1.007825032230
         H           -4.095813091542     0.443548190557     0.821904524957     1.007825032230
         H           -4.724181091542    -1.004345809443     0.010553524957     1.007825032230
         H           -4.070605091542     0.346436190557    -0.936820475043     1.007825032230
         H            0.092550908458    -1.471038809443     0.096367524957     1.007825032230
         H            0.816266108458     1.494145090557    -0.068251875043     1.007825032230
         H            4.168679908458     0.416342190557    -0.022998475043     1.007825032230

  Basis Set: AUG-CC-PVTZ
    Blend: AUG-CC-PVTZ
  Basis Set: (AUG-CC-PVTZ AUX)
    Blend: AUG-CC-PVTZ-JKFIT
	 Reference Energy          =    -456.6206721313799335 [Eh]
	 Singles Energy            =      -0.0000000000000000 [Eh]
	 Same-Spin Energy          =      -0.4491688120323307 [Eh]
	 Opposite-Spin Energy      =      -1.4105409637438449 [Eh]
	 Correlation Energy        =      -1.8597097757761756 [Eh]
	 Total Energy              =    -458.4803819071561293 [Eh]

	 ================> DF-SCS-MP2 Energies <==================
	-----------------------------------------------------------
	 SCS Same-Spin Scale       =       0.3333333333333333 [-]
	 SCS Opposite-Spin Scale   =       1.2000000000000000 [-]
	 SCS Same-Spin Energy      =      -0.1497229373441102 [Eh]
	 SCS Opposite-Spin Energy  =      -1.6926491564926138 [Eh]
	 SCS Correlation Energy    =      -1.8423720938367241 [Eh]
	 SCS Total Energy          =    -458.4630442252166631 [Eh]
	-----------------------------------------------------------

  Dipole Moment: [D]
     X:    -0.0822      Y:    -1.1738      Z:     0.0611     Total:     1.1783

*** Psi4 exiting successfully. Buy a developer a beer!
