                               Psi4 1.4a3.dev225

  ==> Input File <==

--------------------------------------------------------------------------
#psi4
#
memory 32 gb

molecule  {
0 1
  O       -1.5457390    -1.4151030    -0.0000120
  O        3.4055420    -0.8324430     0.0000000
  O        2.7346890     1.3362110     0.0000030
  C       -2.4962220     0.7973420     0.0000070
  C       -1.3720373    -0.1844005    -0.0000117
  C       -3.8659970     0.1363490     0.0000100
  C        0.0231420     0.3709680    -0.0000240
  C        1.1002740    -0.4324720     0.0000170
  C        2.4625110     0.1452670     0.0000070
  H       -2.3684100     1.4519690    -0.8733630
  H       -2.3683970     1.4519470     0.8733920
  H       -3.9887950    -0.4970190    -0.8807080
  H       -4.6559460     0.8916380     0.0000190
  H       -3.9887860    -0.4970320     0.8807180
  H        0.1589340     1.4510060    -0.0000590
  H        0.9863010    -1.5124980     0.0000520
  H        4.2687480    -0.3687180    -0.0000090
units angstrom
no_reorient  #important for SAPT in psi4, default
symmetry c1  #important for SAPT in psi4, default
}

set PROPERTIES_ORIGIN ["COM"]
properties('MP2/aug-cc-pvtz', properties = ['dipole'])
--------------------------------------------------------------------------

    Molecular point group: c1
  Charge       = 0
  Multiplicity = 1
  Basis Set: AUG-CC-PVTZ
    Blend: AUG-CC-PVTZ
  Basis Set: (AUG-CC-PVTZ AUX)
    Blend: AUG-CC-PVTZ-JKFIT

    Orbital Energies [Eh]
    ---------------------

    Doubly Occupied:

       1A    -20.627448     2A    -20.561280     3A    -20.560351
       4A    -11.405879     5A    -11.351811     6A    -11.277233
       7A    -11.275159     8A    -11.253710     9A    -11.226313
      10A     -1.470522    11A     -1.383442    12A     -1.366751
      13A     -1.107194    14A     -1.069580    15A     -0.956464
      16A     -0.889602    17A     -0.798396    18A     -0.745624
      19A     -0.718656    20A     -0.711907    21A     -0.661292
      22A     -0.644903    23A     -0.639113    24A     -0.638850
      25A     -0.605948    26A     -0.568296    27A     -0.539928
      28A     -0.537963    29A     -0.525061    30A     -0.500723
      31A     -0.494940    32A     -0.470730    33A     -0.437746
      34A     -0.402594

  @DF-RHF Final Energy:  -456.62609582270460

   => Energetics <=

    Nuclear Repulsion Energy =            413.0516733537188543
    One-Electron Energy =               -1442.5047168866924494
    Two-Electron Energy =                 572.8269477102689962
    Total Energy =                       -456.6260958227046558
  Basis Set: (AUG-CC-PVTZ AUX)
    Blend: AUG-CC-PVTZ-RI
    Molecular point group: c1

    Geometry (in Angstrom), charge = 0, multiplicity = 1:

       Center              X                  Y                   Z               Mass
    ------------   -----------------  -----------------  -----------------  -----------------
         O           -1.636788493520    -1.397998115195    -0.000011703035    15.994914619570
         O            3.314492506480    -0.815338115195     0.000000296965    15.994914619570
         O            2.643639506480     1.353315884805     0.000003296965    15.994914619570
         C           -2.587271493520     0.814446884805     0.000007296965    12.000000000000
         C           -1.463086793520    -0.167295615195    -0.000011403035    12.000000000000
         C           -3.957046493520     0.153453884805     0.000010296965    12.000000000000
         C           -0.067907493520     0.388072884805    -0.000023703035    12.000000000000
         C            1.009224506480    -0.415367115195     0.000017296965    12.000000000000
         C            2.371461506480     0.162371884805     0.000007296965    12.000000000000
         H           -2.459459493520     1.469073884805    -0.873362703035     1.007825032230
         H           -2.459446493520     1.469051884805     0.873392296965     1.007825032230
         H           -4.079844493520    -0.479914115195    -0.880707703035     1.007825032230
         H           -4.746995493520     0.908742884805     0.000019296965     1.007825032230
         H           -4.079835493520    -0.479927115195     0.880718296965     1.007825032230
         H            0.067884506480     1.468110884805    -0.000058703035     1.007825032230
         H            0.895251506480    -1.495393115195     0.000052296965     1.007825032230
         H            4.177698506480    -0.351613115195    -0.000008703035     1.007825032230

  Basis Set: AUG-CC-PVTZ
    Blend: AUG-CC-PVTZ
  Basis Set: (AUG-CC-PVTZ AUX)
    Blend: AUG-CC-PVTZ-JKFIT
	 Reference Energy          =    -456.6260958227045990 [Eh]
	 Singles Energy            =      -0.0000000000000000 [Eh]
	 Same-Spin Energy          =      -0.4487006385381557 [Eh]
	 Opposite-Spin Energy      =      -1.4100807073580315 [Eh]
	 Correlation Energy        =      -1.8587813458961873 [Eh]
	 Total Energy              =    -458.4848771686008035 [Eh]

	 ================> DF-SCS-MP2 Energies <==================
	-----------------------------------------------------------
	 SCS Same-Spin Scale       =       0.3333333333333333 [-]
	 SCS Opposite-Spin Scale   =       1.2000000000000000 [-]
	 SCS Same-Spin Energy      =      -0.1495668795127186 [Eh]
	 SCS Opposite-Spin Energy  =      -1.6920968488296377 [Eh]
	 SCS Correlation Energy    =      -1.8416637283423563 [Eh]
	 SCS Total Energy          =    -458.4677595510469814 [Eh]
	-----------------------------------------------------------

  Dipole Moment: [D]
     X:    -0.2953      Y:     1.2346      Z:     0.0000     Total:     1.2695

*** Psi4 exiting successfully. Buy a developer a beer!
