                               Psi4 1.3.2 release

  ==> Input File <==

--------------------------------------------------------------------------
#psi4
#
memory 32 gb

molecule  {
0 1
  O       -1.6636540     1.3623100    -0.0826750
  O        3.2598148     0.9048969    -0.0408448
  O        2.6261976    -1.3085148     0.0834885
  C       -2.5713650    -0.8630400     0.0337620
  C       -1.4513780     0.1516300    -0.0098980
  C       -3.9526870    -0.2300600    -0.0211700
  C       -0.0615660    -0.3898680     0.0323710
  C        0.9984040     0.4317740    -0.0078830
  C        2.3702780    -0.1170190     0.0219370
  H       -2.4419680    -1.4628000     0.9443570
  H       -2.4189490    -1.5634100    -0.8003330
  H       -4.1001540     0.4487780     0.8215890
  H       -4.7285220    -0.9991160     0.0102380
  H       -4.0749460     0.3516660    -0.9371360
  H        0.0882100    -1.4658090     0.0960520
  H        0.8681440     1.5076730    -0.0687300
  H        4.1643390     0.4215720    -0.0233140
units angstrom
no_reorient  #important for SAPT in psi4, default
symmetry c1  #important for SAPT in psi4, default
}

set PROPERTIES_ORIGIN ["COM"]
properties('MP2/aug-cc-pvtz', properties = ['dipole'])
--------------------------------------------------------------------------

    Molecular point group: c1
  Charge       = 0
  Multiplicity = 1
  Basis Set: AUG-CC-PVTZ
    Blend: AUG-CC-PVTZ
  Basis Set: (AUG-CC-PVTZ AUX)
    Blend: AUG-CC-PVTZ-JKFIT

    Orbital Energies [Eh]
    ---------------------

    Doubly Occupied:

       1A    -20.637170     2A    -20.564227     3A    -20.558532
       4A    -11.406064     5A    -11.347888     6A    -11.273168
       7A    -11.271333     8A    -11.251045     9A    -11.224075
      10A     -1.468783    11A     -1.388591    12A     -1.370956
      13A     -1.105748    14A     -1.063939    15A     -0.953870
      16A     -0.883923    17A     -0.792678    18A     -0.745101
      19A     -0.715946    20A     -0.713542    21A     -0.660701
      22A     -0.644503    23A     -0.638908    24A     -0.637811
      25A     -0.605146    26A     -0.568789    27A     -0.538484
      28A     -0.537966    29A     -0.523128    30A     -0.502686
      31A     -0.496208    32A     -0.471787    33A     -0.433191
      34A     -0.401497

  @DF-RHF Final Energy:  -456.62159604057939

   => Energetics <=

    Nuclear Repulsion Energy =            413.7231230748911912
    One-Electron Energy =               -1443.8946705299872519
    Two-Electron Energy =                 573.5499514145167268
    Total Energy =                       -456.6215960405793339
  Basis Set: (AUG-CC-PVTZ AUX)
    Blend: AUG-CC-PVTZ-RI
    Molecular point group: c1

    Geometry (in Angstrom), charge = 0, multiplicity = 1:

       Center              X                  Y                   Z               Mass
    ------------   -----------------  -----------------  -----------------  -----------------
         O           -1.654077148487     1.359559861882    -0.082613991966    15.994914619570
         O            3.269391651513     0.902146761882    -0.040783791966    15.994914619570
         O            2.635774451513    -1.311264938118     0.083549508034    15.994914619570
         C           -2.561788148487    -0.865790138118     0.033823008034    12.000000000000
         C           -1.441801148487     0.148879861882    -0.009836991966    12.000000000000
         C           -3.943110148487    -0.232810138118    -0.021108991966    12.000000000000
         C           -0.051989148487    -0.392618138118     0.032432008034    12.000000000000
         C            1.007980851513     0.429023861882    -0.007821991966    12.000000000000
         C            2.379854851513    -0.119769138118     0.021998008034    12.000000000000
         H           -2.432391148487    -1.465550138118     0.944418008034     1.007825032230
         H           -2.409372148487    -1.566160138118    -0.800271991966     1.007825032230
         H           -4.090577148487     0.446027861882     0.821650008034     1.007825032230
         H           -4.718945148487    -1.001866138118     0.010299008034     1.007825032230
         H           -4.065369148487     0.348915861882    -0.937074991966     1.007825032230
         H            0.097786851513    -1.468559138118     0.096113008034     1.007825032230
         H            0.877720851513     1.504922861882    -0.068668991966     1.007825032230
         H            4.173915851513     0.418821861882    -0.023252991966     1.007825032230

  Basis Set: AUG-CC-PVTZ
    Blend: AUG-CC-PVTZ
  Basis Set: (AUG-CC-PVTZ AUX)
    Blend: AUG-CC-PVTZ-JKFIT
	 Reference Energy          =    -456.6215960405793908 [Eh]
	 Singles Energy            =      -0.0000000000000000 [Eh]
	 Same-Spin Energy          =      -0.4493015736537759 [Eh]
	 Opposite-Spin Energy      =      -1.4112943765592545 [Eh]
	 Correlation Energy        =      -1.8605959502130305 [Eh]
	 Total Energy              =    -458.4821919907924439 [Eh]

	 ================> DF-SCS-MP2 Energies <==================
	-----------------------------------------------------------
	 SCS Same-Spin Scale       =       0.3333333333333333 [-]
	 SCS Opposite-Spin Scale   =       1.2000000000000000 [-]
	 SCS Same-Spin Energy      =      -0.1497671912179253 [Eh]
	 SCS Opposite-Spin Energy  =      -1.6935532518711054 [Eh]
	 SCS Correlation Energy    =      -1.8433204430890306 [Eh]
	 SCS Total Energy          =    -458.4649164836684463 [Eh]
	-----------------------------------------------------------

  Dipole Moment: [D]
     X:     0.0991      Y:    -1.1903      Z:     0.0611     Total:     1.1959

*** Psi4 exiting successfully. Buy a developer a beer!
