                               Psi4 1.4a3.dev225

  ==> Input File <==

--------------------------------------------------------------------------
#psi4
#
memory 32 gb

molecule  {
0 1
  O       -1.5457390    -1.4151030    -0.0000120
  O        3.4055420    -0.8324430     0.0000000
  O        2.7346890     1.3362110     0.0000030
  C       -2.4962220     0.7973420     0.0000070
  C       -1.3193123    -0.2304448    -0.0000126
  C       -3.8659970     0.1363490     0.0000100
  C        0.0231420     0.3709680    -0.0000240
  C        1.1002740    -0.4324720     0.0000170
  C        2.4625110     0.1452670     0.0000070
  H       -2.3684100     1.4519690    -0.8733630
  H       -2.3683970     1.4519470     0.8733920
  H       -3.9887950    -0.4970190    -0.8807080
  H       -4.6559460     0.8916380     0.0000190
  H       -3.9887860    -0.4970320     0.8807180
  H        0.1589340     1.4510060    -0.0000590
  H        0.9863010    -1.5124980     0.0000520
  H        4.2687480    -0.3687180    -0.0000090
units angstrom
no_reorient  #important for SAPT in psi4, default
symmetry c1  #important for SAPT in psi4, default
}

set PROPERTIES_ORIGIN ["COM"]
properties('MP2/aug-cc-pvtz', properties = ['dipole'])
--------------------------------------------------------------------------

    Molecular point group: c1
  Charge       = 0
  Multiplicity = 1
  Basis Set: AUG-CC-PVTZ
    Blend: AUG-CC-PVTZ
  Basis Set: (AUG-CC-PVTZ AUX)
    Blend: AUG-CC-PVTZ-JKFIT

    Orbital Energies [Eh]
    ---------------------

    Doubly Occupied:

       1A    -20.629236     2A    -20.563744     3A    -20.562001
       4A    -11.407746     5A    -11.347137     6A    -11.278979
       7A    -11.275395     8A    -11.249468     9A    -11.222316
      10A     -1.472483    11A     -1.407015    12A     -1.368869
      13A     -1.112114    14A     -1.055443    15A     -0.958443
      16A     -0.881711    17A     -0.800182    18A     -0.750408
      19A     -0.717629    20A     -0.714355    21A     -0.661612
      22A     -0.644155    23A     -0.643155    24A     -0.635064
      25A     -0.607775    26A     -0.574497    27A     -0.546588
      28A     -0.537674    29A     -0.522524    30A     -0.500850
      31A     -0.497835    32A     -0.473111    33A     -0.427643
      34A     -0.406566

  @DF-RHF Final Energy:  -456.62760674966546

   => Energetics <=

    Nuclear Repulsion Energy =            413.4444696214109740
    One-Electron Energy =               -1443.2367056161147048
    Two-Electron Energy =                 573.1646292450383271
    Total Energy =                       -456.6276067496654605
  Basis Set: (AUG-CC-PVTZ AUX)
    Blend: AUG-CC-PVTZ-RI
    Molecular point group: c1

    Geometry (in Angstrom), charge = 0, multiplicity = 1:

       Center              X                  Y                   Z               Mass
    ------------   -----------------  -----------------  -----------------  -----------------
         O           -1.641729634661    -1.393683058106    -0.000011618691    15.994914619570
         O            3.309551365339    -0.811023058106     0.000000381309    15.994914619570
         O            2.638698365339     1.357630941894     0.000003381309    15.994914619570
         C           -2.592212634661     0.818761941894     0.000007381309    12.000000000000
         C           -1.415302934661    -0.209024858106    -0.000012218691    12.000000000000
         C           -3.961987634661     0.157768941894     0.000010381309    12.000000000000
         C           -0.072848634661     0.392387941894    -0.000023618691    12.000000000000
         C            1.004283365339    -0.411052058106     0.000017381309    12.000000000000
         C            2.366520365339     0.166686941894     0.000007381309    12.000000000000
         H           -2.464400634661     1.473388941894    -0.873362618691     1.007825032230
         H           -2.464387634661     1.473366941894     0.873392381309     1.007825032230
         H           -4.084785634661    -0.475599058106    -0.880707618691     1.007825032230
         H           -4.751936634661     0.913057941894     0.000019381309     1.007825032230
         H           -4.084776634661    -0.475612058106     0.880718381309     1.007825032230
         H            0.062943365339     1.472425941894    -0.000058618691     1.007825032230
         H            0.890310365339    -1.491078058106     0.000052381309     1.007825032230
         H            4.172757365339    -0.347298058106    -0.000008618691     1.007825032230

  Basis Set: AUG-CC-PVTZ
    Blend: AUG-CC-PVTZ
  Basis Set: (AUG-CC-PVTZ AUX)
    Blend: AUG-CC-PVTZ-JKFIT
	 Reference Energy          =    -456.6276067496654605 [Eh]
	 Singles Energy            =      -0.0000000000000000 [Eh]
	 Same-Spin Energy          =      -0.4477335900417844 [Eh]
	 Opposite-Spin Energy      =      -1.4080539056303945 [Eh]
	 Correlation Energy        =      -1.8557874956721787 [Eh]
	 Total Energy              =    -458.4833942453376494 [Eh]

	 ================> DF-SCS-MP2 Energies <==================
	-----------------------------------------------------------
	 SCS Same-Spin Scale       =       0.3333333333333333 [-]
	 SCS Opposite-Spin Scale   =       1.2000000000000000 [-]
	 SCS Same-Spin Energy      =      -0.1492445300139281 [Eh]
	 SCS Opposite-Spin Energy  =      -1.6896646867564733 [Eh]
	 SCS Correlation Energy    =      -1.8389092167704013 [Eh]
	 SCS Total Energy          =    -458.4665159664358498 [Eh]
	-----------------------------------------------------------

  Dipole Moment: [D]
     X:     0.1017      Y:     1.0308      Z:     0.0000     Total:     1.0358

*** Psi4 exiting successfully. Buy a developer a beer!
