                               Psi4 1.4a3.dev225

  ==> Input File <==

--------------------------------------------------------------------------
#psi4
#
memory 32 gb

molecule  {
0 1
  O       -1.5457390    -1.4151030    -0.0000120
  O        3.4055420    -0.8324430     0.0000000
  O        2.7346890     1.3362110     0.0000030
  C       -2.4962220     0.7973420     0.0000070
  C       -1.3569730    -0.1975560    -0.0000120
  C       -3.8659970     0.1363490     0.0000100
  C        0.0231420     0.3709680    -0.0000240
  C        1.1002740    -0.4324720     0.0000170
  C        2.4625110     0.1452670     0.0000070
  H       -2.3684100     1.4519690    -0.8733630
  H       -2.3683970     1.4519470     0.8733920
  H       -3.9887950    -0.4970190    -0.8807080
  H       -4.6559460     0.8916380     0.0000190
  H       -3.9887860    -0.4970320     0.8807180
  H        0.1526967     1.4013966    -0.0000574
  H        0.9863010    -1.5124980     0.0000520
  H        4.2687480    -0.3687180    -0.0000090
units angstrom
no_reorient  #important for SAPT in psi4, default
symmetry c1  #important for SAPT in psi4, default
}

set PROPERTIES_ORIGIN ["COM"]
properties('MP2/aug-cc-pvtz', properties = ['dipole'])
--------------------------------------------------------------------------

    Molecular point group: c1
  Charge       = 0
  Multiplicity = 1
  Basis Set: AUG-CC-PVTZ
    Blend: AUG-CC-PVTZ
  Basis Set: (AUG-CC-PVTZ AUX)
    Blend: AUG-CC-PVTZ-JKFIT

    Orbital Energies [Eh]
    ---------------------

    Doubly Occupied:

       1A    -20.627963     2A    -20.562078     3A    -20.560532
       4A    -11.406432     5A    -11.349996     6A    -11.276483
       7A    -11.270936     8A    -11.252793     9A    -11.225265
      10A     -1.471115    11A     -1.389908    12A     -1.367421
      13A     -1.110222    14A     -1.065553    15A     -0.957976
      16A     -0.887981    17A     -0.799439    18A     -0.753936
      19A     -0.718207    20A     -0.713910    21A     -0.661473
      22A     -0.643574    23A     -0.640580    24A     -0.638767
      25A     -0.607416    26A     -0.575046    27A     -0.539836
      28A     -0.539494    29A     -0.524488    30A     -0.501013
      31A     -0.496112    32A     -0.471413    33A     -0.435510
      34A     -0.403645

  @DF-RHF Final Energy:  -456.62706664422404

   => Energetics <=

    Nuclear Repulsion Energy =            413.4018287743697329
    One-Electron Energy =               -1443.1647591234411721
    Two-Electron Energy =                 573.1358637048474520
    Total Energy =                       -456.6270666442239872
  Basis Set: (AUG-CC-PVTZ AUX)
    Blend: AUG-CC-PVTZ-RI
    Molecular point group: c1

    Geometry (in Angstrom), charge = 0, multiplicity = 1:

       Center              X                  Y                   Z               Mass
    ------------   -----------------  -----------------  -----------------  -----------------
         O           -1.638151157417    -1.396374781290    -0.000011687514    15.994914619570
         O            3.313129842583    -0.813714781290     0.000000312486    15.994914619570
         O            2.642276842583     1.354939218710     0.000003312486    15.994914619570
         C           -2.588634157417     0.816070218710     0.000007312486    12.000000000000
         C           -1.449385157417    -0.178827781290    -0.000011687514    12.000000000000
         C           -3.958409157417     0.155077218710     0.000010312486    12.000000000000
         C           -0.069270157417     0.389696218710    -0.000023687514    12.000000000000
         C            1.007861842583    -0.413743781290     0.000017312486    12.000000000000
         C            2.370098842583     0.163995218710     0.000007312486    12.000000000000
         H           -2.460822157417     1.470697218710    -0.873362687514     1.007825032230
         H           -2.460809157417     1.470675218710     0.873392312486     1.007825032230
         H           -4.081207157417    -0.478290781290    -0.880707687514     1.007825032230
         H           -4.748358157417     0.910366218710     0.000019312486     1.007825032230
         H           -4.081198157417    -0.478303781290     0.880718312486     1.007825032230
         H            0.060284542583     1.420124818710    -0.000057087514     1.007825032230
         H            0.893888842583    -1.493769781290     0.000052312486     1.007825032230
         H            4.176335842583    -0.349989781290    -0.000008687514     1.007825032230

  Basis Set: AUG-CC-PVTZ
    Blend: AUG-CC-PVTZ
  Basis Set: (AUG-CC-PVTZ AUX)
    Blend: AUG-CC-PVTZ-JKFIT
	 Reference Energy          =    -456.6270666442240440 [Eh]
	 Singles Energy            =      -0.0000000000000000 [Eh]
	 Same-Spin Energy          =      -0.4482184502688894 [Eh]
	 Opposite-Spin Energy      =      -1.4090638479051985 [Eh]
	 Correlation Energy        =      -1.8572822981740877 [Eh]
	 Total Energy              =    -458.4843489423981282 [Eh]

	 ================> DF-SCS-MP2 Energies <==================
	-----------------------------------------------------------
	 SCS Same-Spin Scale       =       0.3333333333333333 [-]
	 SCS Opposite-Spin Scale   =       1.2000000000000000 [-]
	 SCS Same-Spin Energy      =      -0.1494061500896298 [Eh]
	 SCS Opposite-Spin Energy  =      -1.6908766174862382 [Eh]
	 SCS Correlation Energy    =      -1.8402827675758680 [Eh]
	 SCS Total Energy          =    -458.4673494117998871 [Eh]
	-----------------------------------------------------------

  Dipole Moment: [D]
     X:    -0.1860      Y:     1.1766      Z:     0.0000     Total:     1.1912

*** Psi4 exiting successfully. Buy a developer a beer!
