                               Psi4 1.3.2 release

  ==> Input File <==

--------------------------------------------------------------------------
#psi4
#
memory 32 gb

molecule  {
0 1
  O       -1.6636540     1.3623100    -0.0826750
  O        3.2950020     0.8732560    -0.0394660
  O        2.6676780    -1.2988900     0.0825990
  C       -2.5713650    -0.8630400     0.0337620
  C       -1.4513780     0.1516300    -0.0098980
  C       -3.9526870    -0.2300600    -0.0211700
  C       -0.0615660    -0.3898680     0.0323710
  C        0.9984040     0.4317740    -0.0078830
  C        2.2339174    -0.2630458     0.0309915
  H       -2.4419680    -1.4628000     0.9443570
  H       -2.4189490    -1.5634100    -0.8003330
  H       -4.1001540     0.4487780     0.8215890
  H       -4.7285220    -0.9991160     0.0102380
  H       -4.0749460     0.3516660    -0.9371360
  H        0.0882100    -1.4658090     0.0960520
  H        0.8681440     1.5076730    -0.0687300
  H        4.1643390     0.4215720    -0.0233140
units angstrom
no_reorient  #important for SAPT in psi4, default
symmetry c1  #important for SAPT in psi4, default
}

set PROPERTIES_ORIGIN ["COM"]
properties('MP2/aug-cc-pvtz', properties = ['dipole'])
--------------------------------------------------------------------------

    Molecular point group: c1
  Charge       = 0
  Multiplicity = 1
  Basis Set: AUG-CC-PVTZ
    Blend: AUG-CC-PVTZ
  Basis Set: (AUG-CC-PVTZ AUX)
    Blend: AUG-CC-PVTZ-JKFIT

    Orbital Energies [Eh]
    ---------------------

    Doubly Occupied:

       1A    -20.590598     2A    -20.570418     3A    -20.563141
       4A    -11.402953     5A    -11.357781     6A    -11.289861
       7A    -11.283647     8A    -11.258967     9A    -11.230109
      10A     -1.500142    11A     -1.399420    12A     -1.317465
      13A     -1.133494    14A     -1.074382    15A     -0.965261
      16A     -0.883317    17A     -0.778263    18A     -0.767554
      19A     -0.723965    20A     -0.705024    21A     -0.661256
      22A     -0.649274    23A     -0.642165    24A     -0.639412
      25A     -0.602300    26A     -0.588202    27A     -0.546268
      28A     -0.544981    29A     -0.530221    30A     -0.504980
      31A     -0.484653    32A     -0.460275    33A     -0.441675
      34A     -0.419907

  @DF-RHF Final Energy:  -456.58914323143233

   => Energetics <=

    Nuclear Repulsion Energy =            414.3449437601772161
    One-Electron Energy =               -1444.8455089438716641
    Two-Electron Energy =                 573.9114219522622307
    Total Energy =                       -456.5891432314323310
  Basis Set: (AUG-CC-PVTZ AUX)
    Blend: AUG-CC-PVTZ-RI
    Molecular point group: c1

    Geometry (in Angstrom), charge = 0, multiplicity = 1:

       Center              X                  Y                   Z               Mass
    ------------   -----------------  -----------------  -----------------  -----------------
         O           -1.650874930692     1.375994933255    -0.083523657938    15.994914619570
         O            3.307781069308     0.886940933255    -0.040314657938    15.994914619570
         O            2.680457069308    -1.285205066745     0.081750342062    15.994914619570
         C           -2.558585930692    -0.849355066745     0.032913342062    12.000000000000
         C           -1.438598930692     0.165314933255    -0.010746657938    12.000000000000
         C           -3.939907930692    -0.216375066745    -0.022018657938    12.000000000000
         C           -0.048786930692    -0.376183066745     0.031522342062    12.000000000000
         C            1.011183069308     0.445458933255    -0.008731657938    12.000000000000
         C            2.246696469308    -0.249360866745     0.030142842062    12.000000000000
         H           -2.429188930692    -1.449115066745     0.943508342062     1.007825032230
         H           -2.406169930692    -1.549725066745    -0.801181657938     1.007825032230
         H           -4.087374930692     0.462462933255     0.820740342062     1.007825032230
         H           -4.715742930692    -0.985431066745     0.009389342062     1.007825032230
         H           -4.062166930692     0.365350933255    -0.937984657938     1.007825032230
         H            0.100989069308    -1.452124066745     0.095203342062     1.007825032230
         H            0.880923069308     1.521357933255    -0.069578657938     1.007825032230
         H            4.177118069308     0.435256933255    -0.024162657938     1.007825032230

  Basis Set: AUG-CC-PVTZ
    Blend: AUG-CC-PVTZ
  Basis Set: (AUG-CC-PVTZ AUX)
    Blend: AUG-CC-PVTZ-JKFIT
	 Reference Energy          =    -456.5891432314323310 [Eh]
	 Singles Energy            =      -0.0000000000000000 [Eh]
	 Same-Spin Energy          =      -0.4491360154435632 [Eh]
	 Opposite-Spin Energy      =      -1.4113700161250080 [Eh]
	 Correlation Energy        =      -1.8605060315685713 [Eh]
	 Total Energy              =    -458.4496492630008788 [Eh]

	 ================> DF-SCS-MP2 Energies <==================
	-----------------------------------------------------------
	 SCS Same-Spin Scale       =       0.3333333333333333 [-]
	 SCS Opposite-Spin Scale   =       1.2000000000000000 [-]
	 SCS Same-Spin Energy      =      -0.1497120051478544 [Eh]
	 SCS Opposite-Spin Energy  =      -1.6936440193500095 [Eh]
	 SCS Correlation Energy    =      -1.8433560244978640 [Eh]
	 SCS Total Energy          =    -458.4324992559301677 [Eh]
	-----------------------------------------------------------

  Dipole Moment: [D]
     X:    -1.7198      Y:    -2.4823      Z:     0.1375     Total:     3.0229

*** Psi4 exiting successfully. Buy a developer a beer!
