                               Psi4 1.3.2 release

  ==> Input File <==

--------------------------------------------------------------------------
#psi4
#
memory 32 gb

molecule  {
0 1
  O       -1.6636540     1.3623100    -0.0826750
  O        3.2950020     0.8732560    -0.0394660
  O        2.6676780    -1.2988900     0.0825990
  C       -2.5713650    -0.8630400     0.0337620
  C       -1.4465864     0.1637197    -0.0105632
  C       -3.9526870    -0.2300600    -0.0211700
  C       -0.0615660    -0.3898680     0.0323710
  C        0.9984040     0.4317740    -0.0078830
  C        2.3702780    -0.1170190     0.0219370
  H       -2.4419680    -1.4628000     0.9443570
  H       -2.4189490    -1.5634100    -0.8003330
  H       -4.1001540     0.4487780     0.8215890
  H       -4.7285220    -0.9991160     0.0102380
  H       -4.0749460     0.3516660    -0.9371360
  H        0.0976097    -1.4644589     0.0960466
  H        0.8681440     1.5076730    -0.0687300
  H        4.1643390     0.4215720    -0.0233140
units angstrom
no_reorient  #important for SAPT in psi4, default
symmetry c1  #important for SAPT in psi4, default
}

set PROPERTIES_ORIGIN ["COM"]
properties('MP2/aug-cc-pvtz', properties = ['dipole'])
--------------------------------------------------------------------------

    Molecular point group: c1
  Charge       = 0
  Multiplicity = 1
  Basis Set: AUG-CC-PVTZ
    Blend: AUG-CC-PVTZ
  Basis Set: (AUG-CC-PVTZ AUX)
    Blend: AUG-CC-PVTZ-JKFIT

    Orbital Energies [Eh]
    ---------------------

    Doubly Occupied:

       1A    -20.627634     2A    -20.561601     3A    -20.561443
       4A    -11.405429     5A    -11.349263     6A    -11.276550
       7A    -11.274883     8A    -11.251737     9A    -11.224558
      10A     -1.472284    11A     -1.398094    12A     -1.367588
      13A     -1.109122    14A     -1.063384    15A     -0.956462
      16A     -0.886104    17A     -0.798484    18A     -0.747738
      19A     -0.718584    20A     -0.713033    21A     -0.661723
      22A     -0.643533    23A     -0.642431    24A     -0.638542
      25A     -0.607113    26A     -0.571182    27A     -0.542525
      28A     -0.539092    29A     -0.524312    30A     -0.501070
      31A     -0.496943    32A     -0.471343    33A     -0.433470
      34A     -0.404824

  @DF-RHF Final Energy:  -456.62938537460758

   => Energetics <=

    Nuclear Repulsion Energy =            413.5557574865185870
    One-Electron Energy =               -1443.4861395646953497
    Two-Electron Energy =                 573.3009967035692398
    Total Energy =                       -456.6293853746075229
  Basis Set: (AUG-CC-PVTZ AUX)
    Blend: AUG-CC-PVTZ-RI
    Molecular point group: c1

    Geometry (in Angstrom), charge = 0, multiplicity = 1:

       Center              X                  Y                   Z               Mass
    ------------   -----------------  -----------------  -----------------  -----------------
         O           -1.664177039101     1.361166365918    -0.082612730475    15.994914619570
         O            3.294478960899     0.872112365918    -0.039403730475    15.994914619570
         O            2.667154960899    -1.300033634082     0.082661269525    15.994914619570
         C           -2.571888039101    -0.864183634082     0.033824269525    12.000000000000
         C           -1.447109439101     0.162576065918    -0.010500930475    12.000000000000
         C           -3.953210039101    -0.231203634082    -0.021107730475    12.000000000000
         C           -0.062089039101    -0.391011634082     0.032433269525    12.000000000000
         C            0.997880960899     0.430630365918    -0.007820730475    12.000000000000
         C            2.369754960899    -0.118162634082     0.021999269525    12.000000000000
         H           -2.442491039101    -1.463943634082     0.944419269525     1.007825032230
         H           -2.419472039101    -1.564553634082    -0.800270730475     1.007825032230
         H           -4.100677039101     0.447634365918     0.821651269525     1.007825032230
         H           -4.729045039101    -1.000259634082     0.010300269525     1.007825032230
         H           -4.075469039101     0.350522365918    -0.937073730475     1.007825032230
         H            0.097086660899    -1.465602534082     0.096108869525     1.007825032230
         H            0.867620960899     1.506529365918    -0.068667730475     1.007825032230
         H            4.163815960899     0.420428365918    -0.023251730475     1.007825032230

  Basis Set: AUG-CC-PVTZ
    Blend: AUG-CC-PVTZ
  Basis Set: (AUG-CC-PVTZ AUX)
    Blend: AUG-CC-PVTZ-JKFIT
	 Reference Energy          =    -456.6293853746075797 [Eh]
	 Singles Energy            =      -0.0000000000000000 [Eh]
	 Same-Spin Energy          =      -0.4479501026102006 [Eh]
	 Opposite-Spin Energy      =      -1.4083939552566460 [Eh]
	 Correlation Energy        =      -1.8563440578668466 [Eh]
	 Total Energy              =    -458.4857294324744430 [Eh]

	 ================> DF-SCS-MP2 Energies <==================
	-----------------------------------------------------------
	 SCS Same-Spin Scale       =       0.3333333333333333 [-]
	 SCS Opposite-Spin Scale   =       1.2000000000000000 [-]
	 SCS Same-Spin Energy      =      -0.1493167008700669 [Eh]
	 SCS Opposite-Spin Energy  =      -1.6900727463079752 [Eh]
	 SCS Correlation Energy    =      -1.8393894471780421 [Eh]
	 SCS Total Energy          =    -458.4687748217856438 [Eh]
	-----------------------------------------------------------

  Dipole Moment: [D]
     X:    -0.1333      Y:    -1.1334      Z:     0.0592     Total:     1.1428

*** Psi4 exiting successfully. Buy a developer a beer!
