                               Psi4 1.4a3.dev225

  ==> Input File <==

--------------------------------------------------------------------------
#psi4
#
memory 32 gb

molecule  {
0 1
  O       -1.5457390    -1.4151030    -0.0000120
  O        3.4055420    -0.8324430     0.0000000
  O        2.7346890     1.3362110     0.0000030
  C       -2.4962220     0.7973420     0.0000070
  C       -1.3569730    -0.1975560    -0.0000120
  C       -3.8659970     0.1363490     0.0000100
  C        0.0231420     0.3709680    -0.0000240
  C        1.1002740    -0.4324720     0.0000170
  C        2.4625110     0.1452670     0.0000070
  H       -2.3684100     1.4519690    -0.8733630
  H       -2.3683970     1.4519470     0.8733920
  H       -3.9887950    -0.4970190    -0.8807080
  H       -4.6559460     0.8916380     0.0000190
  H       -3.9887860    -0.4970320     0.8807180
  H        0.1589340     1.4510060    -0.0000590
  H        0.9863010    -1.5124980     0.0000520
  H        4.2863666    -0.3592531    -0.0000092
units angstrom
no_reorient  #important for SAPT in psi4, default
symmetry c1  #important for SAPT in psi4, default
}

set PROPERTIES_ORIGIN ["COM"]
properties('MP2/aug-cc-pvtz', properties = ['dipole'])
--------------------------------------------------------------------------

    Molecular point group: c1
  Charge       = 0
  Multiplicity = 1
  Basis Set: AUG-CC-PVTZ
    Blend: AUG-CC-PVTZ
  Basis Set: (AUG-CC-PVTZ AUX)
    Blend: AUG-CC-PVTZ-JKFIT

    Orbital Energies [Eh]
    ---------------------

    Doubly Occupied:

       1A    -20.629147     2A    -20.561570     3A    -20.560716
       4A    -11.406010     5A    -11.350286     6A    -11.277128
       7A    -11.275475     8A    -11.252594     9A    -11.225117
      10A     -1.468233    11A     -1.390067    12A     -1.365476
      13A     -1.108060    14A     -1.065323    15A     -0.955913
      16A     -0.886134    17A     -0.796996    18A     -0.746698
      19A     -0.717478    20A     -0.710996    21A     -0.660884
      22A     -0.643183    23A     -0.640039    24A     -0.638226
      25A     -0.604966    26A     -0.569710    27A     -0.539834
      28A     -0.539133    29A     -0.524352    30A     -0.500610
      31A     -0.495719    32A     -0.471010    33A     -0.435415
      34A     -0.403560

  @DF-RHF Final Energy:  -456.62618258714491

   => Energetics <=

    Nuclear Repulsion Energy =            413.0396586853250369
    One-Electron Energy =               -1442.4995674627593871
    Two-Electron Energy =                 572.8337261902893260
    Total Energy =                       -456.6261825871449673
  Basis Set: (AUG-CC-PVTZ AUX)
    Blend: AUG-CC-PVTZ-RI
    Molecular point group: c1

    Geometry (in Angstrom), charge = 0, multiplicity = 1:

       Center              X                  Y                   Z               Mass
    ------------   -----------------  -----------------  -----------------  -----------------
         O           -1.638338920571    -1.396839738675    -0.000011673346    15.994914619570
         O            3.312942079429    -0.814179738675     0.000000326654    15.994914619570
         O            2.642089079429     1.354474261325     0.000003326654    15.994914619570
         C           -2.588821920571     0.815605261325     0.000007326654    12.000000000000
         C           -1.449572920571    -0.179292738675    -0.000011673346    12.000000000000
         C           -3.958596920571     0.154612261325     0.000010326654    12.000000000000
         C           -0.069457920571     0.389231261325    -0.000023673346    12.000000000000
         C            1.007674079429    -0.414208738675     0.000017326654    12.000000000000
         C            2.369911079429     0.163530261325     0.000007326654    12.000000000000
         H           -2.461009920571     1.470232261325    -0.873362673346     1.007825032230
         H           -2.460996920571     1.470210261325     0.873392326654     1.007825032230
         H           -4.081394920571    -0.478755738675    -0.880707673346     1.007825032230
         H           -4.748545920571     0.909901261325     0.000019326654     1.007825032230
         H           -4.081385920571    -0.478768738675     0.880718326654     1.007825032230
         H            0.066334079429     1.469269261325    -0.000058673346     1.007825032230
         H            0.893701079429    -1.494234738675     0.000052326654     1.007825032230
         H            4.193766679429    -0.340989838675    -0.000008873346     1.007825032230

  Basis Set: AUG-CC-PVTZ
    Blend: AUG-CC-PVTZ
  Basis Set: (AUG-CC-PVTZ AUX)
    Blend: AUG-CC-PVTZ-JKFIT
	 Reference Energy          =    -456.6261825871449105 [Eh]
	 Singles Energy            =      -0.0000000000000000 [Eh]
	 Same-Spin Energy          =      -0.4486241926854992 [Eh]
	 Opposite-Spin Energy      =      -1.4100063037421569 [Eh]
	 Correlation Energy        =      -1.8586304964276561 [Eh]
	 Total Energy              =    -458.4848130835725897 [Eh]

	 ================> DF-SCS-MP2 Energies <==================
	-----------------------------------------------------------
	 SCS Same-Spin Scale       =       0.3333333333333333 [-]
	 SCS Opposite-Spin Scale   =       1.2000000000000000 [-]
	 SCS Same-Spin Energy      =      -0.1495413975618331 [Eh]
	 SCS Opposite-Spin Energy  =      -1.6920075644905881 [Eh]
	 SCS Correlation Energy    =      -1.8415489620524212 [Eh]
	 SCS Total Energy          =    -458.4677315491973104 [Eh]
	-----------------------------------------------------------

  Dipole Moment: [D]
     X:    -0.1564      Y:     1.1828      Z:     0.0000     Total:     1.1931

*** Psi4 exiting successfully. Buy a developer a beer!
