                               Psi4 1.3.2 release

  ==> Input File <==

--------------------------------------------------------------------------
#psi4
#
memory 32 gb

molecule  {
0 1
  O       -1.6636540     1.3623100    -0.0826750
  O        3.2950020     0.8732560    -0.0394660
  O        2.6676780    -1.2988900     0.0825990
  C       -2.5713650    -0.8630400     0.0337620
  C       -1.4513780     0.1516300    -0.0098980
  C       -3.9526870    -0.2300600    -0.0211700
  C       -0.0615660    -0.3898680     0.0323710
  C        0.9984040     0.4317740    -0.0078830
  C        2.1846225    -0.0427509     0.0179015
  H       -2.4419680    -1.4628000     0.9443570
  H       -2.4189490    -1.5634100    -0.8003330
  H       -4.1001540     0.4487780     0.8215890
  H       -4.7285220    -0.9991160     0.0102380
  H       -4.0749460     0.3516660    -0.9371360
  H        0.0882100    -1.4658090     0.0960520
  H        0.8681440     1.5076730    -0.0687300
  H        4.1643390     0.4215720    -0.0233140
units angstrom
no_reorient  #important for SAPT in psi4, default
symmetry c1  #important for SAPT in psi4, default
}

set PROPERTIES_ORIGIN ["COM"]
properties('MP2/aug-cc-pvtz', properties = ['dipole'])
--------------------------------------------------------------------------

    Molecular point group: c1
  Charge       = 0
  Multiplicity = 1
  Basis Set: AUG-CC-PVTZ
    Blend: AUG-CC-PVTZ
  Basis Set: (AUG-CC-PVTZ AUX)
    Blend: AUG-CC-PVTZ-JKFIT

    Orbital Energies [Eh]
    ---------------------

    Doubly Occupied:

       1A    -20.599193     2A    -20.583078     3A    -20.540454
       4A    -11.403458     5A    -11.367828     6A    -11.313880
       7A    -11.269573     8A    -11.265611     9A    -11.235142
      10A     -1.410892    11A     -1.407218    12A     -1.285195
      13A     -1.156204    14A     -1.084060    15A     -0.998332
      16A     -0.903106    17A     -0.796829    18A     -0.766665
      19A     -0.731488    20A     -0.679546    21A     -0.668553
      22A     -0.654744    23A     -0.648197    24A     -0.604143
      25A     -0.601295    26A     -0.552994    27A     -0.552414
      28A     -0.551645    29A     -0.536096    30A     -0.511150
      31A     -0.473142    32A     -0.455923    33A     -0.442465
      34A     -0.404898

  @DF-RHF Final Energy:  -456.54771483470654

   => Energetics <=

    Nuclear Repulsion Energy =            413.9220155291094443
    One-Electron Energy =               -1444.0286400080906333
    Two-Electron Energy =                 573.5589096442747632
    Total Energy =                       -456.5477148347065395
  Basis Set: (AUG-CC-PVTZ AUX)
    Blend: AUG-CC-PVTZ-RI
    Molecular point group: c1

    Geometry (in Angstrom), charge = 0, multiplicity = 1:

       Center              X                  Y                   Z               Mass
    ------------   -----------------  -----------------  -----------------  -----------------
         O           -1.646255242529     1.355349922472    -0.082296924177    15.994914619570
         O            3.312400757471     0.866295922472    -0.039087924177    15.994914619570
         O            2.685076757471    -1.305850077528     0.082977075823    15.994914619570
         C           -2.553966242529    -0.870000077528     0.034140075823    12.000000000000
         C           -1.433979242529     0.144669922472    -0.009519924177    12.000000000000
         C           -3.935288242529    -0.237020077528    -0.020791924177    12.000000000000
         C           -0.044167242529    -0.396828077528     0.032749075823    12.000000000000
         C            1.015802757471     0.424813922472    -0.007504924177    12.000000000000
         C            2.202021257471    -0.049710977528     0.018279575823    12.000000000000
         H           -2.424569242529    -1.469760077528     0.944735075823     1.007825032230
         H           -2.401550242529    -1.570370077528    -0.799954924177     1.007825032230
         H           -4.082755242529     0.441817922472     0.821967075823     1.007825032230
         H           -4.711123242529    -1.006076077528     0.010616075823     1.007825032230
         H           -4.057547242529     0.344705922472    -0.936757924177     1.007825032230
         H            0.105608757471    -1.472769077528     0.096430075823     1.007825032230
         H            0.885542757471     1.500712922472    -0.068351924177     1.007825032230
         H            4.181737757471     0.414611922472    -0.022935924177     1.007825032230

  Basis Set: AUG-CC-PVTZ
    Blend: AUG-CC-PVTZ
  Basis Set: (AUG-CC-PVTZ AUX)
    Blend: AUG-CC-PVTZ-JKFIT
	 Reference Energy          =    -456.5477148347065395 [Eh]
	 Singles Energy            =      -0.0000000000000000 [Eh]
	 Same-Spin Energy          =      -0.4546074233325438 [Eh]
	 Opposite-Spin Energy      =      -1.4215485442826101 [Eh]
	 Correlation Energy        =      -1.8761559676151540 [Eh]
	 Total Energy              =    -458.4238708023216873 [Eh]

	 ================> DF-SCS-MP2 Energies <==================
	-----------------------------------------------------------
	 SCS Same-Spin Scale       =       0.3333333333333333 [-]
	 SCS Opposite-Spin Scale   =       1.2000000000000000 [-]
	 SCS Same-Spin Energy      =      -0.1515358077775146 [Eh]
	 SCS Opposite-Spin Energy  =      -1.7058582531391322 [Eh]
	 SCS Correlation Energy    =      -1.8573940609166468 [Eh]
	 SCS Total Energy          =    -458.4051088956231865 [Eh]
	-----------------------------------------------------------

  Dipole Moment: [D]
     X:    -1.7550      Y:    -1.0833      Z:     0.0541     Total:     2.0631

*** Psi4 exiting successfully. Buy a developer a beer!
