                               Psi4 1.3.2 release

  ==> Input File <==

--------------------------------------------------------------------------
#psi4
#
memory 32 gb

molecule  {
0 1
  O       -1.6636540     1.3623100    -0.0826750
  O        3.2950020     0.8732560    -0.0394660
  O        2.6676780    -1.2988900     0.0825990
  C       -2.5713650    -0.8630400     0.0337620
  C       -1.4315799     0.1997302    -0.0125730
  C       -3.9526870    -0.2300600    -0.0211700
  C       -0.0615660    -0.3898680     0.0323710
  C        0.9690512     0.4681907    -0.0102424
  C        2.3702780    -0.1170190     0.0219370
  H       -2.4419680    -1.4628000     0.9443570
  H       -2.4189490    -1.5634100    -0.8003330
  H       -4.1001540     0.4487780     0.8215890
  H       -4.7285220    -0.9991160     0.0102380
  H       -4.0749460     0.3516660    -0.9371360
  H        0.0882100    -1.4658090     0.0960520
  H        0.8681440     1.5076730    -0.0687300
  H        4.1643390     0.4215720    -0.0233140
units angstrom
no_reorient  #important for SAPT in psi4, default
symmetry c1  #important for SAPT in psi4, default
}

set PROPERTIES_ORIGIN ["COM"]
properties('MP2/aug-cc-pvtz', properties = ['dipole'])
--------------------------------------------------------------------------

    Molecular point group: c1
  Charge       = 0
  Multiplicity = 1
  Basis Set: AUG-CC-PVTZ
    Blend: AUG-CC-PVTZ
  Basis Set: (AUG-CC-PVTZ AUX)
    Blend: AUG-CC-PVTZ-JKFIT

    Orbital Energies [Eh]
    ---------------------

    Doubly Occupied:

       1A    -20.627865     2A    -20.562932     3A    -20.562131
       4A    -11.407751     5A    -11.344681     6A    -11.276945
       7A    -11.273529     8A    -11.248018     9A    -11.221971
      10A     -1.472001    11A     -1.419519    12A     -1.367873
      13A     -1.108060    14A     -1.055399    15A     -0.949552
      16A     -0.878798    17A     -0.797879    18A     -0.754860
      19A     -0.716151    20A     -0.714069    21A     -0.658935
      22A     -0.650695    23A     -0.641771    24A     -0.635760
      25A     -0.607374    26A     -0.581016    27A     -0.550883
      28A     -0.538318    29A     -0.522568    30A     -0.500368
      31A     -0.498132    32A     -0.470644    33A     -0.423397
      34A     -0.406970

  @DF-RHF Final Energy:  -456.62704867419984

   => Energetics <=

    Nuclear Repulsion Energy =            413.5140589143066450
    One-Electron Energy =               -1443.3885842574948128
    Two-Electron Energy =                 573.2474766689883836
    Total Energy =                       -456.6270486741998411
  Basis Set: (AUG-CC-PVTZ AUX)
    Blend: AUG-CC-PVTZ-RI
    Molecular point group: c1

    Geometry (in Angstrom), charge = 0, multiplicity = 1:

       Center              X                  Y                   Z               Mass
    ------------   -----------------  -----------------  -----------------  -----------------
         O           -1.662758588338     1.354389452727    -0.082203311927    15.994914619570
         O            3.295897411662     0.865335452727    -0.038994311927    15.994914619570
         O            2.668573411662    -1.306810547273     0.083070688073    15.994914619570
         C           -2.570469588338    -0.870960547273     0.034233688073    12.000000000000
         C           -1.430684488338     0.191809652727    -0.012101311927    12.000000000000
         C           -3.951791588338    -0.237980547273    -0.020698311927    12.000000000000
         C           -0.060670588338    -0.397788547273     0.032842688073    12.000000000000
         C            0.969946611662     0.460270152727    -0.009770711927    12.000000000000
         C            2.371173411662    -0.124939547273     0.022408688073    12.000000000000
         H           -2.441072588338    -1.470720547273     0.944828688073     1.007825032230
         H           -2.418053588338    -1.571330547273    -0.799861311927     1.007825032230
         H           -4.099258588338     0.440857452727     0.822060688073     1.007825032230
         H           -4.727626588338    -1.007036547273     0.010709688073     1.007825032230
         H           -4.074050588338     0.343745452727    -0.936664311927     1.007825032230
         H            0.089105411662    -1.473729547273     0.096523688073     1.007825032230
         H            0.869039411662     1.499752452727    -0.068258311927     1.007825032230
         H            4.165234411662     0.413651452727    -0.022842311927     1.007825032230

  Basis Set: AUG-CC-PVTZ
    Blend: AUG-CC-PVTZ
  Basis Set: (AUG-CC-PVTZ AUX)
    Blend: AUG-CC-PVTZ-JKFIT
	 Reference Energy          =    -456.6270486741998411 [Eh]
	 Singles Energy            =      -0.0000000000000000 [Eh]
	 Same-Spin Energy          =      -0.4467528633021995 [Eh]
	 Opposite-Spin Energy      =      -1.4061471552301161 [Eh]
	 Correlation Energy        =      -1.8529000185323157 [Eh]
	 Total Energy              =    -458.4799486927321368 [Eh]

	 ================> DF-SCS-MP2 Energies <==================
	-----------------------------------------------------------
	 SCS Same-Spin Scale       =       0.3333333333333333 [-]
	 SCS Opposite-Spin Scale   =       1.2000000000000000 [-]
	 SCS Same-Spin Energy      =      -0.1489176211007331 [Eh]
	 SCS Opposite-Spin Energy  =      -1.6873765862761394 [Eh]
	 SCS Correlation Energy    =      -1.8362942073768727 [Eh]
	 SCS Total Energy          =    -458.4633428815766933 [Eh]
	-----------------------------------------------------------

  Dipole Moment: [D]
     X:     0.0597      Y:    -0.9789      Z:     0.0523     Total:     0.9821

*** Psi4 exiting successfully. Buy a developer a beer!
