                               Psi4 1.4a3.dev225

  ==> Input File <==

--------------------------------------------------------------------------
#psi4
#
memory 32 gb

molecule  {
0 1
  O       -1.5457390    -1.4151030    -0.0000120
  O        3.4055420    -0.8324430     0.0000000
  O        2.7346890     1.3362110     0.0000030
  C       -2.4962220     0.7973420     0.0000070
  C       -1.3569730    -0.1975560    -0.0000120
  C       -3.8659970     0.1363490     0.0000100
  C        0.0231420     0.3709680    -0.0000240
  C        1.1002740    -0.4324720     0.0000170
  C        2.4625110     0.1452670     0.0000070
  H       -2.3684100     1.4519690    -0.8733630
  H       -2.3683970     1.4519470     0.8733920
  H       -3.9887950    -0.4970190    -0.8807080
  H       -4.6559460     0.8916380     0.0000190
  H       -3.9887860    -0.4970320     0.8807180
  H        0.1589340     1.4510060    -0.0000590
  H        0.9810537    -1.5622219     0.0000536
  H        4.2687480    -0.3687180    -0.0000090
units angstrom
no_reorient  #important for SAPT in psi4, default
symmetry c1  #important for SAPT in psi4, default
}

set PROPERTIES_ORIGIN ["COM"]
properties('MP2/aug-cc-pvtz', properties = ['dipole'])
--------------------------------------------------------------------------

    Molecular point group: c1
  Charge       = 0
  Multiplicity = 1
  Basis Set: AUG-CC-PVTZ
    Blend: AUG-CC-PVTZ
  Basis Set: (AUG-CC-PVTZ AUX)
    Blend: AUG-CC-PVTZ-JKFIT

    Orbital Energies [Eh]
    ---------------------

    Doubly Occupied:

       1A    -20.627802     2A    -20.562162     3A    -20.560658
       4A    -11.406710     5A    -11.350313     6A    -11.281373
       7A    -11.276231     8A    -11.252636     9A    -11.225143
      10A     -1.471009    11A     -1.390020    12A     -1.367413
      13A     -1.106950    14A     -1.065050    15A     -0.956113
      16A     -0.887423    17A     -0.797932    18A     -0.741132
      19A     -0.717573    20A     -0.712262    21A     -0.661256
      22A     -0.643460    23A     -0.638646    24A     -0.637517
      25A     -0.606428    26A     -0.564623    27A     -0.539853
      28A     -0.539213    29A     -0.524383    30A     -0.500936
      31A     -0.496077    32A     -0.470822    33A     -0.435470
      34A     -0.403628

  @DF-RHF Final Energy:  -456.62518172691142

   => Energetics <=

    Nuclear Repulsion Energy =            412.9277821224034142
    One-Electron Energy =               -1442.2694935264494234
    Two-Electron Energy =                 572.7165296771346448
    Total Energy =                       -456.6251817269113644
  Basis Set: (AUG-CC-PVTZ AUX)
    Blend: AUG-CC-PVTZ-RI
    Molecular point group: c1

    Geometry (in Angstrom), charge = 0, multiplicity = 1:

       Center              X                  Y                   Z               Mass
    ------------   -----------------  -----------------  -----------------  -----------------
         O           -1.638158949431    -1.396373880093    -0.000011687514    15.994914619570
         O            3.313122050569    -0.813713880093     0.000000312486    15.994914619570
         O            2.642269050569     1.354940119907     0.000003312486    15.994914619570
         C           -2.588641949431     0.816071119907     0.000007312486    12.000000000000
         C           -1.449392949431    -0.178826880093    -0.000011687514    12.000000000000
         C           -3.958416949431     0.155078119907     0.000010312486    12.000000000000
         C           -0.069277949431     0.389697119907    -0.000023687514    12.000000000000
         C            1.007854050569    -0.413742880093     0.000017312486    12.000000000000
         C            2.370091050569     0.163996119907     0.000007312486    12.000000000000
         H           -2.460829949431     1.470698119907    -0.873362687514     1.007825032230
         H           -2.460816949431     1.470676119907     0.873392312486     1.007825032230
         H           -4.081214949431    -0.478289880093    -0.880707687514     1.007825032230
         H           -4.748365949431     0.910367119907     0.000019312486     1.007825032230
         H           -4.081205949431    -0.478302880093     0.880718312486     1.007825032230
         H            0.066514050569     1.469735119907    -0.000058687514     1.007825032230
         H            0.888633750569    -1.543492780093     0.000053912486     1.007825032230
         H            4.176328050569    -0.349988880093    -0.000008687514     1.007825032230

  Basis Set: AUG-CC-PVTZ
    Blend: AUG-CC-PVTZ
  Basis Set: (AUG-CC-PVTZ AUX)
    Blend: AUG-CC-PVTZ-JKFIT
	 Reference Energy          =    -456.6251817269114213 [Eh]
	 Singles Energy            =      -0.0000000000000000 [Eh]
	 Same-Spin Energy          =      -0.4485552513203185 [Eh]
	 Opposite-Spin Energy      =      -1.4098557426665383 [Eh]
	 Correlation Energy        =      -1.8584109939868569 [Eh]
	 Total Energy              =    -458.4835927208982866 [Eh]

	 ================> DF-SCS-MP2 Energies <==================
	-----------------------------------------------------------
	 SCS Same-Spin Scale       =       0.3333333333333333 [-]
	 SCS Opposite-Spin Scale   =       1.2000000000000000 [-]
	 SCS Same-Spin Energy      =      -0.1495184171067728 [Eh]
	 SCS Opposite-Spin Energy  =      -1.6918268911998460 [Eh]
	 SCS Correlation Energy    =      -1.8413453083066187 [Eh]
	 SCS Total Energy          =    -458.4665270352180642 [Eh]
	-----------------------------------------------------------

  Dipole Moment: [D]
     X:    -0.1831      Y:     1.1676      Z:     0.0000     Total:     1.1819

*** Psi4 exiting successfully. Buy a developer a beer!
