                               Psi4 1.3.2 release

  ==> Input File <==

--------------------------------------------------------------------------
#psi4
#
memory 32 gb

molecule  {
0 1
  O       -1.6636540     1.3623100    -0.0826750
  O        3.2950020     0.8732560    -0.0394660
  O        2.6676780    -1.2988900     0.0825990
  C       -2.5713650    -0.8630400     0.0337620
  C       -1.4315802     0.1997322    -0.0125390
  C       -3.9526870    -0.2300600    -0.0211700
  C       -0.0615660    -0.3898680     0.0323710
  C        0.9984040     0.4317740    -0.0078830
  C        2.3702780    -0.1170190     0.0219370
  H       -2.4419680    -1.4628000     0.9443570
  H       -2.4189490    -1.5634100    -0.8003330
  H       -4.1001540     0.4487780     0.8215890
  H       -4.7285220    -0.9991160     0.0102380
  H       -4.0749460     0.3516660    -0.9371360
  H        0.1257331    -1.4599182     0.0960015
  H        0.8681440     1.5076730    -0.0687300
  H        4.1643390     0.4215720    -0.0233140
units angstrom
no_reorient  #important for SAPT in psi4, default
symmetry c1  #important for SAPT in psi4, default
}

set PROPERTIES_ORIGIN ["COM"]
properties('MP2/aug-cc-pvtz', properties = ['dipole'])
--------------------------------------------------------------------------

    Molecular point group: c1
  Charge       = 0
  Multiplicity = 1
  Basis Set: AUG-CC-PVTZ
    Blend: AUG-CC-PVTZ
  Basis Set: (AUG-CC-PVTZ AUX)
    Blend: AUG-CC-PVTZ-JKFIT

    Orbital Energies [Eh]
    ---------------------

    Doubly Occupied:

       1A    -20.627774     2A    -20.564309     3A    -20.561750
       4A    -11.405435     5A    -11.347263     6A    -11.275574
       7A    -11.273864     8A    -11.249022     9A    -11.222639
      10A     -1.472478    11A     -1.421108    12A     -1.367879
      13A     -1.109535    14A     -1.056531    15A     -0.954233
      16A     -0.881557    17A     -0.797053    18A     -0.750081
      19A     -0.719628    20A     -0.713365    21A     -0.663091
      22A     -0.647622    23A     -0.643002    24A     -0.636548
      25A     -0.607564    26A     -0.573487    27A     -0.551725
      28A     -0.538950    29A     -0.523371    30A     -0.500985
      31A     -0.498549    32A     -0.471788    33A     -0.426329
      34A     -0.406466

  @DF-RHF Final Energy:  -456.62896285872944

   => Energetics <=

    Nuclear Repulsion Energy =            413.8381021349275102
    One-Electron Energy =               -1444.0130167875963707
    Two-Electron Energy =                 573.5459517939393663
    Total Energy =                       -456.6289628587294374
  Basis Set: (AUG-CC-PVTZ AUX)
    Blend: AUG-CC-PVTZ-RI
    Molecular point group: c1

    Geometry (in Angstrom), charge = 0, multiplicity = 1:

       Center              X                  Y                   Z               Mass
    ------------   -----------------  -----------------  -----------------  -----------------
         O           -1.665804701650     1.357755703759    -0.082427212743    15.994914619570
         O            3.292851298350     0.868701703759    -0.039218212743    15.994914619570
         O            2.665527298350    -1.303444296241     0.082846787257    15.994914619570
         C           -2.573515701650    -0.867594296241     0.034009787257    12.000000000000
         C           -1.433730901650     0.195177903759    -0.012291212743    12.000000000000
         C           -3.954837701650    -0.234614296241    -0.020922212743    12.000000000000
         C           -0.063716701650    -0.394422296241     0.032618787257    12.000000000000
         C            0.996253298350     0.427219703759    -0.007635212743    12.000000000000
         C            2.368127298350    -0.121573296241     0.022184787257    12.000000000000
         H           -2.444118701650    -1.467354296241     0.944604787257     1.007825032230
         H           -2.421099701650    -1.567964296241    -0.800085212743     1.007825032230
         H           -4.102304701650     0.444223703759     0.821836787257     1.007825032230
         H           -4.730672701650    -1.003670296241     0.010485787257     1.007825032230
         H           -4.077096701650     0.347111703759    -0.936888212743     1.007825032230
         H            0.123582398350    -1.464472496241     0.096249287257     1.007825032230
         H            0.865993298350     1.503118703759    -0.068482212743     1.007825032230
         H            4.162188298350     0.417017703759    -0.023066212743     1.007825032230

  Basis Set: AUG-CC-PVTZ
    Blend: AUG-CC-PVTZ
  Basis Set: (AUG-CC-PVTZ AUX)
    Blend: AUG-CC-PVTZ-JKFIT
	 Reference Energy          =    -456.6289628587294374 [Eh]
	 Singles Energy            =      -0.0000000000000000 [Eh]
	 Same-Spin Energy          =      -0.4471096994611450 [Eh]
	 Opposite-Spin Energy      =      -1.4065579718231183 [Eh]
	 Correlation Energy        =      -1.8536676712842632 [Eh]
	 Total Energy              =    -458.4826305300136937 [Eh]

	 ================> DF-SCS-MP2 Energies <==================
	-----------------------------------------------------------
	 SCS Same-Spin Scale       =       0.3333333333333333 [-]
	 SCS Opposite-Spin Scale   =       1.2000000000000000 [-]
	 SCS Same-Spin Energy      =      -0.1490365664870483 [Eh]
	 SCS Opposite-Spin Energy  =      -1.6878695661877419 [Eh]
	 SCS Correlation Energy    =      -1.8369061326747902 [Eh]
	 SCS Total Energy          =    -458.4658689914042498 [Eh]
	-----------------------------------------------------------

  Dipole Moment: [D]
     X:    -0.0049      Y:    -0.9765      Z:     0.0518     Total:     0.9779

*** Psi4 exiting successfully. Buy a developer a beer!
