                               Psi4 1.3.2 release

  ==> Input File <==

--------------------------------------------------------------------------
#psi4
#
memory 32 gb

molecule  {
0 1
  O       -1.6636540     1.3623100    -0.0826750
  O        3.2950020     0.8732560    -0.0394660
  O        2.6676780    -1.2988900     0.0825990
  C       -2.5713650    -0.8630400     0.0337620
  C       -1.4513780     0.1516300    -0.0098980
  C       -3.9526870    -0.2300600    -0.0211700
  C       -0.0615660    -0.3898680     0.0323710
  C        0.9984040     0.4317740    -0.0078830
  C        2.3702780    -0.1170190     0.0219370
  H       -2.4419680    -1.4628000     0.9443570
  H       -2.4189490    -1.5634100    -0.8003330
  H       -4.1001540     0.4487780     0.8215890
  H       -4.7285220    -0.9991160     0.0102380
  H       -4.0749460     0.3516660    -0.9371360
  H        0.0882100    -1.4658090     0.0960520
  H        0.8801444     1.4085540    -0.0631244
  H        4.1643390     0.4215720    -0.0233140
units angstrom
no_reorient  #important for SAPT in psi4, default
symmetry c1  #important for SAPT in psi4, default
}

set PROPERTIES_ORIGIN ["COM"]
properties('MP2/aug-cc-pvtz', properties = ['dipole'])
--------------------------------------------------------------------------

    Molecular point group: c1
  Charge       = 0
  Multiplicity = 1
  Basis Set: AUG-CC-PVTZ
    Blend: AUG-CC-PVTZ
  Basis Set: (AUG-CC-PVTZ AUX)
    Blend: AUG-CC-PVTZ-JKFIT

    Orbital Energies [Eh]
    ---------------------

    Doubly Occupied:

       1A    -20.627858     2A    -20.561067     3A    -20.561007
       4A    -11.404908     5A    -11.350156     6A    -11.276452
       7A    -11.265737     8A    -11.252612     9A    -11.225273
      10A     -1.472348    11A     -1.390950    12A     -1.367378
      13A     -1.112905    14A     -1.066680    15A     -0.959319
      16A     -0.887674    17A     -0.802834    18A     -0.760986
      19A     -0.719430    20A     -0.713280    21A     -0.661363
      22A     -0.646983    23A     -0.644054    24A     -0.639240
      25A     -0.607028    26A     -0.578809    27A     -0.540235
      28A     -0.539404    29A     -0.524534    30A     -0.501001
      31A     -0.496104    32A     -0.472089    33A     -0.435485
      34A     -0.404504

  @DF-RHF Final Energy:  -456.62246304585614

   => Energetics <=

    Nuclear Repulsion Energy =            413.9726939574798052
    One-Electron Energy =               -1444.2509409610233888
    Two-Electron Energy =                 573.6557839576875040
    Total Energy =                       -456.6224630458560796
  Basis Set: (AUG-CC-PVTZ AUX)
    Blend: AUG-CC-PVTZ-RI
    Molecular point group: c1

    Geometry (in Angstrom), charge = 0, multiplicity = 1:

       Center              X                  Y                   Z               Mass
    ------------   -----------------  -----------------  -----------------  -----------------
         O           -1.663748462079     1.363090120570    -0.082719232538    15.994914619570
         O            3.294907537921     0.874036120570    -0.039510232538    15.994914619570
         O            2.667583537921    -1.298109879430     0.082554767462    15.994914619570
         C           -2.571459462079    -0.862259879430     0.033717767462    12.000000000000
         C           -1.451472462079     0.152410120570    -0.009942232538    12.000000000000
         C           -3.952781462079    -0.229279879430    -0.021214232538    12.000000000000
         C           -0.061660462079    -0.389087879430     0.032326767462    12.000000000000
         C            0.998309537921     0.432554120570    -0.007927232538    12.000000000000
         C            2.370183537921    -0.116238879430     0.021892767462    12.000000000000
         H           -2.442062462079    -1.462019879430     0.944312767462     1.007825032230
         H           -2.419043462079    -1.562629879430    -0.800377232538     1.007825032230
         H           -4.100248462079     0.449558120570     0.821544767462     1.007825032230
         H           -4.728616462079    -0.998335879430     0.010193767462     1.007825032230
         H           -4.075040462079     0.352446120570    -0.937180232538     1.007825032230
         H            0.088115537921    -1.465028879430     0.096007767462     1.007825032230
         H            0.880049937921     1.409334120570    -0.063168632538     1.007825032230
         H            4.164244537921     0.422352120570    -0.023358232538     1.007825032230

  Basis Set: AUG-CC-PVTZ
    Blend: AUG-CC-PVTZ
  Basis Set: (AUG-CC-PVTZ AUX)
    Blend: AUG-CC-PVTZ-JKFIT
	 Reference Energy          =    -456.6224630458561364 [Eh]
	 Singles Energy            =      -0.0000000000000000 [Eh]
	 Same-Spin Energy          =      -0.4479811574906990 [Eh]
	 Opposite-Spin Energy      =      -1.4085002836567586 [Eh]
	 Correlation Energy        =      -1.8564814411474577 [Eh]
	 Total Energy              =    -458.4789444870036164 [Eh]

	 ================> DF-SCS-MP2 Energies <==================
	-----------------------------------------------------------
	 SCS Same-Spin Scale       =       0.3333333333333333 [-]
	 SCS Opposite-Spin Scale   =       1.2000000000000000 [-]
	 SCS Same-Spin Energy      =      -0.1493270524968996 [Eh]
	 SCS Opposite-Spin Energy  =      -1.6902003403881103 [Eh]
	 SCS Correlation Energy    =      -1.8395273928850100 [Eh]
	 SCS Total Energy          =    -458.4619904387411680 [Eh]
	-----------------------------------------------------------

  Dipole Moment: [D]
     X:    -0.1786      Y:    -1.2071      Z:     0.0630     Total:     1.2219

*** Psi4 exiting successfully. Buy a developer a beer!
