                               Psi4 1.3.2 release

  ==> Input File <==

--------------------------------------------------------------------------
#psi4
#
memory 32 gb

molecule  {
0 1
  O       -1.6636540     1.3623100    -0.0826750
  O        3.2950020     0.8732560    -0.0394660
  O        2.6676780    -1.2988900     0.0825990
  C       -2.5713650    -0.8630400     0.0337620
  C       -1.4513780     0.1516300    -0.0098980
  C       -3.9526870    -0.2300600    -0.0211700
  C       -0.0615660    -0.3898680     0.0323710
  C        0.9984040     0.4317740    -0.0078830
  C        2.3877334    -0.1329930     0.0226302
  H       -2.4419680    -1.4628000     0.9443570
  H       -2.4189490    -1.5634100    -0.8003330
  H       -4.1001540     0.4487780     0.8215890
  H       -4.7285220    -0.9991160     0.0102380
  H       -4.0749460     0.3516660    -0.9371360
  H        0.0882100    -1.4658090     0.0960520
  H        0.8681440     1.5076730    -0.0687300
  H        4.1563201     0.4064936    -0.0224347
units angstrom
no_reorient  #important for SAPT in psi4, default
symmetry c1  #important for SAPT in psi4, default
}

set PROPERTIES_ORIGIN ["COM"]
properties('MP2/aug-cc-pvtz', properties = ['dipole'])
--------------------------------------------------------------------------

    Molecular point group: c1
  Charge       = 0
  Multiplicity = 1
  Basis Set: AUG-CC-PVTZ
    Blend: AUG-CC-PVTZ
  Basis Set: (AUG-CC-PVTZ AUX)
    Blend: AUG-CC-PVTZ-JKFIT

    Orbital Energies [Eh]
    ---------------------

    Doubly Occupied:

       1A    -20.628471     2A    -20.565259     3A    -20.558793
       4A    -11.404865     5A    -11.348392     6A    -11.276045
       7A    -11.272704     8A    -11.251398     9A    -11.224340
      10A     -1.478467    11A     -1.388927    12A     -1.379459
      13A     -1.105437    14A     -1.063973    15A     -0.952797
      16A     -0.885000    17A     -0.796870    18A     -0.745807
      19A     -0.717852    20A     -0.716684    21A     -0.662972
      22A     -0.646365    23A     -0.639671    24A     -0.639160
      25A     -0.608724    26A     -0.570644    27A     -0.538855
      28A     -0.538398    29A     -0.523465    30A     -0.505004
      31A     -0.497014    32A     -0.472904    33A     -0.433469
      34A     -0.403194

  @DF-RHF Final Energy:  -456.62931473445150

   => Energetics <=

    Nuclear Repulsion Energy =            413.5149751953084660
    One-Electron Energy =               -1443.4058227997727499
    Two-Electron Energy =                 573.2615328700128430
    Total Energy =                       -456.6293147344515546
  Basis Set: (AUG-CC-PVTZ AUX)
    Blend: AUG-CC-PVTZ-RI
    Molecular point group: c1

    Geometry (in Angstrom), charge = 0, multiplicity = 1:

       Center              X                  Y                   Z               Mass
    ------------   -----------------  -----------------  -----------------  -----------------
         O           -1.665226734430     1.363925669174    -0.082746996616    15.994914619570
         O            3.293429265570     0.874871669174    -0.039537996616    15.994914619570
         O            2.666105265570    -1.297274330826     0.082527003384    15.994914619570
         C           -2.572937734430    -0.861424330826     0.033690003384    12.000000000000
         C           -1.452950734430     0.153245669174    -0.009969996616    12.000000000000
         C           -3.954259734430    -0.228444330826    -0.021241996616    12.000000000000
         C           -0.063138734430    -0.388252330826     0.032299003384    12.000000000000
         C            0.996831265570     0.433389669174    -0.007954996616    12.000000000000
         C            2.386160665570    -0.131377330826     0.022558203384    12.000000000000
         H           -2.443540734430    -1.461184330826     0.944285003384     1.007825032230
         H           -2.420521734430    -1.561794330826    -0.800404996616     1.007825032230
         H           -4.101726734430     0.450393669174     0.821517003384     1.007825032230
         H           -4.730094734430    -0.997500330826     0.010166003384     1.007825032230
         H           -4.076518734430     0.353281669174    -0.937207996616     1.007825032230
         H            0.086637265570    -1.464193330826     0.095980003384     1.007825032230
         H            0.866571265570     1.509288669174    -0.068801996616     1.007825032230
         H            4.154747365570     0.408109269174    -0.022506696616     1.007825032230

  Basis Set: AUG-CC-PVTZ
    Blend: AUG-CC-PVTZ
  Basis Set: (AUG-CC-PVTZ AUX)
    Blend: AUG-CC-PVTZ-JKFIT
	 Reference Energy          =    -456.6293147344514978 [Eh]
	 Singles Energy            =      -0.0000000000000000 [Eh]
	 Same-Spin Energy          =      -0.4478004768272270 [Eh]
	 Opposite-Spin Energy      =      -1.4081381400097297 [Eh]
	 Correlation Energy        =      -1.8559386168369567 [Eh]
	 Total Energy              =    -458.4852533512884634 [Eh]

	 ================> DF-SCS-MP2 Energies <==================
	-----------------------------------------------------------
	 SCS Same-Spin Scale       =       0.3333333333333333 [-]
	 SCS Opposite-Spin Scale   =       1.2000000000000000 [-]
	 SCS Same-Spin Energy      =      -0.1492668256090757 [Eh]
	 SCS Opposite-Spin Energy  =      -1.6897657680116756 [Eh]
	 SCS Correlation Energy    =      -1.8390325936207512 [Eh]
	 SCS Total Energy          =    -458.4683473280722410 [Eh]
	-----------------------------------------------------------

  Dipole Moment: [D]
     X:    -0.0463      Y:    -1.2852      Z:     0.0674     Total:     1.2878

*** Psi4 exiting successfully. Buy a developer a beer!
