                               Psi4 1.3.2 release

  ==> Input File <==

--------------------------------------------------------------------------
#psi4
#
memory 32 gb

molecule  {
0 1
  O       -1.6636540     1.3623100    -0.0826750
  O        3.2950020     0.8732560    -0.0394660
  O        2.6676780    -1.2988900     0.0825990
  C       -2.5713650    -0.8630400     0.0337620
  C       -1.4513780     0.1516300    -0.0098980
  C       -3.9526870    -0.2300600    -0.0211700
  C       -0.0615660    -0.3898680     0.0323710
  C        0.9984040     0.4317740    -0.0078830
  C        2.4234677    -0.1640167     0.0239598
  H       -2.4419680    -1.4628000     0.9443570
  H       -2.4189490    -1.5634100    -0.8003330
  H       -4.1001540     0.4487780     0.8215890
  H       -4.7285220    -0.9991160     0.0102380
  H       -4.0749460     0.3516660    -0.9371360
  H        0.0882100    -1.4658090     0.0960520
  H        0.8681440     1.5076730    -0.0687300
  H        4.1394979     0.3767679    -0.0206919
units angstrom
no_reorient  #important for SAPT in psi4, default
symmetry c1  #important for SAPT in psi4, default
}

set PROPERTIES_ORIGIN ["COM"]
properties('MP2/aug-cc-pvtz', properties = ['dipole'])
--------------------------------------------------------------------------

    Molecular point group: c1
  Charge       = 0
  Multiplicity = 1
  Basis Set: AUG-CC-PVTZ
    Blend: AUG-CC-PVTZ
  Basis Set: (AUG-CC-PVTZ AUX)
    Blend: AUG-CC-PVTZ-JKFIT

    Orbital Energies [Eh]
    ---------------------

    Doubly Occupied:

       1A    -20.630385     2A    -20.573101     3A    -20.555029
       4A    -11.403934     5A    -11.345228     6A    -11.274657
       7A    -11.266521     8A    -11.249181     9A    -11.222660
      10A     -1.494131    11A     -1.401144    12A     -1.385516
      13A     -1.098513    14A     -1.060480    15A     -0.944277
      16A     -0.879406    17A     -0.792913    18A     -0.744255
      19A     -0.726932    20A     -0.715341    21A     -0.667939
      22A     -0.655365    23A     -0.638187    24A     -0.635845
      25A     -0.611034    26A     -0.570558    27A     -0.536655
      28A     -0.536445    29A     -0.521603    30A     -0.516801
      31A     -0.495393    32A     -0.473230    33A     -0.429562
      34A     -0.400291

  @DF-RHF Final Energy:  -456.62465026154712

   => Energetics <=

    Nuclear Repulsion Energy =            413.6346780964414620
    One-Electron Energy =               -1443.6136383985178782
    Two-Electron Energy =                 573.3543100405291852
    Total Energy =                       -456.6246502615471172
  Basis Set: (AUG-CC-PVTZ AUX)
    Blend: AUG-CC-PVTZ-RI
    Molecular point group: c1

    Geometry (in Angstrom), charge = 0, multiplicity = 1:

       Center              X                  Y                   Z               Mass
    ------------   -----------------  -----------------  -----------------  -----------------
         O           -1.668443183537     1.367067028390    -0.082885317622    15.994914619570
         O            3.290212816463     0.878013028390    -0.039676317622    15.994914619570
         O            2.662888816463    -1.294132971610     0.082388682378    15.994914619570
         C           -2.576154183537    -0.858282971610     0.033551682378    12.000000000000
         C           -1.456167183537     0.156387028390    -0.010108317622    12.000000000000
         C           -3.957476183537    -0.225302971610    -0.021380317622    12.000000000000
         C           -0.066355183537    -0.385110971610     0.032160682378    12.000000000000
         C            0.993614816463     0.436531028390    -0.008093317622    12.000000000000
         C            2.418678516463    -0.159259671610     0.023749482378    12.000000000000
         H           -2.446757183537    -1.458042971610     0.944146682378     1.007825032230
         H           -2.423738183537    -1.558652971610    -0.800543317622     1.007825032230
         H           -4.104943183537     0.453535028390     0.821378682378     1.007825032230
         H           -4.733311183537    -0.994358971610     0.010027682378     1.007825032230
         H           -4.079735183537     0.356423028390    -0.937346317622     1.007825032230
         H            0.083420816463    -1.461051971610     0.095841682378     1.007825032230
         H            0.863354816463     1.512430028390    -0.068940317622     1.007825032230
         H            4.134708716463     0.381524928390    -0.020902217622     1.007825032230

  Basis Set: AUG-CC-PVTZ
    Blend: AUG-CC-PVTZ
  Basis Set: (AUG-CC-PVTZ AUX)
    Blend: AUG-CC-PVTZ-JKFIT
	 Reference Energy          =    -456.6246502615471172 [Eh]
	 Singles Energy            =      -0.0000000000000000 [Eh]
	 Same-Spin Energy          =      -0.4470669461015264 [Eh]
	 Opposite-Spin Energy      =      -1.4066171704481514 [Eh]
	 Correlation Energy        =      -1.8536841165496778 [Eh]
	 Total Energy              =    -458.4783343780968039 [Eh]

	 ================> DF-SCS-MP2 Energies <==================
	-----------------------------------------------------------
	 SCS Same-Spin Scale       =       0.3333333333333333 [-]
	 SCS Opposite-Spin Scale   =       1.2000000000000000 [-]
	 SCS Same-Spin Energy      =      -0.1490223153671755 [Eh]
	 SCS Opposite-Spin Energy  =      -1.6879406045377816 [Eh]
	 SCS Correlation Energy    =      -1.8369629199049571 [Eh]
	 SCS Total Energy          =    -458.4616131814520941 [Eh]
	-----------------------------------------------------------

  Dipole Moment: [D]
     X:     0.2290      Y:    -1.4979      Z:     0.0795     Total:     1.5174

*** Psi4 exiting successfully. Buy a developer a beer!
