                               Psi4 1.3.2 release

  ==> Input File <==

--------------------------------------------------------------------------
#psi4
#
memory 32 gb

molecule  {
0 1
  O       -1.6636540     1.3623100    -0.0826750
  O        3.2950020     0.8732560    -0.0394660
  O        2.6676780    -1.2988900     0.0825990
  C       -2.5713650    -0.8630400     0.0337620
  C       -1.4416892     0.1757663    -0.0112421
  C       -3.9526870    -0.2300600    -0.0211700
  C       -0.0615660    -0.3898680     0.0323710
  C        0.9838868     0.4501103    -0.0090690
  C        2.3702780    -0.1170190     0.0219370
  H       -2.4419680    -1.4628000     0.9443570
  H       -2.4189490    -1.5634100    -0.8003330
  H       -4.1001540     0.4487780     0.8215890
  H       -4.7285220    -0.9991160     0.0102380
  H       -4.0749460     0.3516660    -0.9371360
  H        0.0882100    -1.4658090     0.0960520
  H        0.8681440     1.5076730    -0.0687300
  H        4.1643390     0.4215720    -0.0233140
units angstrom
no_reorient  #important for SAPT in psi4, default
symmetry c1  #important for SAPT in psi4, default
}

set PROPERTIES_ORIGIN ["COM"]
properties('MP2/aug-cc-pvtz', properties = ['dipole'])
--------------------------------------------------------------------------

    Molecular point group: c1
  Charge       = 0
  Multiplicity = 1
  Basis Set: AUG-CC-PVTZ
    Blend: AUG-CC-PVTZ
  Basis Set: (AUG-CC-PVTZ AUX)
    Blend: AUG-CC-PVTZ-JKFIT

    Orbital Energies [Eh]
    ---------------------

    Doubly Occupied:

       1A    -20.627743     2A    -20.562147     3A    -20.561367
       4A    -11.406650     5A    -11.347242     6A    -11.276674
       7A    -11.274443     8A    -11.250403     9A    -11.223587
      10A     -1.472120    11A     -1.404838    12A     -1.367687
      13A     -1.108400    14A     -1.060479    15A     -0.953365
      16A     -0.883136    17A     -0.798297    18A     -0.750886
      19A     -0.717018    20A     -0.713527    21A     -0.659969
      22A     -0.645818    23A     -0.642648    24A     -0.637479
      25A     -0.606676    26A     -0.576372    27A     -0.544894
      28A     -0.538571    29A     -0.523681    30A     -0.500826
      31A     -0.497411    32A     -0.471002    33A     -0.429890
      34A     -0.405590

  @DF-RHF Final Energy:  -456.62953852956593

   => Energetics <=

    Nuclear Repulsion Energy =            413.4810674890574091
    One-Electron Energy =               -1443.3395369901768390
    Two-Electron Energy =                 573.2289309715536092
    Total Energy =                       -456.6295385295659344
  Basis Set: (AUG-CC-PVTZ AUX)
    Blend: AUG-CC-PVTZ-RI
    Molecular point group: c1

    Geometry (in Angstrom), charge = 0, multiplicity = 1:

       Center              X                  Y                   Z               Mass
    ------------   -----------------  -----------------  -----------------  -----------------
         O           -1.663201515136     1.358329648469    -0.082438003245    15.994914619570
         O            3.295454484864     0.869275648469    -0.039229003245    15.994914619570
         O            2.668130484864    -1.302870351531     0.082835996755    15.994914619570
         C           -2.570912515136    -0.867020351531     0.033998996755    12.000000000000
         C           -1.441236715136     0.171785948469    -0.011005103245    12.000000000000
         C           -3.952234515136    -0.234040351531    -0.020933003245    12.000000000000
         C           -0.061113515136    -0.393848351531     0.032607996755    12.000000000000
         C            0.984339284864     0.446129948469    -0.008832003245    12.000000000000
         C            2.370730484864    -0.120999351531     0.022173996755    12.000000000000
         H           -2.441515515136    -1.466780351531     0.944593996755     1.007825032230
         H           -2.418496515136    -1.567390351531    -0.800096003245     1.007825032230
         H           -4.099701515136     0.444797648469     0.821825996755     1.007825032230
         H           -4.728069515136    -1.003096351531     0.010474996755     1.007825032230
         H           -4.074493515136     0.347685648469    -0.936899003245     1.007825032230
         H            0.088662484864    -1.469789351531     0.096288996755     1.007825032230
         H            0.868596484864     1.503692648469    -0.068493003245     1.007825032230
         H            4.164791484864     0.417591648469    -0.023077003245     1.007825032230

  Basis Set: AUG-CC-PVTZ
    Blend: AUG-CC-PVTZ
  Basis Set: (AUG-CC-PVTZ AUX)
    Blend: AUG-CC-PVTZ-JKFIT
	 Reference Energy          =    -456.6295385295659344 [Eh]
	 Singles Energy            =      -0.0000000000000000 [Eh]
	 Same-Spin Energy          =      -0.4474463532247877 [Eh]
	 Opposite-Spin Energy      =      -1.4074849226581256 [Eh]
	 Correlation Energy        =      -1.8549312758829133 [Eh]
	 Total Energy              =    -458.4844698054488390 [Eh]

	 ================> DF-SCS-MP2 Energies <==================
	-----------------------------------------------------------
	 SCS Same-Spin Scale       =       0.3333333333333333 [-]
	 SCS Opposite-Spin Scale   =       1.2000000000000000 [-]
	 SCS Same-Spin Energy      =      -0.1491487844082625 [Eh]
	 SCS Opposite-Spin Energy  =      -1.6889819071897507 [Eh]
	 SCS Correlation Energy    =      -1.8381306915980133 [Eh]
	 SCS Total Energy          =    -458.4676692211639306 [Eh]
	-----------------------------------------------------------

  Dipole Moment: [D]
     X:    -0.0581      Y:    -1.0836      Z:     0.0571     Total:     1.0867

*** Psi4 exiting successfully. Buy a developer a beer!
