                               Psi4 1.3.2 release

  ==> Input File <==

--------------------------------------------------------------------------
#psi4
#
memory 32 gb

molecule  {
0 1
  O       -1.6636540     1.3623100    -0.0826750
  O        3.2950020     0.8732560    -0.0394660
  O        2.6676780    -1.2988900     0.0825990
  C       -2.5713650    -0.8630400     0.0337620
  C       -1.4465863     0.1637192    -0.0105717
  C       -3.9526870    -0.2300600    -0.0211700
  C       -0.0615660    -0.3898680     0.0323710
  C        0.9911855     0.4409738    -0.0084776
  C        2.3702780    -0.1170190     0.0219370
  H       -2.4419680    -1.4628000     0.9443570
  H       -2.4189490    -1.5634100    -0.8003330
  H       -4.1001540     0.4487780     0.8215890
  H       -4.7285220    -0.9991160     0.0102380
  H       -4.0749460     0.3516660    -0.9371360
  H        0.0882100    -1.4658090     0.0960520
  H        0.8681440     1.5076730    -0.0687300
  H        4.1643390     0.4215720    -0.0233140
units angstrom
no_reorient  #important for SAPT in psi4, default
symmetry c1  #important for SAPT in psi4, default
}

set PROPERTIES_ORIGIN ["COM"]
properties('MP2/aug-cc-pvtz', properties = ['dipole'])
--------------------------------------------------------------------------

    Molecular point group: c1
  Charge       = 0
  Multiplicity = 1
  Basis Set: AUG-CC-PVTZ
    Blend: AUG-CC-PVTZ
  Basis Set: (AUG-CC-PVTZ AUX)
    Blend: AUG-CC-PVTZ-JKFIT

    Orbital Energies [Eh]
    ---------------------

    Doubly Occupied:

       1A    -20.627677     2A    -20.561756     3A    -20.561024
       4A    -11.406062     5A    -11.348588     6A    -11.276704
       7A    -11.274904     8A    -11.251488     9A    -11.224386
      10A     -1.472180    11A     -1.397671    12A     -1.367598
      13A     -1.108703    14A     -1.063069    15A     -0.955308
      16A     -0.885347    17A     -0.798620    18A     -0.748929
      19A     -0.717656    20A     -0.713241    21A     -0.660652
      22A     -0.643409    23A     -0.643162    24A     -0.638328
      25A     -0.606699    26A     -0.573471    27A     -0.542308
      28A     -0.538889    29A     -0.524100    30A     -0.500912
      31A     -0.496839    32A     -0.471130    33A     -0.432756
      34A     -0.404917

  @DF-RHF Final Energy:  -456.62940525651038

   => Energetics <=

    Nuclear Repulsion Energy =            413.4721071417865801
    One-Electron Energy =               -1443.3260565036807748
    Two-Electron Energy =                 573.2245441053837567
    Total Energy =                       -456.6294052565103812
  Basis Set: (AUG-CC-PVTZ AUX)
    Blend: AUG-CC-PVTZ-RI
    Molecular point group: c1

    Geometry (in Angstrom), charge = 0, multiplicity = 1:

       Center              X                  Y                   Z               Mass
    ------------   -----------------  -----------------  -----------------  -----------------
         O           -1.663426581889     1.360314876680    -0.082556253257    15.994914619570
         O            3.295229418111     0.871260876680    -0.039347253257    15.994914619570
         O            2.667905418111    -1.300885123320     0.082717746743    15.994914619570
         C           -2.571137581889    -0.865035123320     0.033880746743    12.000000000000
         C           -1.446358881889     0.161724076680    -0.010452953257    12.000000000000
         C           -3.952459581889    -0.232055123320    -0.021051253257    12.000000000000
         C           -0.061338581889    -0.391863123320     0.032489746743    12.000000000000
         C            0.991412918111     0.438978676680    -0.008358853257    12.000000000000
         C            2.370505418111    -0.119014123320     0.022055746743    12.000000000000
         H           -2.441740581889    -1.464795123320     0.944475746743     1.007825032230
         H           -2.418721581889    -1.565405123320    -0.800214253257     1.007825032230
         H           -4.099926581889     0.446782876680     0.821707746743     1.007825032230
         H           -4.728294581889    -1.001111123320     0.010356746743     1.007825032230
         H           -4.074718581889     0.349670876680    -0.937017253257     1.007825032230
         H            0.088437418111    -1.467804123320     0.096170746743     1.007825032230
         H            0.868371418111     1.505677876680    -0.068611253257     1.007825032230
         H            4.164566418111     0.419576876680    -0.023195253257     1.007825032230

  Basis Set: AUG-CC-PVTZ
    Blend: AUG-CC-PVTZ
  Basis Set: (AUG-CC-PVTZ AUX)
    Blend: AUG-CC-PVTZ-JKFIT
	 Reference Energy          =    -456.6294052565103812 [Eh]
	 Singles Energy            =      -0.0000000000000000 [Eh]
	 Same-Spin Energy          =      -0.4478438500366419 [Eh]
	 Opposite-Spin Energy      =      -1.4082532715516707 [Eh]
	 Correlation Energy        =      -1.8560971215883126 [Eh]
	 Total Energy              =    -458.4855023780987153 [Eh]

	 ================> DF-SCS-MP2 Energies <==================
	-----------------------------------------------------------
	 SCS Same-Spin Scale       =       0.3333333333333333 [-]
	 SCS Opposite-Spin Scale   =       1.2000000000000000 [-]
	 SCS Same-Spin Energy      =      -0.1492812833455473 [Eh]
	 SCS Opposite-Spin Energy  =      -1.6899039258620048 [Eh]
	 SCS Correlation Energy    =      -1.8391852092075520 [Eh]
	 SCS Total Energy          =    -458.4685904657179094 [Eh]
	-----------------------------------------------------------

  Dipole Moment: [D]
     X:    -0.1162      Y:    -1.1336      Z:     0.0593     Total:     1.1411

*** Psi4 exiting successfully. Buy a developer a beer!
