                               Psi4 1.3.2 release

  ==> Input File <==

--------------------------------------------------------------------------
#psi4
#
memory 32 gb

molecule  {
0 1
  O       -1.6636540     1.3623100    -0.0826750
  O        3.2950020     0.8732560    -0.0394660
  O        2.6676780    -1.2988900     0.0825990
  C       -2.5713650    -0.8630400     0.0337620
  C       -1.4513780     0.1516300    -0.0098980
  C       -3.9526870    -0.2300600    -0.0211700
  C       -0.0615660    -0.3898680     0.0323710
  C        0.9984040     0.4317740    -0.0078830
  C        2.4631058    -0.1541530     0.0239548
  H       -2.4419680    -1.4628000     0.9443570
  H       -2.4189490    -1.5634100    -0.8003330
  H       -4.1001540     0.4487780     0.8215890
  H       -4.7285220    -0.9991160     0.0102380
  H       -4.0749460     0.3516660    -0.9371360
  H        0.0882100    -1.4658090     0.0960520
  H        0.8681440     1.5076730    -0.0687300
  H        4.1643390     0.4215720    -0.0233140
units angstrom
no_reorient  #important for SAPT in psi4, default
symmetry c1  #important for SAPT in psi4, default
}

set PROPERTIES_ORIGIN ["COM"]
properties('MP2/aug-cc-pvtz', properties = ['dipole'])
--------------------------------------------------------------------------

    Molecular point group: c1
  Charge       = 0
  Multiplicity = 1
  Basis Set: AUG-CC-PVTZ
    Blend: AUG-CC-PVTZ
  Basis Set: (AUG-CC-PVTZ AUX)
    Blend: AUG-CC-PVTZ-JKFIT

    Orbital Energies [Eh]
    ---------------------

    Doubly Occupied:

       1A    -20.640078     2A    -20.570702     3A    -20.551736
       4A    -11.404947     5A    -11.342494     6A    -11.272749
       7A    -11.261617     8A    -11.247081     9A    -11.221056
      10A     -1.502876    11A     -1.409897    12A     -1.382523
      13A     -1.092628    14A     -1.057259    15A     -0.940638
      16A     -0.881540    17A     -0.798850    18A     -0.741898
      19A     -0.728989    20A     -0.716262    21A     -0.668482
      22A     -0.664067    23A     -0.636278    24A     -0.633573
      25A     -0.607160    26A     -0.567182    27A     -0.534675
      28A     -0.534397    29A     -0.519744    30A     -0.518526
      31A     -0.493338    32A     -0.468055    33A     -0.426414
      34A     -0.396276

  @DF-RHF Final Energy:  -456.62216741890325

   => Energetics <=

    Nuclear Repulsion Energy =            413.4298570813427887
    One-Electron Energy =               -1443.2360759139694437
    Two-Electron Energy =                 573.1840514137234095
    Total Energy =                       -456.6221674189032456
  Basis Set: (AUG-CC-PVTZ AUX)
    Blend: AUG-CC-PVTZ-RI
    Molecular point group: c1

    Geometry (in Angstrom), charge = 0, multiplicity = 1:

       Center              X                  Y                   Z               Mass
    ------------   -----------------  -----------------  -----------------  -----------------
         O           -1.672353398824     1.365790007811    -0.082864211226    15.994914619570
         O            3.286302601176     0.876736007811    -0.039655211226    15.994914619570
         O            2.658978601176    -1.295409992189     0.082409788774    15.994914619570
         C           -2.580064398824    -0.859559992189     0.033572788774    12.000000000000
         C           -1.460077398824     0.155110007811    -0.010087211226    12.000000000000
         C           -3.961386398824    -0.226579992189    -0.021359211226    12.000000000000
         C           -0.070265398824    -0.386387992189     0.032181788774    12.000000000000
         C            0.989704601176     0.435254007811    -0.008072211226    12.000000000000
         C            2.454406401176    -0.150672992189     0.023765588774    12.000000000000
         H           -2.450667398824    -1.459319992189     0.944167788774     1.007825032230
         H           -2.427648398824    -1.559929992189    -0.800522211226     1.007825032230
         H           -4.108853398824     0.452258007811     0.821399788774     1.007825032230
         H           -4.737221398824    -0.995635992189     0.010048788774     1.007825032230
         H           -4.083645398824     0.355146007811    -0.937325211226     1.007825032230
         H            0.079510601176    -1.462328992189     0.095862788774     1.007825032230
         H            0.859444601176     1.511153007811    -0.068919211226     1.007825032230
         H            4.155639601176     0.425052007811    -0.023503211226     1.007825032230

  Basis Set: AUG-CC-PVTZ
    Blend: AUG-CC-PVTZ
  Basis Set: (AUG-CC-PVTZ AUX)
    Blend: AUG-CC-PVTZ-JKFIT
	 Reference Energy          =    -456.6221674189032456 [Eh]
	 Singles Energy            =      -0.0000000000000000 [Eh]
	 Same-Spin Energy          =      -0.4467354334385591 [Eh]
	 Opposite-Spin Energy      =      -1.4058492558463027 [Eh]
	 Correlation Energy        =      -1.8525846892848619 [Eh]
	 Total Energy              =    -458.4747521081881132 [Eh]

	 ================> DF-SCS-MP2 Energies <==================
	-----------------------------------------------------------
	 SCS Same-Spin Scale       =       0.3333333333333333 [-]
	 SCS Opposite-Spin Scale   =       1.2000000000000000 [-]
	 SCS Same-Spin Energy      =      -0.1489118111461864 [Eh]
	 SCS Opposite-Spin Energy  =      -1.6870191070155631 [Eh]
	 SCS Correlation Energy    =      -1.8359309181617496 [Eh]
	 SCS Total Energy          =    -458.4580983370649960 [Eh]
	-----------------------------------------------------------

  Dipole Moment: [D]
     X:     0.6688      Y:    -1.3158      Z:     0.0696     Total:     1.4777

*** Psi4 exiting successfully. Buy a developer a beer!
