                               Psi4 1.3.2 release

  ==> Input File <==

--------------------------------------------------------------------------
#psi4
#
memory 32 gb

molecule  {
0 1
  O       -1.6636540     1.3623100    -0.0826750
  O        3.2598124     0.9048721    -0.0412819
  O        2.6676780    -1.2988900     0.0825990
  C       -2.5713650    -0.8630400     0.0337620
  C       -1.4513780     0.1516300    -0.0098980
  C       -3.9526870    -0.2300600    -0.0211700
  C       -0.0615660    -0.3898680     0.0323710
  C        1.0184202     0.4792292    -0.0107712
  C        2.3702780    -0.1170190     0.0219370
  H       -2.4419680    -1.4628000     0.9443570
  H       -2.4189490    -1.5634100    -0.8003330
  H       -4.1001540     0.4487780     0.8215890
  H       -4.7285220    -0.9991160     0.0102380
  H       -4.0749460     0.3516660    -0.9371360
  H        0.0882100    -1.4658090     0.0960520
  H        0.8681440     1.5076730    -0.0687300
  H        4.1643390     0.4215720    -0.0233140
units angstrom
no_reorient  #important for SAPT in psi4, default
symmetry c1  #important for SAPT in psi4, default
}

set PROPERTIES_ORIGIN ["COM"]
properties('MP2/aug-cc-pvtz', properties = ['dipole'])
--------------------------------------------------------------------------

    Molecular point group: c1
  Charge       = 0
  Multiplicity = 1
  Basis Set: AUG-CC-PVTZ
    Blend: AUG-CC-PVTZ
  Basis Set: (AUG-CC-PVTZ AUX)
    Blend: AUG-CC-PVTZ-JKFIT

    Orbital Energies [Eh]
    ---------------------

    Doubly Occupied:

       1A    -20.631850     2A    -20.563874     3A    -20.559903
       4A    -11.405837     5A    -11.349002     6A    -11.282329
       7A    -11.277206     8A    -11.251975     9A    -11.224821
      10A     -1.467925    11A     -1.389889    12A     -1.367238
      13A     -1.101062    14A     -1.064178    15A     -0.956748
      16A     -0.882129    17A     -0.793217    18A     -0.752097
      19A     -0.715272    20A     -0.711957    21A     -0.657876
      22A     -0.643479    23A     -0.639436    24A     -0.638891
      25A     -0.600861    26A     -0.580438    27A     -0.538794
      28A     -0.537942    29A     -0.523962    30A     -0.500551
      31A     -0.496464    32A     -0.473373    33A     -0.434235
      34A     -0.394956

  @DF-RHF Final Energy:  -456.61595771732084

   => Energetics <=

    Nuclear Repulsion Energy =            412.9723492948338617
    One-Electron Energy =               -1442.3570733148212639
    Two-Electron Energy =                 572.7687663026666769
    Total Energy =                       -456.6159577173208390
  Basis Set: (AUG-CC-PVTZ AUX)
    Blend: AUG-CC-PVTZ-RI
    Molecular point group: c1

    Geometry (in Angstrom), charge = 0, multiplicity = 1:

       Center              X                  Y                   Z               Mass
    ------------   -----------------  -----------------  -----------------  -----------------
         O           -1.661134159117     1.353913406773    -0.082177612327    15.994914619570
         O            3.262332240883     0.896475506773    -0.040784512327    15.994914619570
         O            2.670197840883    -1.307286593227     0.083096387673    15.994914619570
         C           -2.568845159117    -0.871436593227     0.034259387673    12.000000000000
         C           -1.448858159117     0.143233406773    -0.009400612327    12.000000000000
         C           -3.950167159117    -0.238456593227    -0.020672612327    12.000000000000
         C           -0.059046159117    -0.398264593227     0.032868387673    12.000000000000
         C            1.020940040883     0.470832606773    -0.010273812327    12.000000000000
         C            2.372797840883    -0.125415593227     0.022434387673    12.000000000000
         H           -2.439448159117    -1.471196593227     0.944854387673     1.007825032230
         H           -2.416429159117    -1.571806593227    -0.799835612327     1.007825032230
         H           -4.097634159117     0.440381406773     0.822086387673     1.007825032230
         H           -4.726002159117    -1.007512593227     0.010735387673     1.007825032230
         H           -4.072426159117     0.343269406773    -0.936638612327     1.007825032230
         H            0.090729840883    -1.474205593227     0.096549387673     1.007825032230
         H            0.870663840883     1.499276406773    -0.068232612327     1.007825032230
         H            4.166858840883     0.413175406773    -0.022816612327     1.007825032230

  Basis Set: AUG-CC-PVTZ
    Blend: AUG-CC-PVTZ
  Basis Set: (AUG-CC-PVTZ AUX)
    Blend: AUG-CC-PVTZ-JKFIT
	 Reference Energy          =    -456.6159577173208390 [Eh]
	 Singles Energy            =      -0.0000000000000000 [Eh]
	 Same-Spin Energy          =      -0.4497927649641568 [Eh]
	 Opposite-Spin Energy      =      -1.4124866349314491 [Eh]
	 Correlation Energy        =      -1.8622793998956060 [Eh]
	 Total Energy              =    -458.4782371172164517 [Eh]

	 ================> DF-SCS-MP2 Energies <==================
	-----------------------------------------------------------
	 SCS Same-Spin Scale       =       0.3333333333333333 [-]
	 SCS Opposite-Spin Scale   =       1.2000000000000000 [-]
	 SCS Same-Spin Energy      =      -0.1499309216547189 [Eh]
	 SCS Opposite-Spin Energy  =      -1.6949839619177389 [Eh]
	 SCS Correlation Energy    =      -1.8449148835724578 [Eh]
	 SCS Total Energy          =    -458.4608726008933104 [Eh]
	-----------------------------------------------------------

  Dipole Moment: [D]
     X:    -0.0754      Y:    -1.1950      Z:     0.0627     Total:     1.1990

*** Psi4 exiting successfully. Buy a developer a beer!
