                               Psi4 1.3.2 release

  ==> Input File <==

--------------------------------------------------------------------------
#psi4
#
memory 32 gb

molecule  {
0 1
  O       -1.6636540     1.3623100    -0.0826750
  O        3.2950020     0.8732560    -0.0394660
  O        2.6676780    -1.2988900     0.0825990
  C       -2.5166826    -0.9201567     0.0373433
  C       -1.4513780     0.1516300    -0.0098980
  C       -3.9526870    -0.2300600    -0.0211700
  C       -0.0918870    -0.4617767     0.0359333
  C        0.9984040     0.4317740    -0.0078830
  C        2.3702780    -0.1170190     0.0219370
  H       -2.4419680    -1.4628000     0.9443570
  H       -2.4189490    -1.5634100    -0.8003330
  H       -4.1001540     0.4487780     0.8215890
  H       -4.7285220    -0.9991160     0.0102380
  H       -4.0749460     0.3516660    -0.9371360
  H        0.0882100    -1.4658090     0.0960520
  H        0.8681440     1.5076730    -0.0687300
  H        4.1643390     0.4215720    -0.0233140
units angstrom
no_reorient  #important for SAPT in psi4, default
symmetry c1  #important for SAPT in psi4, default
}

set PROPERTIES_ORIGIN ["COM"]
properties('MP2/aug-cc-pvtz', properties = ['dipole'])
--------------------------------------------------------------------------

    Molecular point group: c1
  Charge       = 0
  Multiplicity = 1
  Basis Set: AUG-CC-PVTZ
    Blend: AUG-CC-PVTZ
  Basis Set: (AUG-CC-PVTZ AUX)
    Blend: AUG-CC-PVTZ-JKFIT

    Orbital Energies [Eh]
    ---------------------

    Doubly Occupied:

       1A    -20.627581     2A    -20.563564     3A    -20.561440
       4A    -11.405127     5A    -11.351920     6A    -11.287332
       7A    -11.279525     8A    -11.246811     9A    -11.226346
      10A     -1.472311    11A     -1.390524    12A     -1.367626
      13A     -1.102041    14A     -1.056124    15A     -0.957712
      16A     -0.885327    17A     -0.798535    18A     -0.760257
      19A     -0.718129    20A     -0.713982    21A     -0.655874
      22A     -0.649900    23A     -0.641016    24A     -0.640596
      25A     -0.603410    26A     -0.585749    27A     -0.538383
      28A     -0.532527    29A     -0.512066    30A     -0.506690
      31A     -0.497802    32A     -0.471036    33A     -0.433739
      34A     -0.391727

  @DF-RHF Final Energy:  -456.60950739200786

   => Energetics <=

    Nuclear Repulsion Energy =            412.4050101175200211
    One-Electron Energy =               -1441.1635766954163955
    Two-Electron Energy =                 572.1490591858884045
    Total Energy =                       -456.6095073920079130
  Basis Set: (AUG-CC-PVTZ AUX)
    Blend: AUG-CC-PVTZ-RI
    Molecular point group: c1

    Geometry (in Angstrom), charge = 0, multiplicity = 1:

       Center              X                  Y                   Z               Mass
    ------------   -----------------  -----------------  -----------------  -----------------
         O           -1.665937047078     1.374401641326    -0.083344577300    15.994914619570
         O            3.292718952922     0.885347641326    -0.040135577300    15.994914619570
         O            2.665394952922    -1.286798358674     0.081929422700    15.994914619570
         C           -2.518965647078    -0.908065058674     0.036673722700    12.000000000000
         C           -1.453661047078     0.163721641326    -0.010567577300    12.000000000000
         C           -3.954970047078    -0.217968358674    -0.021839577300    12.000000000000
         C           -0.094170047078    -0.449685058674     0.035263722700    12.000000000000
         C            0.996120952922     0.443865641326    -0.008552577300    12.000000000000
         C            2.367994952922    -0.104927358674     0.021267422700    12.000000000000
         H           -2.444251047078    -1.450708358674     0.943687422700     1.007825032230
         H           -2.421232047078    -1.551318358674    -0.801002577300     1.007825032230
         H           -4.102437047078     0.460869641326     0.820919422700     1.007825032230
         H           -4.730805047078    -0.987024358674     0.009568422700     1.007825032230
         H           -4.077229047078     0.363757641326    -0.937805577300     1.007825032230
         H            0.085926952922    -1.453717358674     0.095382422700     1.007825032230
         H            0.865860952922     1.519764641326    -0.069399577300     1.007825032230
         H            4.162055952922     0.433663641326    -0.023983577300     1.007825032230

  Basis Set: AUG-CC-PVTZ
    Blend: AUG-CC-PVTZ
  Basis Set: (AUG-CC-PVTZ AUX)
    Blend: AUG-CC-PVTZ-JKFIT
	 Reference Energy          =    -456.6095073920078562 [Eh]
	 Singles Energy            =      -0.0000000000000000 [Eh]
	 Same-Spin Energy          =      -0.4490545413245096 [Eh]
	 Opposite-Spin Energy      =      -1.4115922234359315 [Eh]
	 Correlation Energy        =      -1.8606467647604412 [Eh]
	 Total Energy              =    -458.4701541567682739 [Eh]

	 ================> DF-SCS-MP2 Energies <==================
	-----------------------------------------------------------
	 SCS Same-Spin Scale       =       0.3333333333333333 [-]
	 SCS Opposite-Spin Scale   =       1.2000000000000000 [-]
	 SCS Same-Spin Energy      =      -0.1496848471081699 [Eh]
	 SCS Opposite-Spin Energy  =      -1.6939106681231177 [Eh]
	 SCS Correlation Energy    =      -1.8435955152312875 [Eh]
	 SCS Total Energy          =    -458.4531029072391561 [Eh]
	-----------------------------------------------------------

  Dipole Moment: [D]
     X:    -0.0435      Y:    -1.1664      Z:     0.0620     Total:     1.1688

*** Psi4 exiting successfully. Buy a developer a beer!
