                               Psi4 1.4a3.dev225

  ==> Input File <==

--------------------------------------------------------------------------
#psi4
#
memory 32 gb

molecule  {
0 1
  O       -1.5457390    -1.4151030    -0.0000120
  O        3.4055420    -0.8324430     0.0000000
  O        2.7346890     1.3362110     0.0000030
  C       -2.4962220     0.7973420     0.0000070
  C       -1.3539088    -0.1777921    -0.0000120
  C       -3.8659970     0.1363490     0.0000100
  C        0.0231420     0.3709680    -0.0000240
  C        1.1002740    -0.4324720     0.0000170
  C        2.4625110     0.1452670     0.0000070
  H       -2.3684100     1.4519690    -0.8733630
  H       -2.3683970     1.4519470     0.8733920
  H       -3.9887950    -0.4970190    -0.8807080
  H       -4.6559460     0.8916380     0.0000190
  H       -3.9887860    -0.4970320     0.8807180
  H        0.1589340     1.4510060    -0.0000590
  H        0.9863010    -1.5124980     0.0000520
  H        4.2687480    -0.3687180    -0.0000090
units angstrom
no_reorient  #important for SAPT in psi4, default
symmetry c1  #important for SAPT in psi4, default
}

set PROPERTIES_ORIGIN ["COM"]
properties('MP2/aug-cc-pvtz', properties = ['dipole'])
--------------------------------------------------------------------------

    Molecular point group: c1
  Charge       = 0
  Multiplicity = 1
  Basis Set: AUG-CC-PVTZ
    Blend: AUG-CC-PVTZ
  Basis Set: (AUG-CC-PVTZ AUX)
    Blend: AUG-CC-PVTZ-JKFIT

    Orbital Energies [Eh]
    ---------------------

    Doubly Occupied:

       1A    -20.628532     2A    -20.562707     3A    -20.559024
       4A    -11.407155     5A    -11.351437     6A    -11.278432
       7A    -11.276456     8A    -11.253439     9A    -11.225617
      10A     -1.471688    11A     -1.376990    12A     -1.367969
      13A     -1.109851    14A     -1.067363    15A     -0.959439
      16A     -0.889273    17A     -0.800839    18A     -0.746859
      19A     -0.717591    20A     -0.713159    21A     -0.660942
      22A     -0.644040    23A     -0.639273    24A     -0.637636
      25A     -0.606022    26A     -0.568586    27A     -0.539371
      28A     -0.536411    29A     -0.523654    30A     -0.500953
      31A     -0.493916    32A     -0.472050    33A     -0.437893
      34A     -0.403108

  @DF-RHF Final Energy:  -456.62466263895112

   => Energetics <=

    Nuclear Repulsion Energy =            413.0524282060053451
    One-Electron Energy =               -1442.4988311986433018
    Two-Electron Energy =                 572.8217403536868915
    Total Energy =                       -456.6246626389511221
  Basis Set: (AUG-CC-PVTZ AUX)
    Blend: AUG-CC-PVTZ-RI
    Molecular point group: c1

    Geometry (in Angstrom), charge = 0, multiplicity = 1:

       Center              X                  Y                   Z               Mass
    ------------   -----------------  -----------------  -----------------  -----------------
         O           -1.638487412006    -1.398617423628    -0.000011674920    15.994914619570
         O            3.312793587994    -0.815957423628     0.000000325080    15.994914619570
         O            2.641940587994     1.352696576372     0.000003325080    15.994914619570
         C           -2.588970412006     0.813827576372     0.000007325080    12.000000000000
         C           -1.446657212006    -0.161306523628    -0.000011674920    12.000000000000
         C           -3.958745412006     0.152834576372     0.000010325080    12.000000000000
         C           -0.069606412006     0.387453576372    -0.000023674920    12.000000000000
         C            1.007525587994    -0.415986423628     0.000017325080    12.000000000000
         C            2.369762587994     0.161752576372     0.000007325080    12.000000000000
         H           -2.461158412006     1.468454576372    -0.873362674920     1.007825032230
         H           -2.461145412006     1.468432576372     0.873392325080     1.007825032230
         H           -4.081543412006    -0.480533423628    -0.880707674920     1.007825032230
         H           -4.748694412006     0.908123576372     0.000019325080     1.007825032230
         H           -4.081534412006    -0.480546423628     0.880718325080     1.007825032230
         H            0.066185587994     1.467491576372    -0.000058674920     1.007825032230
         H            0.893552587994    -1.496012423628     0.000052325080     1.007825032230
         H            4.175999587994    -0.352232423628    -0.000008674920     1.007825032230

  Basis Set: AUG-CC-PVTZ
    Blend: AUG-CC-PVTZ
  Basis Set: (AUG-CC-PVTZ AUX)
    Blend: AUG-CC-PVTZ-JKFIT
	 Reference Energy          =    -456.6246626389511221 [Eh]
	 Singles Energy            =      -0.0000000000000000 [Eh]
	 Same-Spin Energy          =      -0.4490473648584262 [Eh]
	 Opposite-Spin Energy      =      -1.4107995918496139 [Eh]
	 Correlation Energy        =      -1.8598469567080400 [Eh]
	 Total Energy              =    -458.4845095956591763 [Eh]

	 ================> DF-SCS-MP2 Energies <==================
	-----------------------------------------------------------
	 SCS Same-Spin Scale       =       0.3333333333333333 [-]
	 SCS Opposite-Spin Scale   =       1.2000000000000000 [-]
	 SCS Same-Spin Energy      =      -0.1496824549528087 [Eh]
	 SCS Opposite-Spin Energy  =      -1.6929595102195367 [Eh]
	 SCS Correlation Energy    =      -1.8426419651723454 [Eh]
	 SCS Total Energy          =    -458.4673046041234556 [Eh]
	-----------------------------------------------------------

  Dipole Moment: [D]
     X:    -0.1679      Y:     1.2441      Z:     0.0000     Total:     1.2554

*** Psi4 exiting successfully. Buy a developer a beer!
