                               Psi4 1.3.2 release

  ==> Input File <==

--------------------------------------------------------------------------
#psi4
#
memory 32 gb

molecule  {
0 1
  O       -1.6636540     1.3623100    -0.0826750
  O        3.2950020     0.8732560    -0.0394660
  O        2.6676780    -1.2988900     0.0825990
  C       -2.5713650    -0.8630400     0.0337620
  C       -1.4513780     0.1516300    -0.0098980
  C       -3.9526870    -0.2300600    -0.0211700
  C       -0.0896285    -0.3524408     0.0301282
  C        0.9984040     0.4317740    -0.0078830
  C        2.3702780    -0.1170190     0.0219370
  H       -2.4419680    -1.4628000     0.9443570
  H       -2.4189490    -1.5634100    -0.8003330
  H       -4.1001540     0.4487780     0.8215890
  H       -4.7285220    -0.9991160     0.0102380
  H       -4.0749460     0.3516660    -0.9371360
  H        0.0882100    -1.4658090     0.0960520
  H        0.8306156     1.5024674    -0.0686401
  H        4.1643390     0.4215720    -0.0233140
units angstrom
no_reorient  #important for SAPT in psi4, default
symmetry c1  #important for SAPT in psi4, default
}

set PROPERTIES_ORIGIN ["COM"]
properties('MP2/aug-cc-pvtz', properties = ['dipole'])
--------------------------------------------------------------------------

    Molecular point group: c1
  Charge       = 0
  Multiplicity = 1
  Basis Set: AUG-CC-PVTZ
    Blend: AUG-CC-PVTZ
  Basis Set: (AUG-CC-PVTZ AUX)
    Blend: AUG-CC-PVTZ-JKFIT

    Orbital Energies [Eh]
    ---------------------

    Doubly Occupied:

       1A    -20.628886     2A    -20.563495     3A    -20.559848
       4A    -11.408374     5A    -11.346940     6A    -11.277441
       7A    -11.275435     8A    -11.252479     9A    -11.225131
      10A     -1.473598    11A     -1.391684    12A     -1.369013
      13A     -1.110599    14A     -1.065850    15A     -0.961715
      16A     -0.888282    17A     -0.804299    18A     -0.741509
      19A     -0.720275    20A     -0.712413    21A     -0.666659
      22A     -0.644888    23A     -0.640224    24A     -0.639757
      25A     -0.607074    26A     -0.558985    27A     -0.541660
      28A     -0.537886    29A     -0.524582    30A     -0.501530
      31A     -0.496609    32A     -0.473505    33A     -0.438023
      34A     -0.403480

  @DF-RHF Final Energy:  -456.62470016012458

   => Energetics <=

    Nuclear Repulsion Energy =            413.8623198529862179
    One-Electron Energy =               -1444.0697840877508042
    Two-Electron Energy =                 573.5827640746399538
    Total Energy =                       -456.6247001601245756
  Basis Set: (AUG-CC-PVTZ AUX)
    Blend: AUG-CC-PVTZ-RI
    Molecular point group: c1

    Geometry (in Angstrom), charge = 0, multiplicity = 1:

       Center              X                  Y                   Z               Mass
    ------------   -----------------  -----------------  -----------------  -----------------
         O           -1.660728748026     1.358843451659    -0.082465635239    15.994914619570
         O            3.297927251974     0.869789451659    -0.039256635239    15.994914619570
         O            2.670603251974    -1.302356548341     0.082808364761    15.994914619570
         C           -2.568439748026    -0.866506548341     0.033971364761    12.000000000000
         C           -1.448452748026     0.148163451659    -0.009688635239    12.000000000000
         C           -3.949761748026    -0.233526548341    -0.020960635239    12.000000000000
         C           -0.086703248026    -0.355907348341     0.030337564761    12.000000000000
         C            1.001329251974     0.428307451659    -0.007673635239    12.000000000000
         C            2.373203251974    -0.120485548341     0.022146364761    12.000000000000
         H           -2.439042748026    -1.466266548341     0.944566364761     1.007825032230
         H           -2.416023748026    -1.566876548341    -0.800123635239     1.007825032230
         H           -4.097228748026     0.445311451659     0.821798364761     1.007825032230
         H           -4.725596748026    -1.002582548341     0.010447364761     1.007825032230
         H           -4.072020748026     0.348199451659    -0.936926635239     1.007825032230
         H            0.091135251974    -1.469275548341     0.096261364761     1.007825032230
         H            0.833540851974     1.499000851659    -0.068430735239     1.007825032230
         H            4.167264251974     0.418105451659    -0.023104635239     1.007825032230

  Basis Set: AUG-CC-PVTZ
    Blend: AUG-CC-PVTZ
  Basis Set: (AUG-CC-PVTZ AUX)
    Blend: AUG-CC-PVTZ-JKFIT
	 Reference Energy          =    -456.6247001601245756 [Eh]
	 Singles Energy            =      -0.0000000000000000 [Eh]
	 Same-Spin Energy          =      -0.4488195506013538 [Eh]
	 Opposite-Spin Energy      =      -1.4099469628874042 [Eh]
	 Correlation Energy        =      -1.8587665134887579 [Eh]
	 Total Energy              =    -458.4834666736133499 [Eh]

	 ================> DF-SCS-MP2 Energies <==================
	-----------------------------------------------------------
	 SCS Same-Spin Scale       =       0.3333333333333333 [-]
	 SCS Opposite-Spin Scale   =       1.2000000000000000 [-]
	 SCS Same-Spin Energy      =      -0.1496065168671179 [Eh]
	 SCS Opposite-Spin Energy  =      -1.6919363554648850 [Eh]
	 SCS Correlation Energy    =      -1.8415428723320029 [Eh]
	 SCS Total Energy          =    -458.4662430324565889 [Eh]
	-----------------------------------------------------------

  Dipole Moment: [D]
     X:    -0.1116      Y:    -1.1790      Z:     0.0614     Total:     1.1858

*** Psi4 exiting successfully. Buy a developer a beer!
