                               Psi4 1.3.2 release

  ==> Input File <==

--------------------------------------------------------------------------
#psi4
#
memory 32 gb

molecule  {
0 1
  O       -1.6636540     1.3623100    -0.0826750
  O        3.2950020     0.8732560    -0.0394660
  O        2.6676780    -1.2988900     0.0825990
  C       -2.5713650    -0.8630400     0.0337620
  C       -1.4210537     0.2235175    -0.0138392
  C       -3.9526870    -0.2300600    -0.0211700
  C       -0.0615660    -0.3898680     0.0323710
  C        0.9984040     0.4317740    -0.0078830
  C        2.3702780    -0.1170190     0.0219370
  H       -2.4419680    -1.4628000     0.9443570
  H       -2.4189490    -1.5634100    -0.8003330
  H       -4.1001540     0.4487780     0.8215890
  H       -4.7285220    -0.9991160     0.0102380
  H       -4.0749460     0.3516660    -0.9371360
  H        0.1444119    -1.4564834     0.0959471
  H        0.8681440     1.5076730    -0.0687300
  H        4.1643390     0.4215720    -0.0233140
units angstrom
no_reorient  #important for SAPT in psi4, default
symmetry c1  #important for SAPT in psi4, default
}

set PROPERTIES_ORIGIN ["COM"]
properties('MP2/aug-cc-pvtz', properties = ['dipole'])
--------------------------------------------------------------------------

    Molecular point group: c1
  Charge       = 0
  Multiplicity = 1
  Basis Set: AUG-CC-PVTZ
    Blend: AUG-CC-PVTZ
  Basis Set: (AUG-CC-PVTZ AUX)
    Blend: AUG-CC-PVTZ-JKFIT

    Orbital Energies [Eh]
    ---------------------

    Doubly Occupied:

       1A    -20.627925     2A    -20.566169     3A    -20.562029
       4A    -11.405506     5A    -11.346086     6A    -11.275087
       7A    -11.273330     8A    -11.246831     9A    -11.221301
      10A     -1.472672    11A     -1.436905    12A     -1.368139
      13A     -1.110067    14A     -1.052040    15A     -0.952927
      16A     -0.878445    17A     -0.796216    18A     -0.751786
      19A     -0.720844    20A     -0.713649    21A     -0.664460
      22A     -0.651257    23A     -0.643040    24A     -0.635389
      25A     -0.607652    26A     -0.574746    27A     -0.558852
      28A     -0.539357    29A     -0.522246    30A     -0.500367
      31A     -0.499194    32A     -0.472162    33A     -0.420417
      34A     -0.407531

  @DF-RHF Final Energy:  -456.62568774589187

   => Energetics <=

    Nuclear Repulsion Energy =            414.0421433531712978
    One-Electron Energy =               -1444.3864078097565198
    Two-Electron Energy =                 573.7185767106933554
    Total Energy =                       -456.6256877458919234
  Basis Set: (AUG-CC-PVTZ AUX)
    Blend: AUG-CC-PVTZ-RI
    Molecular point group: c1

    Geometry (in Angstrom), charge = 0, multiplicity = 1:

       Center              X                  Y                   Z               Mass
    ------------   -----------------  -----------------  -----------------  -----------------
         O           -1.666938211785     1.355499622000    -0.082304935894    15.994914619570
         O            3.291717788215     0.866445622000    -0.039095935894    15.994914619570
         O            2.664393788215    -1.305700378000     0.082969064106    15.994914619570
         C           -2.574649211785    -0.869850378000     0.034132064106    12.000000000000
         C           -1.424337911785     0.216707122000    -0.013469135894    12.000000000000
         C           -3.955971211785    -0.236870378000    -0.020799935894    12.000000000000
         C           -0.064850211785    -0.396678378000     0.032741064106    12.000000000000
         C            0.995119788215     0.424963622000    -0.007512935894    12.000000000000
         C            2.366993788215    -0.123829378000     0.022307064106    12.000000000000
         H           -2.445252211785    -1.469610378000     0.944727064106     1.007825032230
         H           -2.422233211785    -1.570220378000    -0.799962935894     1.007825032230
         H           -4.103438211785     0.441967622000     0.821959064106     1.007825032230
         H           -4.731806211785    -1.005926378000     0.010608064106     1.007825032230
         H           -4.078230211785     0.344855622000    -0.936765935894     1.007825032230
         H            0.141127688215    -1.463293778000     0.096317164106     1.007825032230
         H            0.864859788215     1.500862622000    -0.068359935894     1.007825032230
         H            4.161054788215     0.414761622000    -0.022943935894     1.007825032230

  Basis Set: AUG-CC-PVTZ
    Blend: AUG-CC-PVTZ
  Basis Set: (AUG-CC-PVTZ AUX)
    Blend: AUG-CC-PVTZ-JKFIT
	 Reference Energy          =    -456.6256877458918666 [Eh]
	 Singles Energy            =      -0.0000000000000000 [Eh]
	 Same-Spin Energy          =      -0.4466607965581357 [Eh]
	 Opposite-Spin Energy      =      -1.4055401900855344 [Eh]
	 Correlation Energy        =      -1.8522009866436702 [Eh]
	 Total Energy              =    -458.4778887325355186 [Eh]

	 ================> DF-SCS-MP2 Energies <==================
	-----------------------------------------------------------
	 SCS Same-Spin Scale       =       0.3333333333333333 [-]
	 SCS Opposite-Spin Scale   =       1.2000000000000000 [-]
	 SCS Same-Spin Energy      =      -0.1488869321860452 [Eh]
	 SCS Opposite-Spin Energy  =      -1.6866482281026414 [Eh]
	 SCS Correlation Energy    =      -1.8355351602886867 [Eh]
	 SCS Total Energy          =    -458.4612229061805806 [Eh]
	-----------------------------------------------------------

  Dipole Moment: [D]
     X:     0.0879      Y:    -0.8627      Z:     0.0464     Total:     0.8684

*** Psi4 exiting successfully. Buy a developer a beer!
