                               Psi4 1.3.2 release

  ==> Input File <==

--------------------------------------------------------------------------
#psi4
#
memory 32 gb

molecule  {
0 1
  O       -1.6636540     1.3623100    -0.0826750
  O        3.2950020     0.8732560    -0.0394660
  O        2.6676780    -1.2988900     0.0825990
  C       -2.5713650    -0.8630400     0.0337620
  C       -1.4513780     0.1516300    -0.0098980
  C       -3.9526870    -0.2300600    -0.0211700
  C       -0.0615660    -0.3898680     0.0323710
  C        0.9194040     0.3705367    -0.0048829
  C        2.3702780    -0.1170190     0.0219370
  H       -2.4419680    -1.4628000     0.9443570
  H       -2.4189490    -1.5634100    -0.8003330
  H       -4.1001540     0.4487780     0.8215890
  H       -4.7285220    -0.9991160     0.0102380
  H       -4.0749460     0.3516660    -0.9371360
  H        0.0882100    -1.4658090     0.0960520
  H        0.8681440     1.5076730    -0.0687300
  H        4.1643390     0.4215720    -0.0233140
units angstrom
no_reorient  #important for SAPT in psi4, default
symmetry c1  #important for SAPT in psi4, default
}

set PROPERTIES_ORIGIN ["COM"]
properties('MP2/aug-cc-pvtz', properties = ['dipole'])
--------------------------------------------------------------------------

    Molecular point group: c1
  Charge       = 0
  Multiplicity = 1
  Basis Set: AUG-CC-PVTZ
    Blend: AUG-CC-PVTZ
  Basis Set: (AUG-CC-PVTZ AUX)
    Blend: AUG-CC-PVTZ-JKFIT

    Orbital Energies [Eh]
    ---------------------

    Doubly Occupied:

       1A    -20.631692     2A    -20.562198     3A    -20.558755
       4A    -11.408192     5A    -11.348258     6A    -11.269610
       7A    -11.256043     8A    -11.251291     9A    -11.224222
      10A     -1.473096    11A     -1.389190    12A     -1.368772
      13A     -1.126639    14A     -1.065546    15A     -0.946385
      16A     -0.888584    17A     -0.798938    18A     -0.741609
      19A     -0.717790    20A     -0.714167    21A     -0.669649
      22A     -0.643837    23A     -0.639639    24A     -0.638596
      25A     -0.609535    26A     -0.553693    27A     -0.541507
      28A     -0.539055    29A     -0.523200    30A     -0.502243
      31A     -0.495722    32A     -0.464940    33A     -0.432743
      34A     -0.424744

  @DF-RHF Final Energy:  -456.61591466627380

   => Energetics <=

    Nuclear Repulsion Energy =            414.3205416700475325
    One-Electron Energy =               -1445.0327510513632205
    Two-Electron Energy =                 574.0962947150419495
    Total Energy =                       -456.6159146662737385
  Basis Set: (AUG-CC-PVTZ AUX)
    Blend: AUG-CC-PVTZ-RI
    Molecular point group: c1

    Geometry (in Angstrom), charge = 0, multiplicity = 1:

       Center              X                  Y                   Z               Mass
    ------------   -----------------  -----------------  -----------------  -----------------
         O           -1.656250498649     1.368048856693    -0.082956267801    15.994914619570
         O            3.302405501351     0.878994856693    -0.039747267801    15.994914619570
         O            2.675081501351    -1.293151143307     0.082317732199    15.994914619570
         C           -2.563961498649    -0.857301143307     0.033480732199    12.000000000000
         C           -1.443974498649     0.157368856693    -0.010179267801    12.000000000000
         C           -3.945283498649    -0.224321143307    -0.021451267801    12.000000000000
         C           -0.054162498649    -0.384129143307     0.032089732199    12.000000000000
         C            0.926807501351     0.376275556693    -0.005164167801    12.000000000000
         C            2.377681501351    -0.111280143307     0.021655732199    12.000000000000
         H           -2.434564498649    -1.457061143307     0.944075732199     1.007825032230
         H           -2.411545498649    -1.557671143307    -0.800614267801     1.007825032230
         H           -4.092750498649     0.454516856693     0.821307732199     1.007825032230
         H           -4.721118498649    -0.993377143307     0.009956732199     1.007825032230
         H           -4.067542498649     0.357404856693    -0.937417267801     1.007825032230
         H            0.095613501351    -1.460070143307     0.095770732199     1.007825032230
         H            0.875547501351     1.513411856693    -0.069011267801     1.007825032230
         H            4.171742501351     0.427310856693    -0.023595267801     1.007825032230

  Basis Set: AUG-CC-PVTZ
    Blend: AUG-CC-PVTZ
  Basis Set: (AUG-CC-PVTZ AUX)
    Blend: AUG-CC-PVTZ-JKFIT
	 Reference Energy          =    -456.6159146662737953 [Eh]
	 Singles Energy            =      -0.0000000000000000 [Eh]
	 Same-Spin Energy          =      -0.4472600668194668 [Eh]
	 Opposite-Spin Energy      =      -1.4067469376884254 [Eh]
	 Correlation Energy        =      -1.8540070045078922 [Eh]
	 Total Energy              =    -458.4699216707816731 [Eh]

	 ================> DF-SCS-MP2 Energies <==================
	-----------------------------------------------------------
	 SCS Same-Spin Scale       =       0.3333333333333333 [-]
	 SCS Opposite-Spin Scale   =       1.2000000000000000 [-]
	 SCS Same-Spin Energy      =      -0.1490866889398223 [Eh]
	 SCS Opposite-Spin Energy  =      -1.6880963252261105 [Eh]
	 SCS Correlation Energy    =      -1.8371830141659329 [Eh]
	 SCS Total Energy          =    -458.4530976804397255 [Eh]
	-----------------------------------------------------------

  Dipole Moment: [D]
     X:    -0.0454      Y:    -1.2040      Z:     0.0632     Total:     1.2066

*** Psi4 exiting successfully. Buy a developer a beer!
