                               Psi4 1.3.2 release

  ==> Input File <==

--------------------------------------------------------------------------
#psi4
#
memory 32 gb

molecule  {
0 1
  O       -1.6636540     1.3623100    -0.0826750
  O        3.2950020     0.8732560    -0.0394660
  O        2.6676780    -1.2988900     0.0825990
  C       -2.5713650    -0.8630400     0.0337620
  C       -1.3772997     0.2187424    -0.0127858
  C       -3.9526870    -0.2300600    -0.0211700
  C       -0.0615660    -0.3898680     0.0323710
  C        0.9984040     0.4317740    -0.0078830
  C        2.3702780    -0.1170190     0.0219370
  H       -2.4419680    -1.4628000     0.9443570
  H       -2.4189490    -1.5634100    -0.8003330
  H       -4.1001540     0.4487780     0.8215890
  H       -4.7285220    -0.9991160     0.0102380
  H       -4.0749460     0.3516660    -0.9371360
  H        0.0882100    -1.4658090     0.0960520
  H        0.8681440     1.5076730    -0.0687300
  H        4.1643390     0.4215720    -0.0233140
units angstrom
no_reorient  #important for SAPT in psi4, default
symmetry c1  #important for SAPT in psi4, default
}

set PROPERTIES_ORIGIN ["COM"]
properties('MP2/aug-cc-pvtz', properties = ['dipole'])
--------------------------------------------------------------------------

    Molecular point group: c1
  Charge       = 0
  Multiplicity = 1
  Basis Set: AUG-CC-PVTZ
    Blend: AUG-CC-PVTZ
  Basis Set: (AUG-CC-PVTZ AUX)
    Blend: AUG-CC-PVTZ-JKFIT

    Orbital Energies [Eh]
    ---------------------

    Doubly Occupied:

       1A    -20.630292     2A    -20.565050     3A    -20.563274
       4A    -11.408261     5A    -11.344203     6A    -11.281027
       7A    -11.275062     8A    -11.245112     9A    -11.219363
      10A     -1.475184    11A     -1.424295    12A     -1.370676
      13A     -1.117689    14A     -1.046275    15A     -0.961060
      16A     -0.875827    17A     -0.801157    18A     -0.754609
      19A     -0.717886    20A     -0.716528    21A     -0.663632
      22A     -0.647531    23A     -0.644984    24A     -0.630923
      25A     -0.609514    26A     -0.579513    27A     -0.554892
      28A     -0.536861    29A     -0.519986    30A     -0.501424
      31A     -0.496901    32A     -0.474789    33A     -0.416423
      34A     -0.410229

  @DF-RHF Final Energy:  -456.62204021954494

   => Energetics <=

    Nuclear Repulsion Energy =            414.0578061690305844
    One-Electron Energy =               -1444.3988298847543774
    Two-Electron Energy =                 573.7189834961789074
    Total Energy =                       -456.6220402195449424
  Basis Set: (AUG-CC-PVTZ AUX)
    Blend: AUG-CC-PVTZ-RI
    Molecular point group: c1

    Geometry (in Angstrom), charge = 0, multiplicity = 1:

       Center              X                  Y                   Z               Mass
    ------------   -----------------  -----------------  -----------------  -----------------
         O           -1.670596283114     1.356020521309    -0.082404481269    15.994914619570
         O            3.288059716886     0.866966521309    -0.039195481269    15.994914619570
         O            2.660735716886    -1.305179478691     0.082869518731    15.994914619570
         C           -2.578307283114    -0.869329478691     0.034032518731    12.000000000000
         C           -1.384241983114     0.212452921309    -0.012515281269    12.000000000000
         C           -3.959629283114    -0.236349478691    -0.020899481269    12.000000000000
         C           -0.068508283114    -0.396157478691     0.032641518731    12.000000000000
         C            0.991461716886     0.425484521309    -0.007612481269    12.000000000000
         C            2.363335716886    -0.123308478691     0.022207518731    12.000000000000
         H           -2.448910283114    -1.469089478691     0.944627518731     1.007825032230
         H           -2.425891283114    -1.569699478691    -0.800062481269     1.007825032230
         H           -4.107096283114     0.442488521309     0.821859518731     1.007825032230
         H           -4.735464283114    -1.005405478691     0.010508518731     1.007825032230
         H           -4.081888283114     0.345376521309    -0.936865481269     1.007825032230
         H            0.081267716886    -1.472098478691     0.096322518731     1.007825032230
         H            0.861201716886     1.501383521309    -0.068459481269     1.007825032230
         H            4.157396716886     0.415282521309    -0.023043481269     1.007825032230

  Basis Set: AUG-CC-PVTZ
    Blend: AUG-CC-PVTZ
  Basis Set: (AUG-CC-PVTZ AUX)
    Blend: AUG-CC-PVTZ-JKFIT
	 Reference Energy          =    -456.6220402195449424 [Eh]
	 Singles Energy            =      -0.0000000000000000 [Eh]
	 Same-Spin Energy          =      -0.4472927127336394 [Eh]
	 Opposite-Spin Energy      =      -1.4069193612013606 [Eh]
	 Correlation Energy        =      -1.8542120739350001 [Eh]
	 Total Energy              =    -458.4762522934799449 [Eh]

	 ================> DF-SCS-MP2 Energies <==================
	-----------------------------------------------------------
	 SCS Same-Spin Scale       =       0.3333333333333333 [-]
	 SCS Opposite-Spin Scale   =       1.2000000000000000 [-]
	 SCS Same-Spin Energy      =      -0.1490975709112131 [Eh]
	 SCS Opposite-Spin Energy  =      -1.6883032334416328 [Eh]
	 SCS Correlation Energy    =      -1.8374008043528458 [Eh]
	 SCS Total Energy          =    -458.4594410238977957 [Eh]
	-----------------------------------------------------------

  Dipole Moment: [D]
     X:     0.4086      Y:    -0.8644      Z:     0.0494     Total:     0.9574

*** Psi4 exiting successfully. Buy a developer a beer!
