                               Psi4 1.3.2 release

  ==> Input File <==

--------------------------------------------------------------------------
#psi4
#
memory 32 gb

molecule  {
0 1
  O       -1.6636540     1.3623100    -0.0826750
  O        3.2950020     0.8732560    -0.0394660
  O        2.6676780    -1.2988900     0.0825990
  C       -2.5713650    -0.8630400     0.0337620
  C       -1.4513780     0.1516300    -0.0098980
  C       -3.9526870    -0.2300600    -0.0211700
  C       -0.0757614    -0.3712687     0.0314059
  C        0.9984040     0.4317740    -0.0078830
  C        2.3796609    -0.0930231     0.0207310
  H       -2.4419680    -1.4628000     0.9443570
  H       -2.4189490    -1.5634100    -0.8003330
  H       -4.1001540     0.4487780     0.8215890
  H       -4.7285220    -0.9991160     0.0102380
  H       -4.0749460     0.3516660    -0.9371360
  H        0.0882100    -1.4658090     0.0960520
  H        0.8681440     1.5076730    -0.0687300
  H        4.1643390     0.4215720    -0.0233140
units angstrom
no_reorient  #important for SAPT in psi4, default
symmetry c1  #important for SAPT in psi4, default
}

set PROPERTIES_ORIGIN ["COM"]
properties('MP2/aug-cc-pvtz', properties = ['dipole'])
--------------------------------------------------------------------------

    Molecular point group: c1
  Charge       = 0
  Multiplicity = 1
  Basis Set: AUG-CC-PVTZ
    Blend: AUG-CC-PVTZ
  Basis Set: (AUG-CC-PVTZ AUX)
    Blend: AUG-CC-PVTZ-JKFIT

    Orbital Energies [Eh]
    ---------------------

    Doubly Occupied:

       1A    -20.635158     2A    -20.559903     3A    -20.557302
       4A    -11.407598     5A    -11.348234     6A    -11.277167
       7A    -11.275491     8A    -11.252234     9A    -11.224955
      10A     -1.480406    11A     -1.390738    12A     -1.358682
      13A     -1.108878    14A     -1.065446    15A     -0.961063
      16A     -0.890473    17A     -0.806278    18A     -0.743240
      19A     -0.719962    20A     -0.714430    21A     -0.664399
      22A     -0.647521    23A     -0.641307    24A     -0.640611
      25A     -0.603346    26A     -0.562230    27A     -0.540619
      28A     -0.538739    29A     -0.524269    30A     -0.499703
      31A     -0.492161    32A     -0.468941    33A     -0.436501
      34A     -0.402619

  @DF-RHF Final Energy:  -456.62534215102426

   => Energetics <=

    Nuclear Repulsion Energy =            413.5756652187234863
    One-Electron Energy =               -1443.5208069236666688
    Two-Electron Energy =                 573.3197995539188696
    Total Energy =                       -456.6253421510242561
  Basis Set: (AUG-CC-PVTZ AUX)
    Blend: AUG-CC-PVTZ-RI
    Molecular point group: c1

    Geometry (in Angstrom), charge = 0, multiplicity = 1:

       Center              X                  Y                   Z               Mass
    ------------   -----------------  -----------------  -----------------  -----------------
         O           -1.663203005209     1.358318158968    -0.082471647051    15.994914619570
         O            3.295452994791     0.869264158968    -0.039262647051    15.994914619570
         O            2.668128994791    -1.302881841032     0.082802352949    15.994914619570
         C           -2.570914005209    -0.867031841032     0.033965352949    12.000000000000
         C           -1.450927005209     0.147638158968    -0.009694647051    12.000000000000
         C           -3.952236005209    -0.234051841032    -0.020966647051    12.000000000000
         C           -0.075310405209    -0.375260541032     0.031609252949    12.000000000000
         C            0.998854994791     0.427782158968    -0.007679647051    12.000000000000
         C            2.380111894791    -0.097014941032     0.020934352949    12.000000000000
         H           -2.441517005209    -1.466791841032     0.944560352949     1.007825032230
         H           -2.418498005209    -1.567401841032    -0.800129647051     1.007825032230
         H           -4.099703005209     0.444786158968     0.821792352949     1.007825032230
         H           -4.728071005209    -1.003107841032     0.010441352949     1.007825032230
         H           -4.074495005209     0.347674158968    -0.936932647051     1.007825032230
         H            0.088660994791    -1.469800841032     0.096255352949     1.007825032230
         H            0.868594994791     1.503681158968    -0.068526647051     1.007825032230
         H            4.164789994791     0.417580158968    -0.023110647051     1.007825032230

  Basis Set: AUG-CC-PVTZ
    Blend: AUG-CC-PVTZ
  Basis Set: (AUG-CC-PVTZ AUX)
    Blend: AUG-CC-PVTZ-JKFIT
	 Reference Energy          =    -456.6253421510242561 [Eh]
	 Singles Energy            =      -0.0000000000000000 [Eh]
	 Same-Spin Energy          =      -0.4487542382767250 [Eh]
	 Opposite-Spin Energy      =      -1.4098388008019436 [Eh]
	 Correlation Energy        =      -1.8585930390786687 [Eh]
	 Total Energy              =    -458.4839351901028976 [Eh]

	 ================> DF-SCS-MP2 Energies <==================
	-----------------------------------------------------------
	 SCS Same-Spin Scale       =       0.3333333333333333 [-]
	 SCS Opposite-Spin Scale   =       1.2000000000000000 [-]
	 SCS Same-Spin Energy      =      -0.1495847460922416 [Eh]
	 SCS Opposite-Spin Energy  =      -1.6918065609623323 [Eh]
	 SCS Correlation Energy    =      -1.8413913070545740 [Eh]
	 SCS Total Energy          =    -458.4667334580788065 [Eh]
	-----------------------------------------------------------

  Dipole Moment: [D]
     X:    -0.0237      Y:    -0.9968      Z:     0.0510     Total:     0.9983

*** Psi4 exiting successfully. Buy a developer a beer!
