                               Psi4 1.3.2 release

  ==> Input File <==

--------------------------------------------------------------------------
#psi4
#
memory 32 gb

molecule  {
0 1
  O       -1.6636540     1.3623100    -0.0826750
  O        3.2950020     0.8732560    -0.0394660
  O        2.6676780    -1.2988900     0.0825990
  C       -2.5713650    -0.8630400     0.0337620
  C       -1.4694825     0.1028681    -0.0072055
  C       -3.9526870    -0.2300600    -0.0211700
  C       -0.0615660    -0.3898680     0.0323710
  C        0.9984040     0.4317740    -0.0078830
  C        2.3702780    -0.1170190     0.0219370
  H       -2.4419680    -1.4628000     0.9443570
  H       -2.4189490    -1.5634100    -0.8003330
  H       -4.1001540     0.4487780     0.8215890
  H       -4.7285220    -0.9991160     0.0102380
  H       -4.0749460     0.3516660    -0.9371360
  H        0.0505044    -1.4703890     0.0960250
  H        0.8681440     1.5076730    -0.0687300
  H        4.1643390     0.4215720    -0.0233140
units angstrom
no_reorient  #important for SAPT in psi4, default
symmetry c1  #important for SAPT in psi4, default
}

set PROPERTIES_ORIGIN ["COM"]
properties('MP2/aug-cc-pvtz', properties = ['dipole'])
--------------------------------------------------------------------------

    Molecular point group: c1
  Charge       = 0
  Multiplicity = 1
  Basis Set: AUG-CC-PVTZ
    Blend: AUG-CC-PVTZ
  Basis Set: (AUG-CC-PVTZ AUX)
    Blend: AUG-CC-PVTZ-JKFIT

    Orbital Energies [Eh]
    ---------------------

    Doubly Occupied:

       1A    -20.627573     2A    -20.561164     3A    -20.556914
       4A    -11.405613     5A    -11.352879     6A    -11.278783
       7A    -11.276921     8A    -11.255053     9A    -11.227625
      10A     -1.472151    11A     -1.367385    12A     -1.361811
      13A     -1.109639    14A     -1.074888    15A     -0.960754
      16A     -0.893357    17A     -0.801306    18A     -0.744363
      19A     -0.718335    20A     -0.712687    21A     -0.661099
      22A     -0.647223    23A     -0.640467    24A     -0.635617
      25A     -0.605082    26A     -0.566593    27A     -0.540938
      28A     -0.533687    29A     -0.523793    30A     -0.500284
      31A     -0.489812    32A     -0.470931    33A     -0.440298
      34A     -0.401701

  @DF-RHF Final Energy:  -456.61879155148466

   => Energetics <=

    Nuclear Repulsion Energy =            413.1510169601737630
    One-Electron Energy =               -1442.7061689644567650
    Two-Electron Energy =                 572.9363604527982261
    Total Energy =                       -456.6187915514847191
  Basis Set: (AUG-CC-PVTZ AUX)
    Blend: AUG-CC-PVTZ-RI
    Molecular point group: c1

    Geometry (in Angstrom), charge = 0, multiplicity = 1:

       Center              X                  Y                   Z               Mass
    ------------   -----------------  -----------------  -----------------  -----------------
         O           -1.661660570660     1.366915768284    -0.082927228454    15.994914619570
         O            3.296995429340     0.877861768284    -0.039718228454    15.994914619570
         O            2.669671429340    -1.294284231716     0.082346771546    15.994914619570
         C           -2.569371570660    -0.858434231716     0.033509771546    12.000000000000
         C           -1.467489070660     0.107473868284    -0.007457728454    12.000000000000
         C           -3.950693570660    -0.225454231716    -0.021422228454    12.000000000000
         C           -0.059572570660    -0.385262231716     0.032118771546    12.000000000000
         C            1.000397429340     0.436379768284    -0.008135228454    12.000000000000
         C            2.372271429340    -0.112413231716     0.021684771546    12.000000000000
         H           -2.439974570660    -1.458194231716     0.944104771546     1.007825032230
         H           -2.416955570660    -1.558804231716    -0.800585228454     1.007825032230
         H           -4.098160570660     0.453383768284     0.821336771546     1.007825032230
         H           -4.726528570660    -0.994510231716     0.009985771546     1.007825032230
         H           -4.072952570660     0.356271768284    -0.937388228454     1.007825032230
         H            0.052497829340    -1.465783231716     0.095772771546     1.007825032230
         H            0.870137429340     1.512278768284    -0.068982228454     1.007825032230
         H            4.166332429340     0.426177768284    -0.023566228454     1.007825032230

  Basis Set: AUG-CC-PVTZ
    Blend: AUG-CC-PVTZ
  Basis Set: (AUG-CC-PVTZ AUX)
    Blend: AUG-CC-PVTZ-JKFIT
	 Reference Energy          =    -456.6187915514846623 [Eh]
	 Singles Energy            =      -0.0000000000000000 [Eh]
	 Same-Spin Energy          =      -0.4497999758595326 [Eh]
	 Opposite-Spin Energy      =      -1.4122536262539080 [Eh]
	 Correlation Energy        =      -1.8620536021134406 [Eh]
	 Total Energy              =    -458.4808451535981249 [Eh]

	 ================> DF-SCS-MP2 Energies <==================
	-----------------------------------------------------------
	 SCS Same-Spin Scale       =       0.3333333333333333 [-]
	 SCS Opposite-Spin Scale   =       1.2000000000000000 [-]
	 SCS Same-Spin Energy      =      -0.1499333252865109 [Eh]
	 SCS Opposite-Spin Energy  =      -1.6947043515046896 [Eh]
	 SCS Correlation Energy    =      -1.8446376767912005 [Eh]
	 SCS Total Energy          =    -458.4634292282758565 [Eh]
	-----------------------------------------------------------

  Dipole Moment: [D]
     X:    -0.3305      Y:    -1.3601      Z:     0.0698     Total:     1.4014

*** Psi4 exiting successfully. Buy a developer a beer!
