                               Psi4 1.4a3.dev225

  ==> Input File <==

--------------------------------------------------------------------------
#psi4
#
memory 32 gb

molecule  {
0 1
  O       -1.5457390    -1.4151030    -0.0000120
  O        3.4055420    -0.8324430     0.0000000
  O        2.7346890     1.3362110     0.0000030
  C       -2.4962220     0.7973420     0.0000070
  C       -1.3569730    -0.1975560    -0.0000120
  C       -3.8659970     0.1363490     0.0000100
  C        0.0231420     0.3709680    -0.0000240
  C        1.1002740    -0.4324720     0.0000170
  C        2.4580551     0.1257697     0.0000071
  H       -2.3684100     1.4519690    -0.8733630
  H       -2.3683970     1.4519470     0.8733920
  H       -3.9887950    -0.4970190    -0.8807080
  H       -4.6559460     0.8916380     0.0000190
  H       -3.9887860    -0.4970320     0.8807180
  H        0.1589340     1.4510060    -0.0000590
  H        0.9863010    -1.5124980     0.0000520
  H        4.2687480    -0.3687180    -0.0000090
units angstrom
no_reorient  #important for SAPT in psi4, default
symmetry c1  #important for SAPT in psi4, default
}

set PROPERTIES_ORIGIN ["COM"]
properties('MP2/aug-cc-pvtz', properties = ['dipole'])
--------------------------------------------------------------------------

    Molecular point group: c1
  Charge       = 0
  Multiplicity = 1
  Basis Set: AUG-CC-PVTZ
    Blend: AUG-CC-PVTZ
  Basis Set: (AUG-CC-PVTZ AUX)
    Blend: AUG-CC-PVTZ-JKFIT

    Orbital Energies [Eh]
    ---------------------

    Doubly Occupied:

       1A    -20.630839     2A    -20.561758     3A    -20.557864
       4A    -11.407204     5A    -11.351173     6A    -11.278460
       7A    -11.275998     8A    -11.253183     9A    -11.225565
      10A     -1.471903    11A     -1.391004    12A     -1.356819
      13A     -1.109907    14A     -1.066261    15A     -0.959870
      16A     -0.889722    17A     -0.801952    18A     -0.747112
      19A     -0.719589    20A     -0.711413    21A     -0.660993
      22A     -0.643920    23A     -0.641608    24A     -0.639066
      25A     -0.604398    26A     -0.568125    27A     -0.540543
      28A     -0.539668    29A     -0.524860    30A     -0.500160
      31A     -0.492076    32A     -0.468993    33A     -0.436480
      34A     -0.403559

  @DF-RHF Final Energy:  -456.62552372691022

   => Energetics <=

    Nuclear Repulsion Energy =            413.1217855966199295
    One-Electron Energy =               -1442.6305247059717658
    Two-Electron Energy =                 572.8832153824416764
    Total Energy =                       -456.6255237269101599
  Basis Set: (AUG-CC-PVTZ AUX)
    Blend: AUG-CC-PVTZ-RI
    Molecular point group: c1

    Geometry (in Angstrom), charge = 0, multiplicity = 1:

       Center              X                  Y                   Z               Mass
    ------------   -----------------  -----------------  -----------------  -----------------
         O           -1.637782663300    -1.394938047041    -0.000011684292    15.994914619570
         O            3.313498336700    -0.812278047041     0.000000315708    15.994914619570
         O            2.642645336700     1.356375952959     0.000003315708    15.994914619570
         C           -2.588265663300     0.817506952959     0.000007315708    12.000000000000
         C           -1.449016663300    -0.177391047041    -0.000011684292    12.000000000000
         C           -3.958040663300     0.156513952959     0.000010315708    12.000000000000
         C           -0.068901663300     0.391132952959    -0.000023684292    12.000000000000
         C            1.008230336700    -0.412307047041     0.000017315708    12.000000000000
         C            2.366011436700     0.145934652959     0.000007415708    12.000000000000
         H           -2.460453663300     1.472133952959    -0.873362684292     1.007825032230
         H           -2.460440663300     1.472111952959     0.873392315708     1.007825032230
         H           -4.080838663300    -0.476854047041    -0.880707684292     1.007825032230
         H           -4.747989663300     0.911802952959     0.000019315708     1.007825032230
         H           -4.080829663300    -0.476867047041     0.880718315708     1.007825032230
         H            0.066890336700     1.471170952959    -0.000058684292     1.007825032230
         H            0.894257336700    -1.492333047041     0.000052315708     1.007825032230
         H            4.176704336700    -0.348553047041    -0.000008684292     1.007825032230

  Basis Set: AUG-CC-PVTZ
    Blend: AUG-CC-PVTZ
  Basis Set: (AUG-CC-PVTZ AUX)
    Blend: AUG-CC-PVTZ-JKFIT
	 Reference Energy          =    -456.6255237269102167 [Eh]
	 Singles Energy            =      -0.0000000000000000 [Eh]
	 Same-Spin Energy          =      -0.4487844982969467 [Eh]
	 Opposite-Spin Energy      =      -1.4101617276698404 [Eh]
	 Correlation Energy        =      -1.8589462259667870 [Eh]
	 Total Energy              =    -458.4844699528770207 [Eh]

	 ================> DF-SCS-MP2 Energies <==================
	-----------------------------------------------------------
	 SCS Same-Spin Scale       =       0.3333333333333333 [-]
	 SCS Opposite-Spin Scale   =       1.2000000000000000 [-]
	 SCS Same-Spin Energy      =      -0.1495948327656489 [Eh]
	 SCS Opposite-Spin Energy  =      -1.6921940732038083 [Eh]
	 SCS Correlation Energy    =      -1.8417889059694572 [Eh]
	 SCS Total Energy          =    -458.4673126328796684 [Eh]
	-----------------------------------------------------------

  Dipole Moment: [D]
     X:    -0.2050      Y:     1.0519      Z:     0.0000     Total:     1.0717

*** Psi4 exiting successfully. Buy a developer a beer!
