                               Psi4 1.3.2 release

  ==> Input File <==

--------------------------------------------------------------------------
#psi4
#
memory 32 gb

molecule  {
0 1
  O       -1.6636540     1.3623100    -0.0826750
  O        3.2950020     0.8732560    -0.0394660
  O        2.6676780    -1.2988900     0.0825990
  C       -2.5713650    -0.8630400     0.0337620
  C       -1.4513780     0.1516300    -0.0098980
  C       -3.9526870    -0.2300600    -0.0211700
  C       -0.0896295    -0.3524247     0.0304289
  C        0.9984040     0.4317740    -0.0078830
  C        2.3886230    -0.0688672     0.0195162
  H       -2.4419680    -1.4628000     0.9443570
  H       -2.4189490    -1.5634100    -0.8003330
  H       -4.1001540     0.4487780     0.8215890
  H       -4.7285220    -0.9991160     0.0102380
  H       -4.0749460     0.3516660    -0.9371360
  H        0.0882100    -1.4658090     0.0960520
  H        0.8681440     1.5076730    -0.0687300
  H        4.1643390     0.4215720    -0.0233140
units angstrom
no_reorient  #important for SAPT in psi4, default
symmetry c1  #important for SAPT in psi4, default
}

set PROPERTIES_ORIGIN ["COM"]
properties('MP2/aug-cc-pvtz', properties = ['dipole'])
--------------------------------------------------------------------------

    Molecular point group: c1
  Charge       = 0
  Multiplicity = 1
  Basis Set: AUG-CC-PVTZ
    Blend: AUG-CC-PVTZ
  Basis Set: (AUG-CC-PVTZ AUX)
    Blend: AUG-CC-PVTZ-JKFIT

    Orbital Energies [Eh]
    ---------------------

    Doubly Occupied:

       1A    -20.642546     2A    -20.559186     3A    -20.553126
       4A    -11.409713     5A    -11.346475     6A    -11.277638
       7A    -11.275836     8A    -11.251986     9A    -11.224742
      10A     -1.491591    11A     -1.390972    12A     -1.347468
      13A     -1.108880    14A     -1.065247    15A     -0.965167
      16A     -0.893675    17A     -0.813751    18A     -0.740651
      19A     -0.721405    20A     -0.716595    21A     -0.667693
      22A     -0.653508    23A     -0.641508    24A     -0.641020
      25A     -0.598690    26A     -0.554291    27A     -0.541266
      28A     -0.537616    29A     -0.524062    30A     -0.499157
      31A     -0.486877    32A     -0.465897    33A     -0.437480
      34A     -0.401000

  @DF-RHF Final Energy:  -456.61899092310136

   => Energetics <=

    Nuclear Repulsion Energy =            413.7068566085076782
    One-Electron Energy =               -1443.7582643693563114
    Two-Electron Energy =                 573.4324168377472688
    Total Energy =                       -456.6189909231013644
  Basis Set: (AUG-CC-PVTZ AUX)
    Blend: AUG-CC-PVTZ-RI
    Molecular point group: c1

    Geometry (in Angstrom), charge = 0, multiplicity = 1:

       Center              X                  Y                   Z               Mass
    ------------   -----------------  -----------------  -----------------  -----------------
         O           -1.662743237766     1.354288408851    -0.082266241775    15.994914619570
         O            3.295912762234     0.865234408851    -0.039057241775    15.994914619570
         O            2.668588762234    -1.306911591149     0.083007758225    15.994914619570
         C           -2.570454237766    -0.871061591149     0.034170758225    12.000000000000
         C           -1.450467237766     0.143608408851    -0.009489241775    12.000000000000
         C           -3.951776237766    -0.238081591149    -0.020761241775    12.000000000000
         C           -0.088718737766    -0.360446291149     0.030837658225    12.000000000000
         C            0.999314762234     0.423752408851    -0.007474241775    12.000000000000
         C            2.389533762234    -0.076888791149     0.019924958225    12.000000000000
         H           -2.441057237766    -1.470821591149     0.944765758225     1.007825032230
         H           -2.418038237766    -1.571431591149    -0.799924241775     1.007825032230
         H           -4.099243237766     0.440756408851     0.821997758225     1.007825032230
         H           -4.727611237766    -1.007137591149     0.010646758225     1.007825032230
         H           -4.074035237766     0.343644408851    -0.936727241775     1.007825032230
         H            0.089120762234    -1.473830591149     0.096460758225     1.007825032230
         H            0.869054762234     1.499651408851    -0.068321241775     1.007825032230
         H            4.165249762234     0.413550408851    -0.022905241775     1.007825032230

  Basis Set: AUG-CC-PVTZ
    Blend: AUG-CC-PVTZ
  Basis Set: (AUG-CC-PVTZ AUX)
    Blend: AUG-CC-PVTZ-JKFIT
	 Reference Energy          =    -456.6189909231013644 [Eh]
	 Singles Energy            =      -0.0000000000000000 [Eh]
	 Same-Spin Energy          =      -0.4493135988520189 [Eh]
	 Opposite-Spin Energy      =      -1.4107516906450657 [Eh]
	 Correlation Energy        =      -1.8600652894970846 [Eh]
	 Total Energy              =    -458.4790562125984366 [Eh]

	 ================> DF-SCS-MP2 Energies <==================
	-----------------------------------------------------------
	 SCS Same-Spin Scale       =       0.3333333333333333 [-]
	 SCS Opposite-Spin Scale   =       1.2000000000000000 [-]
	 SCS Same-Spin Energy      =      -0.1497711996173396 [Eh]
	 SCS Opposite-Spin Energy  =      -1.6929020287740788 [Eh]
	 SCS Correlation Energy    =      -1.8426732283914184 [Eh]
	 SCS Total Energy          =    -458.4616641514927551 [Eh]
	-----------------------------------------------------------

  Dipole Moment: [D]
     X:     0.1214      Y:    -0.8125      Z:     0.0405     Total:     0.8225

*** Psi4 exiting successfully. Buy a developer a beer!
