                               Psi4 1.3.2 release

  ==> Input File <==

--------------------------------------------------------------------------
#psi4
#
memory 32 gb

molecule  {
0 1
  O       -1.6636540     1.3623100    -0.0826750
  O        3.3456573     0.8235450    -0.0372581
  O        2.7292035    -1.2817571     0.0811265
  C       -2.5713650    -0.8630400     0.0337620
  C       -1.4513780     0.1516300    -0.0098980
  C       -3.9526870    -0.2300600    -0.0211700
  C       -0.0615660    -0.3898680     0.0323710
  C        0.9984040     0.4317740    -0.0078830
  C        2.3702780    -0.1170190     0.0219370
  H       -2.4419680    -1.4628000     0.9443570
  H       -2.4189490    -1.5634100    -0.8003330
  H       -4.1001540     0.4487780     0.8215890
  H       -4.7285220    -0.9991160     0.0102380
  H       -4.0749460     0.3516660    -0.9371360
  H        0.0882100    -1.4658090     0.0960520
  H        0.8681440     1.5076730    -0.0687300
  H        4.1643390     0.4215720    -0.0233140
units angstrom
no_reorient  #important for SAPT in psi4, default
symmetry c1  #important for SAPT in psi4, default
}

set PROPERTIES_ORIGIN ["COM"]
properties('MP2/aug-cc-pvtz', properties = ['dipole'])
--------------------------------------------------------------------------

    Molecular point group: c1
  Charge       = 0
  Multiplicity = 1
  Basis Set: AUG-CC-PVTZ
    Blend: AUG-CC-PVTZ
  Basis Set: (AUG-CC-PVTZ AUX)
    Blend: AUG-CC-PVTZ-JKFIT

    Orbital Energies [Eh]
    ---------------------

    Doubly Occupied:

       1A    -20.611841     2A    -20.563911     3A    -20.556847
       4A    -11.405174     5A    -11.353071     6A    -11.282752
       7A    -11.280904     8A    -11.254695     9A    -11.226835
      10A     -1.479008    11A     -1.393655    12A     -1.362623
      13A     -1.114112    14A     -1.068287    15A     -0.962816
      16A     -0.893853    17A     -0.810136    18A     -0.750260
      19A     -0.724006    20A     -0.708956    21A     -0.663883
      22A     -0.645075    23A     -0.644754    24A     -0.637988
      25A     -0.607324    26A     -0.572162    27A     -0.542410
      28A     -0.541349    29A     -0.526349    30A     -0.501518
      31A     -0.492296    32A     -0.468259    33A     -0.438551
      34A     -0.408216

  @DF-RHF Final Energy:  -456.62626938037386

   => Energetics <=

    Nuclear Repulsion Energy =            413.2337482153020574
    One-Electron Energy =               -1442.7322809592515114
    Two-Electron Energy =                 572.8722633635755983
    Total Energy =                       -456.6262693803738557
  Basis Set: (AUG-CC-PVTZ AUX)
    Blend: AUG-CC-PVTZ-RI
    Molecular point group: c1

    Geometry (in Angstrom), charge = 0, multiplicity = 1:

       Center              X                  Y                   Z               Mass
    ------------   -----------------  -----------------  -----------------  -----------------
         O           -1.677666970321     1.366379445480    -0.082766974225    15.994914619570
         O            3.331644329679     0.827614445480    -0.037350074225    15.994914619570
         O            2.715190529679    -1.277687654520     0.081034525775    15.994914619570
         C           -2.585377970321    -0.858970554520     0.033670025775    12.000000000000
         C           -1.465390970321     0.155699445480    -0.009989974225    12.000000000000
         C           -3.966699970321    -0.225990554520    -0.021261974225    12.000000000000
         C           -0.075578970321    -0.385798554520     0.032279025775    12.000000000000
         C            0.984391029679     0.435843445480    -0.007974974225    12.000000000000
         C            2.356265029679    -0.112949554520     0.021845025775    12.000000000000
         H           -2.455980970321    -1.458730554520     0.944265025775     1.007825032230
         H           -2.432961970321    -1.559340554520    -0.800424974225     1.007825032230
         H           -4.114166970321     0.452847445480     0.821497025775     1.007825032230
         H           -4.742534970321    -0.995046554520     0.010146025775     1.007825032230
         H           -4.088958970321     0.355735445480    -0.937227974225     1.007825032230
         H            0.074197029679    -1.461739554520     0.095960025775     1.007825032230
         H            0.854131029679     1.511742445480    -0.068821974225     1.007825032230
         H            4.150326029679     0.425641445480    -0.023405974225     1.007825032230

  Basis Set: AUG-CC-PVTZ
    Blend: AUG-CC-PVTZ
  Basis Set: (AUG-CC-PVTZ AUX)
    Blend: AUG-CC-PVTZ-JKFIT
	 Reference Energy          =    -456.6262693803738557 [Eh]
	 Singles Energy            =      -0.0000000000000000 [Eh]
	 Same-Spin Energy          =      -0.4469738887987801 [Eh]
	 Opposite-Spin Energy      =      -1.4063589932389915 [Eh]
	 Correlation Energy        =      -1.8533328820377717 [Eh]
	 Total Energy              =    -458.4796022624116176 [Eh]

	 ================> DF-SCS-MP2 Energies <==================
	-----------------------------------------------------------
	 SCS Same-Spin Scale       =       0.3333333333333333 [-]
	 SCS Opposite-Spin Scale   =       1.2000000000000000 [-]
	 SCS Same-Spin Energy      =      -0.1489912962662600 [Eh]
	 SCS Opposite-Spin Energy  =      -1.6876307918867897 [Eh]
	 SCS Correlation Energy    =      -1.8366220881530497 [Eh]
	 SCS Total Energy          =    -458.4628914685268910 [Eh]
	-----------------------------------------------------------

  Dipole Moment: [D]
     X:    -0.5963      Y:    -1.1748      Z:     0.0626     Total:     1.3189

*** Psi4 exiting successfully. Buy a developer a beer!
