                               Psi4 1.3.2 release

  ==> Input File <==

--------------------------------------------------------------------------
#psi4
#
memory 32 gb

molecule  {
0 1
  O       -1.6636540     1.3623100    -0.0826750
  O        3.2950020     0.8732560    -0.0394660
  O        2.6676780    -1.2988900     0.0825990
  C       -2.5713650    -0.8630400     0.0337620
  C       -1.4513780     0.1516300    -0.0098980
  C       -3.9526870    -0.2300600    -0.0211700
  C       -0.0615660    -0.3898680     0.0323710
  C        0.9984040     0.4317740    -0.0078830
  C        2.3396340    -0.1879488     0.0259850
  H       -2.4419680    -1.4628000     0.9443570
  H       -2.4189490    -1.5634100    -0.8003330
  H       -4.1001540     0.4487780     0.8215890
  H       -4.7285220    -0.9991160     0.0102380
  H       -4.0749460     0.3516660    -0.9371360
  H        0.0882100    -1.4658090     0.0960520
  H        0.8119244     1.4993951    -0.0682085
  H        4.1643390     0.4215720    -0.0233140
units angstrom
no_reorient  #important for SAPT in psi4, default
symmetry c1  #important for SAPT in psi4, default
}

set PROPERTIES_ORIGIN ["COM"]
properties('MP2/aug-cc-pvtz', properties = ['dipole'])
--------------------------------------------------------------------------

    Molecular point group: c1
  Charge       = 0
  Multiplicity = 1
  Basis Set: AUG-CC-PVTZ
    Blend: AUG-CC-PVTZ
  Basis Set: (AUG-CC-PVTZ AUX)
    Blend: AUG-CC-PVTZ-JKFIT

    Orbital Energies [Eh]
    ---------------------

    Doubly Occupied:

       1A    -20.605540     2A    -20.576203     3A    -20.562113
       4A    -11.403341     5A    -11.350998     6A    -11.277567
       7A    -11.275599     8A    -11.253506     9A    -11.225959
      10A     -1.478766    11A     -1.392072    12A     -1.370286
      13A     -1.112635    14A     -1.066959    15A     -0.953851
      16A     -0.881160    17A     -0.787118    18A     -0.752623
      19A     -0.717500    20A     -0.713066    21A     -0.662066
      22A     -0.643866    23A     -0.638645    24A     -0.636729
      25A     -0.610657    26A     -0.575195    27A     -0.540835
      28A     -0.540396    29A     -0.525403    30A     -0.507235
      31A     -0.499582    32A     -0.475909    33A     -0.436190
      34A     -0.407980

  @DF-RHF Final Energy:  -456.62197179886749

   => Energetics <=

    Nuclear Repulsion Energy =            413.8240898928473825
    One-Electron Energy =               -1443.9770251586583072
    Two-Electron Energy =                 573.5309634669433763
    Total Energy =                       -456.6219717988674347
  Basis Set: (AUG-CC-PVTZ AUX)
    Blend: AUG-CC-PVTZ-RI
    Molecular point group: c1

    Geometry (in Angstrom), charge = 0, multiplicity = 1:

       Center              X                  Y                   Z               Mass
    ------------   -----------------  -----------------  -----------------  -----------------
         O           -1.660339708647     1.369022345645    -0.083058576685    15.994914619570
         O            3.298316291353     0.879968345645    -0.039849576685    15.994914619570
         O            2.670992291353    -1.292177654355     0.082215423315    15.994914619570
         C           -2.568050708647    -0.856327654355     0.033378423315    12.000000000000
         C           -1.448063708647     0.158342345645    -0.010281576685    12.000000000000
         C           -3.949372708647    -0.223347654355    -0.021553576685    12.000000000000
         C           -0.058251708647    -0.383155654355     0.031987423315    12.000000000000
         C            1.001718291353     0.438486345645    -0.008266576685    12.000000000000
         C            2.342948291353    -0.181236454355     0.025601423315    12.000000000000
         H           -2.438653708647    -1.456087654355     0.943973423315     1.007825032230
         H           -2.415634708647    -1.556697654355    -0.800716576685     1.007825032230
         H           -4.096839708647     0.455490345645     0.821205423315     1.007825032230
         H           -4.725207708647    -0.992403654355     0.009854423315     1.007825032230
         H           -4.071631708647     0.358378345645    -0.937519576685     1.007825032230
         H            0.091524291353    -1.459096654355     0.095668423315     1.007825032230
         H            0.815238691353     1.506107445645    -0.068592076685     1.007825032230
         H            4.167653291353     0.428284345645    -0.023697576685     1.007825032230

  Basis Set: AUG-CC-PVTZ
    Blend: AUG-CC-PVTZ
  Basis Set: (AUG-CC-PVTZ AUX)
    Blend: AUG-CC-PVTZ-JKFIT
	 Reference Energy          =    -456.6219717988674915 [Eh]
	 Singles Energy            =      -0.0000000000000000 [Eh]
	 Same-Spin Energy          =      -0.4478215337730817 [Eh]
	 Opposite-Spin Energy      =      -1.4083950399197269 [Eh]
	 Correlation Energy        =      -1.8562165736928087 [Eh]
	 Total Energy              =    -458.4781883725602825 [Eh]

	 ================> DF-SCS-MP2 Energies <==================
	-----------------------------------------------------------
	 SCS Same-Spin Scale       =       0.3333333333333333 [-]
	 SCS Opposite-Spin Scale   =       1.2000000000000000 [-]
	 SCS Same-Spin Energy      =      -0.1492738445910272 [Eh]
	 SCS Opposite-Spin Energy  =      -1.6900740479036722 [Eh]
	 SCS Correlation Energy    =      -1.8393478924946995 [Eh]
	 SCS Total Energy          =    -458.4613196913621778 [Eh]
	-----------------------------------------------------------

  Dipole Moment: [D]
     X:    -0.5653      Y:    -1.7588      Z:     0.0949     Total:     1.8498

*** Psi4 exiting successfully. Buy a developer a beer!
