                               Psi4 1.3.2 release

  ==> Input File <==

--------------------------------------------------------------------------
#psi4
#
memory 32 gb

molecule  {
0 1
  O       -1.6636540     1.3623100    -0.0826750
  O        3.2950020     0.8732560    -0.0394660
  O        2.6676780    -1.2988900     0.0825990
  C       -2.5713650    -0.8630400     0.0337620
  C       -1.4513780     0.1516300    -0.0098980
  C       -3.9526870    -0.2300600    -0.0211700
  C       -0.0615660    -0.3898680     0.0323710
  C        1.1564039     0.5542486    -0.0138833
  C        2.3702780    -0.1170190     0.0219370
  H       -2.4419680    -1.4628000     0.9443570
  H       -2.4189490    -1.5634100    -0.8003330
  H       -4.1001540     0.4487780     0.8215890
  H       -4.7285220    -0.9991160     0.0102380
  H       -4.0749460     0.3516660    -0.9371360
  H        0.0882100    -1.4658090     0.0960520
  H        0.8681440     1.5076730    -0.0687300
  H        4.1643390     0.4215720    -0.0233140
units angstrom
no_reorient  #important for SAPT in psi4, default
symmetry c1  #important for SAPT in psi4, default
}

set PROPERTIES_ORIGIN ["COM"]
properties('MP2/aug-cc-pvtz', properties = ['dipole'])
--------------------------------------------------------------------------

    Molecular point group: c1
  Charge       = 0
  Multiplicity = 1
  Basis Set: AUG-CC-PVTZ
    Blend: AUG-CC-PVTZ
  Basis Set: (AUG-CC-PVTZ AUX)
    Blend: AUG-CC-PVTZ-JKFIT

    Orbital Energies [Eh]
    ---------------------

    Doubly Occupied:

       1A    -20.616268     2A    -20.568436     3A    -20.556379
       4A    -11.396715     5A    -11.355970     6A    -11.312139
       7A    -11.285061     8A    -11.256796     9A    -11.228414
      10A     -1.468881    11A     -1.396692    12A     -1.362185
      13A     -1.094263    14A     -1.067882    15A     -0.975551
      16A     -0.884884    17A     -0.801974    18A     -0.759792
      19A     -0.723042    20A     -0.708974    21A     -0.665074
      22A     -0.646050    23A     -0.639180    24A     -0.631930
      25A     -0.606215    26A     -0.573723    27A     -0.541592
      28A     -0.535141    29A     -0.527417    30A     -0.501933
      31A     -0.493606    32A     -0.473108    33A     -0.441013
      34A     -0.371712

  @DF-RHF Final Energy:  -456.56646732383376

   => Energetics <=

    Nuclear Repulsion Energy =            412.2521375701213060
    One-Electron Energy =               -1440.7012252909751169
    Two-Electron Energy =                 571.8826203970201050
    Total Energy =                       -456.5664673238337627
  Basis Set: (AUG-CC-PVTZ AUX)
    Blend: AUG-CC-PVTZ-RI
    Molecular point group: c1

    Geometry (in Angstrom), charge = 0, multiplicity = 1:

       Center              X                  Y                   Z               Mass
    ------------   -----------------  -----------------  -----------------  -----------------
         O           -1.678461024136     1.350832234082    -0.082112792283    15.994914619570
         O            3.280194975864     0.861778234082    -0.038903792283    15.994914619570
         O            2.652870975864    -1.310367765918     0.083161207717    15.994914619570
         C           -2.586172024136    -0.874517765918     0.034324207717    12.000000000000
         C           -1.466185024136     0.140152234082    -0.009335792283    12.000000000000
         C           -3.967494024136    -0.241537765918    -0.020607792283    12.000000000000
         C           -0.076373024136    -0.401345765918     0.032933207717    12.000000000000
         C            1.141596875864     0.542770834082    -0.013321092283    12.000000000000
         C            2.355470975864    -0.128496765918     0.022499207717    12.000000000000
         H           -2.456775024136    -1.474277765918     0.944919207717     1.007825032230
         H           -2.433756024136    -1.574887765918    -0.799770792283     1.007825032230
         H           -4.114961024136     0.437300234082     0.822151207717     1.007825032230
         H           -4.743329024136    -1.010593765918     0.010800207717     1.007825032230
         H           -4.089753024136     0.340188234082    -0.936573792283     1.007825032230
         H            0.073402975864    -1.477286765918     0.096614207717     1.007825032230
         H            0.853336975864     1.496195234082    -0.068167792283     1.007825032230
         H            4.149531975864     0.410094234082    -0.022751792283     1.007825032230

  Basis Set: AUG-CC-PVTZ
    Blend: AUG-CC-PVTZ
  Basis Set: (AUG-CC-PVTZ AUX)
    Blend: AUG-CC-PVTZ-JKFIT
	 Reference Energy          =    -456.5664673238337627 [Eh]
	 Singles Energy            =      -0.0000000000000000 [Eh]
	 Same-Spin Energy          =      -0.4530717888196961 [Eh]
	 Opposite-Spin Energy      =      -1.4187495832379455 [Eh]
	 Correlation Energy        =      -1.8718213720576418 [Eh]
	 Total Energy              =    -458.4382886958914014 [Eh]

	 ================> DF-SCS-MP2 Energies <==================
	-----------------------------------------------------------
	 SCS Same-Spin Scale       =       0.3333333333333333 [-]
	 SCS Opposite-Spin Scale   =       1.2000000000000000 [-]
	 SCS Same-Spin Energy      =      -0.1510239296065654 [Eh]
	 SCS Opposite-Spin Energy  =      -1.7024994998855345 [Eh]
	 SCS Correlation Energy    =      -1.8535234294920999 [Eh]
	 SCS Total Energy          =    -458.4199907533258624 [Eh]
	-----------------------------------------------------------

  Dipole Moment: [D]
     X:    -0.3486      Y:    -1.1262      Z:     0.0577     Total:     1.1803

*** Psi4 exiting successfully. Buy a developer a beer!
