                               Psi4 1.3.2 release

  ==> Input File <==

--------------------------------------------------------------------------
#psi4
#
memory 32 gb

molecule  {
0 1
  O       -1.6636540     1.3623100    -0.0826750
  O        3.2950020     0.8732560    -0.0394660
  O        2.6676780    -1.2988900     0.0825990
  C       -2.5713650    -0.8630400     0.0337620
  C       -1.4466789     0.1468463     0.0014646
  C       -3.9526870    -0.2300600    -0.0211700
  C       -0.0615660    -0.3898680     0.0323710
  C        0.9984040     0.4317740    -0.0078830
  C        2.3702780    -0.1170190     0.0219370
  H       -2.4341648    -1.4576943     0.9465606
  H       -2.4189490    -1.5634100    -0.8003330
  H       -4.1001540     0.4487780     0.8215890
  H       -4.7285220    -0.9991160     0.0102380
  H       -4.0749460     0.3516660    -0.9371360
  H        0.0882100    -1.4658090     0.0960520
  H        0.8681440     1.5076730    -0.0687300
  H        4.1643390     0.4215720    -0.0233140
units angstrom
no_reorient  #important for SAPT in psi4, default
symmetry c1  #important for SAPT in psi4, default
}

set PROPERTIES_ORIGIN ["COM"]
properties('MP2/aug-cc-pvtz', properties = ['dipole'])
--------------------------------------------------------------------------

    Molecular point group: c1
  Charge       = 0
  Multiplicity = 1
  Basis Set: AUG-CC-PVTZ
    Blend: AUG-CC-PVTZ
  Basis Set: (AUG-CC-PVTZ AUX)
    Blend: AUG-CC-PVTZ-JKFIT

    Orbital Energies [Eh]
    ---------------------

    Doubly Occupied:

       1A    -20.627968     2A    -20.561838     3A    -20.559920
       4A    -11.405889     5A    -11.350000     6A    -11.277476
       7A    -11.275721     8A    -11.252664     9A    -11.225203
      10A     -1.472628    11A     -1.386261    12A     -1.367919
      13A     -1.110048    14A     -1.065610    15A     -0.958502
      16A     -0.887992    17A     -0.799856    18A     -0.747265
      19A     -0.717786    20A     -0.713334    21A     -0.661189
      22A     -0.644128    23A     -0.639972    24A     -0.639096
      25A     -0.606737    26A     -0.570120    27A     -0.539267
      28A     -0.538859    29A     -0.524071    30A     -0.501003
      31A     -0.495597    32A     -0.471649    33A     -0.435688
      34A     -0.404259

  @DF-RHF Final Energy:  -456.62740006512240

   => Energetics <=

    Nuclear Repulsion Energy =            413.4553673058303502
    One-Electron Energy =               -1443.2945077815459172
    Two-Electron Energy =                 573.2117404105931655
    Total Energy =                       -456.6274000651224014
  Basis Set: (AUG-CC-PVTZ AUX)
    Blend: AUG-CC-PVTZ-RI
    Molecular point group: c1

    Geometry (in Angstrom), charge = 0, multiplicity = 1:

       Center              X                  Y                   Z               Mass
    ------------   -----------------  -----------------  -----------------  -----------------
         O           -1.664155804825     1.362718103002    -0.083757306229    15.994914619570
         O            3.294500195175     0.873664103002    -0.040548306229    15.994914619570
         O            2.667176195175    -1.298481896998     0.081516693771    15.994914619570
         C           -2.571866804825    -0.862631896998     0.032679693771    12.000000000000
         C           -1.447180704825     0.147254403002     0.000382293771    12.000000000000
         C           -3.953188804825    -0.229651896998    -0.022252306229    12.000000000000
         C           -0.062067804825    -0.389459896998     0.031288693771    12.000000000000
         C            0.997902195175     0.432182103002    -0.008965306229    12.000000000000
         C            2.369776195175    -0.116610896998     0.020854693771    12.000000000000
         H           -2.434666604825    -1.457286196998     0.945478293771     1.007825032230
         H           -2.419450804825    -1.563001896998    -0.801415306229     1.007825032230
         H           -4.100655804825     0.449186103002     0.820506693771     1.007825032230
         H           -4.729023804825    -0.998707896998     0.009155693771     1.007825032230
         H           -4.075447804825     0.352074103002    -0.938218306229     1.007825032230
         H            0.087708195175    -1.465400896998     0.094969693771     1.007825032230
         H            0.867642195175     1.508081103002    -0.069812306229     1.007825032230
         H            4.163837195175     0.421980103002    -0.024396306229     1.007825032230

  Basis Set: AUG-CC-PVTZ
    Blend: AUG-CC-PVTZ
  Basis Set: (AUG-CC-PVTZ AUX)
    Blend: AUG-CC-PVTZ-JKFIT
	 Reference Energy          =    -456.6274000651224014 [Eh]
	 Singles Energy            =      -0.0000000000000000 [Eh]
	 Same-Spin Energy          =      -0.4485005238722858 [Eh]
	 Opposite-Spin Energy      =      -1.4095477187540784 [Eh]
	 Correlation Energy        =      -1.8580482426263640 [Eh]
	 Total Energy              =    -458.4854483077487544 [Eh]

	 ================> DF-SCS-MP2 Energies <==================
	-----------------------------------------------------------
	 SCS Same-Spin Scale       =       0.3333333333333333 [-]
	 SCS Opposite-Spin Scale   =       1.2000000000000000 [-]
	 SCS Same-Spin Energy      =      -0.1495001746240953 [Eh]
	 SCS Opposite-Spin Energy  =      -1.6914572625048940 [Eh]
	 SCS Correlation Energy    =      -1.8409574371289894 [Eh]
	 SCS Total Energy          =    -458.4683575022513651 [Eh]
	-----------------------------------------------------------

  Dipole Moment: [D]
     X:    -0.1413      Y:    -1.1956      Z:     0.0689     Total:     1.2059

*** Psi4 exiting successfully. Buy a developer a beer!
