                               Psi4 1.3.2 release

  ==> Input File <==

--------------------------------------------------------------------------
#psi4
#
memory 32 gb

molecule  {
0 1
  O       -1.6530621     1.3641178    -0.0827018
  O        3.2950020     0.8732560    -0.0394660
  O        2.6676780    -1.2988900     0.0825990
  C       -2.5713650    -0.8630400     0.0337620
  C       -1.4513780     0.1516300    -0.0098980
  C       -3.9526870    -0.2300600    -0.0211700
  C       -0.0568801    -0.3777376     0.0316929
  C        0.9984040     0.4317740    -0.0078830
  C        2.3702780    -0.1170190     0.0219370
  H       -2.4419680    -1.4628000     0.9443570
  H       -2.4189490    -1.5634100    -0.8003330
  H       -4.1001540     0.4487780     0.8215890
  H       -4.7285220    -0.9991160     0.0102380
  H       -4.0749460     0.3516660    -0.9371360
  H        0.0882100    -1.4658090     0.0960520
  H        0.8681440     1.5076730    -0.0687300
  H        4.1643390     0.4215720    -0.0233140
units angstrom
no_reorient  #important for SAPT in psi4, default
symmetry c1  #important for SAPT in psi4, default
}

set PROPERTIES_ORIGIN ["COM"]
properties('MP2/aug-cc-pvtz', properties = ['dipole'])
--------------------------------------------------------------------------

    Molecular point group: c1
  Charge       = 0
  Multiplicity = 1
  Basis Set: AUG-CC-PVTZ
    Blend: AUG-CC-PVTZ
  Basis Set: (AUG-CC-PVTZ AUX)
    Blend: AUG-CC-PVTZ-JKFIT

    Orbital Energies [Eh]
    ---------------------

    Doubly Occupied:

       1A    -20.627343     2A    -20.561040     3A    -20.560708
       4A    -11.405167     5A    -11.349950     6A    -11.275239
       7A    -11.273081     8A    -11.253447     9A    -11.225803
      10A     -1.471942    11A     -1.390879    12A     -1.367194
      13A     -1.110231    14A     -1.066583    15A     -0.956482
      16A     -0.888199    17A     -0.799479    18A     -0.744901
      19A     -0.718835    20A     -0.712294    21A     -0.662224
      22A     -0.644106    23A     -0.640920    24A     -0.639175
      25A     -0.606798    26A     -0.566829    27A     -0.540589
      28A     -0.540239    29A     -0.524938    30A     -0.501218
      31A     -0.496028    32A     -0.470873    33A     -0.435538
      34A     -0.405872

  @DF-RHF Final Energy:  -456.62859428905961

   => Energetics <=

    Nuclear Repulsion Energy =            413.6265830191647410
    One-Electron Energy =               -1443.6420615381305197
    Two-Electron Energy =                 573.3868842299060589
    Total Energy =                       -456.6285942890596061
  Basis Set: (AUG-CC-PVTZ AUX)
    Blend: AUG-CC-PVTZ-RI
    Molecular point group: c1

    Geometry (in Angstrom), charge = 0, multiplicity = 1:

       Center              X                  Y                   Z               Mass
    ------------   -----------------  -----------------  -----------------  -----------------
         O           -1.654824328280     1.362755158314    -0.082635016352    15.994914619570
         O            3.293239771720     0.871893358314    -0.039399216352    15.994914619570
         O            2.665915771720    -1.300252641686     0.082665783648    15.994914619570
         C           -2.573127228280    -0.864402641686     0.033828783648    12.000000000000
         C           -1.453140228280     0.150267358314    -0.009831216352    12.000000000000
         C           -3.954449228280    -0.231422641686    -0.021103216352    12.000000000000
         C           -0.058642328280    -0.379100241686     0.031759683648    12.000000000000
         C            0.996641771720     0.430411358314    -0.007816216352    12.000000000000
         C            2.368515771720    -0.118381641686     0.022003783648    12.000000000000
         H           -2.443730228280    -1.464162641686     0.944423783648     1.007825032230
         H           -2.420711228280    -1.564772641686    -0.800266216352     1.007825032230
         H           -4.101916228280     0.447415358314     0.821655783648     1.007825032230
         H           -4.730284228280    -1.000478641686     0.010304783648     1.007825032230
         H           -4.076708228280     0.350303358314    -0.937069216352     1.007825032230
         H            0.086447771720    -1.467171641686     0.096118783648     1.007825032230
         H            0.866381771720     1.506310358314    -0.068663216352     1.007825032230
         H            4.162576771720     0.420209358314    -0.023247216352     1.007825032230

  Basis Set: AUG-CC-PVTZ
    Blend: AUG-CC-PVTZ
  Basis Set: (AUG-CC-PVTZ AUX)
    Blend: AUG-CC-PVTZ-JKFIT
	 Reference Energy          =    -456.6285942890596061 [Eh]
	 Singles Energy            =      -0.0000000000000000 [Eh]
	 Same-Spin Energy          =      -0.4481538339573008 [Eh]
	 Opposite-Spin Energy      =      -1.4088136411341461 [Eh]
	 Correlation Energy        =      -1.8569674750914469 [Eh]
	 Total Energy              =    -458.4855617641510435 [Eh]

	 ================> DF-SCS-MP2 Energies <==================
	-----------------------------------------------------------
	 SCS Same-Spin Scale       =       0.3333333333333333 [-]
	 SCS Opposite-Spin Scale   =       1.2000000000000000 [-]
	 SCS Same-Spin Energy      =      -0.1493846113191002 [Eh]
	 SCS Opposite-Spin Energy  =      -1.6905763693609752 [Eh]
	 SCS Correlation Energy    =      -1.8399609806800754 [Eh]
	 SCS Total Energy          =    -458.4685552697396815 [Eh]
	-----------------------------------------------------------

  Dipole Moment: [D]
     X:    -0.2277      Y:    -1.1859      Z:     0.0613     Total:     1.2091

*** Psi4 exiting successfully. Buy a developer a beer!
