                               Psi4 1.3.2 release

  ==> Input File <==

--------------------------------------------------------------------------
#psi4
#
memory 32 gb

molecule  {
0 1
  O       -1.6636540     1.3623100    -0.0826750
  O        3.2950020     0.8732560    -0.0394660
  O        2.6676780    -1.2988900     0.0825990
  C       -2.5713650    -0.8630400     0.0337620
  C       -1.4513780     0.1516300    -0.0098980
  C       -3.9526870    -0.2300600    -0.0211700
  C       -0.0170620    -0.4441180     0.0356424
  C        0.9984040     0.4317740    -0.0078830
  C        2.3702780    -0.1170190     0.0219370
  H       -2.4419680    -1.4628000     0.9443570
  H       -2.4189490    -1.5634100    -0.8003330
  H       -4.1001540     0.4487780     0.8215890
  H       -4.7285220    -0.9991160     0.0102380
  H       -4.0749460     0.3516660    -0.9371360
  H        0.0882100    -1.4658090     0.0960520
  H        0.9247199     1.5130221    -0.0687258
  H        4.1643390     0.4215720    -0.0233140
units angstrom
no_reorient  #important for SAPT in psi4, default
symmetry c1  #important for SAPT in psi4, default
}

set PROPERTIES_ORIGIN ["COM"]
properties('MP2/aug-cc-pvtz', properties = ['dipole'])
--------------------------------------------------------------------------

    Molecular point group: c1
  Charge       = 0
  Multiplicity = 1
  Basis Set: AUG-CC-PVTZ
    Blend: AUG-CC-PVTZ
  Basis Set: (AUG-CC-PVTZ AUX)
    Blend: AUG-CC-PVTZ-JKFIT

    Orbital Energies [Eh]
    ---------------------

    Doubly Occupied:

       1A    -20.625844     2A    -20.562182     3A    -20.558312
       4A    -11.401234     5A    -11.354080     6A    -11.277437
       7A    -11.275022     8A    -11.252575     9A    -11.225224
      10A     -1.470384    11A     -1.389638    12A     -1.365439
      13A     -1.107585    14A     -1.065505    15A     -0.951782
      16A     -0.887096    17A     -0.793484    18A     -0.754932
      19A     -0.716246    20A     -0.713292    21A     -0.653807
      22A     -0.642859    23A     -0.642561    24A     -0.638121
      25A     -0.611124    26A     -0.581461    27A     -0.538926
      28A     -0.538108    29A     -0.523772    30A     -0.500247
      31A     -0.495320    32A     -0.467939    33A     -0.430217
      34A     -0.405474

  @DF-RHF Final Energy:  -456.62286823831880

   => Energetics <=

    Nuclear Repulsion Energy =            412.9331434106588290
    One-Electron Energy =               -1442.2775644527657732
    Two-Electron Energy =                 572.7215528037880858
    Total Energy =                       -456.6228682383188016
  Basis Set: (AUG-CC-PVTZ AUX)
    Blend: AUG-CC-PVTZ-RI
    Molecular point group: c1

    Geometry (in Angstrom), charge = 0, multiplicity = 1:

       Center              X                  Y                   Z               Mass
    ------------   -----------------  -----------------  -----------------  -----------------
         O           -1.668270010798     1.367351938240    -0.082981725829    15.994914619570
         O            3.290385989202     0.878297938240    -0.039772725829    15.994914619570
         O            2.663061989202    -1.293848061760     0.082292274171    15.994914619570
         C           -2.575981010798    -0.857998061760     0.033455274171    12.000000000000
         C           -1.455994010798     0.156671938240    -0.010204725829    12.000000000000
         C           -3.957303010798    -0.225018061760    -0.021476725829    12.000000000000
         C           -0.021678010798    -0.439076061760     0.035335674171    12.000000000000
         C            0.993787989202     0.436815938240    -0.008189725829    12.000000000000
         C            2.365661989202    -0.111977061760     0.021630274171    12.000000000000
         H           -2.446584010798    -1.457758061760     0.944050274171     1.007825032230
         H           -2.423565010798    -1.558368061760    -0.800639725829     1.007825032230
         H           -4.104770010798     0.453819938240     0.821282274171     1.007825032230
         H           -4.733138010798    -0.994074061760     0.009931274171     1.007825032230
         H           -4.079562010798     0.356707938240    -0.937442725829     1.007825032230
         H            0.083593989202    -1.460767061760     0.095745274171     1.007825032230
         H            0.920103889202     1.518064038240    -0.069032525829     1.007825032230
         H            4.159722989202     0.426613938240    -0.023620725829     1.007825032230

  Basis Set: AUG-CC-PVTZ
    Blend: AUG-CC-PVTZ
  Basis Set: (AUG-CC-PVTZ AUX)
    Blend: AUG-CC-PVTZ-JKFIT
	 Reference Energy          =    -456.6228682383188016 [Eh]
	 Singles Energy            =      -0.0000000000000000 [Eh]
	 Same-Spin Energy          =      -0.4478448639186162 [Eh]
	 Opposite-Spin Energy      =      -1.4086443669485265 [Eh]
	 Correlation Energy        =      -1.8564892308671426 [Eh]
	 Total Energy              =    -458.4793574691859703 [Eh]

	 ================> DF-SCS-MP2 Energies <==================
	-----------------------------------------------------------
	 SCS Same-Spin Scale       =       0.3333333333333333 [-]
	 SCS Opposite-Spin Scale   =       1.2000000000000000 [-]
	 SCS Same-Spin Energy      =      -0.1492816213062054 [Eh]
	 SCS Opposite-Spin Energy  =      -1.6903732403382317 [Eh]
	 SCS Correlation Energy    =      -1.8396548616444370 [Eh]
	 SCS Total Energy          =    -458.4625230999632208 [Eh]
	-----------------------------------------------------------

  Dipole Moment: [D]
     X:    -0.2715      Y:    -1.1727      Z:     0.0608     Total:     1.2053

*** Psi4 exiting successfully. Buy a developer a beer!
