                               Psi4 1.3.2 release

  ==> Input File <==

--------------------------------------------------------------------------
#psi4
#
memory 32 gb

molecule  {
0 1
  O       -1.7268337     1.3495098    -0.0827793
  O        3.2950020     0.8732560    -0.0394660
  O        2.6676780    -1.2988900     0.0825990
  C       -2.6229725    -0.8031671     0.0296138
  C       -1.4513780     0.1516300    -0.0098980
  C       -3.9526870    -0.2300600    -0.0211700
  C       -0.0615660    -0.3898680     0.0323710
  C        0.9984040     0.4317740    -0.0078830
  C        2.3702780    -0.1170190     0.0219370
  H       -2.4419680    -1.4628000     0.9443570
  H       -2.4189490    -1.5634100    -0.8003330
  H       -4.1001540     0.4487780     0.8215890
  H       -4.7285220    -0.9991160     0.0102380
  H       -4.0749460     0.3516660    -0.9371360
  H        0.0882100    -1.4658090     0.0960520
  H        0.8681440     1.5076730    -0.0687300
  H        4.1643390     0.4215720    -0.0233140
units angstrom
no_reorient  #important for SAPT in psi4, default
symmetry c1  #important for SAPT in psi4, default
}

set PROPERTIES_ORIGIN ["COM"]
properties('MP2/aug-cc-pvtz', properties = ['dipole'])
--------------------------------------------------------------------------

    Molecular point group: c1
  Charge       = 0
  Multiplicity = 1
  Basis Set: AUG-CC-PVTZ
    Blend: AUG-CC-PVTZ
  Basis Set: (AUG-CC-PVTZ AUX)
    Blend: AUG-CC-PVTZ-JKFIT

    Orbital Energies [Eh]
    ---------------------

    Doubly Occupied:

       1A    -20.629382     2A    -20.563511     3A    -20.557682
       4A    -11.407705     5A    -11.349268     6A    -11.281670
       7A    -11.279350     8A    -11.254405     9A    -11.220193
      10A     -1.474120    11A     -1.389987    12A     -1.369465
      13A     -1.111742    14A     -1.072466    15A     -0.961287
      16A     -0.886782    17A     -0.797342    18A     -0.748826
      19A     -0.716157    20A     -0.714853    21A     -0.665239
      22A     -0.644009    23A     -0.640303    24A     -0.634642
      25A     -0.609300    26A     -0.573235    27A     -0.557526
      28A     -0.539164    29A     -0.520701    30A     -0.500207
      31A     -0.479237    32A     -0.473540    33A     -0.431743
      34A     -0.407463

  @DF-RHF Final Energy:  -456.61902632444264

   => Energetics <=

    Nuclear Repulsion Energy =            413.7354434531464449
    One-Electron Energy =               -1443.7839303080520494
    Two-Electron Energy =                 573.4294605304629613
    Total Energy =                       -456.6190263244426433
  Basis Set: (AUG-CC-PVTZ AUX)
    Blend: AUG-CC-PVTZ-RI
    Molecular point group: c1

    Geometry (in Angstrom), charge = 0, multiplicity = 1:

       Center              X                  Y                   Z               Mass
    ------------   -----------------  -----------------  -----------------  -----------------
         O           -1.714105262690     1.345497698541    -0.082377633921    15.994914619570
         O            3.307730437310     0.869243898541    -0.039064333921    15.994914619570
         O            2.680406437310    -1.302902101459     0.083000666079    15.994914619570
         C           -2.610244062690    -0.807179201459     0.030015466079    12.000000000000
         C           -1.438649562690     0.147617898541    -0.009496333921    12.000000000000
         C           -3.939958562690    -0.234072101459    -0.020768333921    12.000000000000
         C           -0.048837562690    -0.393880101459     0.032772666079    12.000000000000
         C            1.011132437310     0.427761898541    -0.007481333921    12.000000000000
         C            2.383006437310    -0.121031101459     0.022338666079    12.000000000000
         H           -2.429239562690    -1.466812101459     0.944758666079     1.007825032230
         H           -2.406220562690    -1.567422101459    -0.799931333921     1.007825032230
         H           -4.087425562690     0.444765898541     0.821990666079     1.007825032230
         H           -4.715793562690    -1.003128101459     0.010639666079     1.007825032230
         H           -4.062217562690     0.347653898541    -0.936734333921     1.007825032230
         H            0.100938437310    -1.469821101459     0.096453666079     1.007825032230
         H            0.880872437310     1.503660898541    -0.068328333921     1.007825032230
         H            4.177067437310     0.417559898541    -0.022912333921     1.007825032230

  Basis Set: AUG-CC-PVTZ
    Blend: AUG-CC-PVTZ
  Basis Set: (AUG-CC-PVTZ AUX)
    Blend: AUG-CC-PVTZ-JKFIT
	 Reference Energy          =    -456.6190263244426433 [Eh]
	 Singles Energy            =      -0.0000000000000000 [Eh]
	 Same-Spin Energy          =      -0.4490858843268459 [Eh]
	 Opposite-Spin Energy      =      -1.4100601643800523 [Eh]
	 Correlation Energy        =      -1.8591460487068983 [Eh]
	 Total Energy              =    -458.4781723731495617 [Eh]

	 ================> DF-SCS-MP2 Energies <==================
	-----------------------------------------------------------
	 SCS Same-Spin Scale       =       0.3333333333333333 [-]
	 SCS Opposite-Spin Scale   =       1.2000000000000000 [-]
	 SCS Same-Spin Energy      =      -0.1496952947756153 [Eh]
	 SCS Opposite-Spin Energy  =      -1.6920721972560628 [Eh]
	 SCS Correlation Energy    =      -1.8417674920316782 [Eh]
	 SCS Total Energy          =    -458.4607938164743359 [Eh]
	-----------------------------------------------------------

  Dipole Moment: [D]
     X:     0.0009      Y:    -1.1458      Z:     0.0610     Total:     1.1474

*** Psi4 exiting successfully. Buy a developer a beer!
