                               Psi4 1.4a3.dev225

  ==> Input File <==

--------------------------------------------------------------------------
#psi4
#
memory 32 gb

molecule  {
0 1
  O       -1.5457390    -1.4151030    -0.0000120
  O        3.4055420    -0.8324430     0.0000000
  O        2.7346890     1.3362110     0.0000030
  C       -2.4962220     0.7973420     0.0000070
  C       -1.3569730    -0.1975560    -0.0000120
  C       -3.8659970     0.1363490     0.0000100
  C       -0.0230891     0.3519236    -0.0000236
  C        1.1002740    -0.4324720     0.0000170
  C        2.4625110     0.1452670     0.0000070
  H       -2.3684100     1.4519690    -0.8733630
  H       -2.3683970     1.4519470     0.8733920
  H       -3.9887950    -0.4970190    -0.8807080
  H       -4.6559460     0.8916380     0.0000190
  H       -3.9887860    -0.4970320     0.8807180
  H        0.1589340     1.4510060    -0.0000590
  H        0.9863010    -1.5124980     0.0000520
  H        4.2687480    -0.3687180    -0.0000090
units angstrom
no_reorient  #important for SAPT in psi4, default
symmetry c1  #important for SAPT in psi4, default
}

set PROPERTIES_ORIGIN ["COM"]
properties('MP2/aug-cc-pvtz', properties = ['dipole'])
--------------------------------------------------------------------------

    Molecular point group: c1
  Charge       = 0
  Multiplicity = 1
  Basis Set: AUG-CC-PVTZ
    Blend: AUG-CC-PVTZ
  Basis Set: (AUG-CC-PVTZ AUX)
    Blend: AUG-CC-PVTZ-JKFIT

    Orbital Energies [Eh]
    ---------------------

    Doubly Occupied:

       1A    -20.629711     2A    -20.564243     3A    -20.559399
       4A    -11.409053     5A    -11.346289     6A    -11.283059
       7A    -11.278556     8A    -11.251488     9A    -11.224394
      10A     -1.472832    11A     -1.390534    12A     -1.369112
      13A     -1.107094    14A     -1.064230    15A     -0.964405
      16A     -0.886911    17A     -0.803815    18A     -0.743806
      19A     -0.718824    20A     -0.712651    21A     -0.665481
      22A     -0.644326    23A     -0.640505    24A     -0.639251
      25A     -0.606059    26A     -0.564276    27A     -0.541137
      28A     -0.536564    29A     -0.524230    30A     -0.501236
      31A     -0.496442    32A     -0.473498    33A     -0.438038
      34A     -0.398129

  @DF-RHF Final Energy:  -456.62245627834034

   => Energetics <=

    Nuclear Repulsion Energy =            413.3308771687174499
    One-Electron Energy =               -1443.0075156377665735
    Two-Electron Energy =                 573.0541821907087296
    Total Energy =                       -456.6224562783403371
  Basis Set: (AUG-CC-PVTZ AUX)
    Blend: AUG-CC-PVTZ-RI
    Molecular point group: c1

    Geometry (in Angstrom), charge = 0, multiplicity = 1:

       Center              X                  Y                   Z               Mass
    ------------   -----------------  -----------------  -----------------  -----------------
         O           -1.633867686356    -1.394980490717    -0.000011712407    15.994914619570
         O            3.317413313644    -0.812320490717     0.000000287593    15.994914619570
         O            2.646560313644     1.356333509283     0.000003287593    15.994914619570
         C           -2.584350686356     0.817464509283     0.000007287593    12.000000000000
         C           -1.445101686356    -0.177433490717    -0.000011712407    12.000000000000
         C           -3.954125686356     0.156471509283     0.000010287593    12.000000000000
         C           -0.111217786356     0.372046109283    -0.000023312407    12.000000000000
         C            1.012145313644    -0.412349490717     0.000017287593    12.000000000000
         C            2.374382313644     0.165389509283     0.000007287593    12.000000000000
         H           -2.456538686356     1.472091509283    -0.873362712407     1.007825032230
         H           -2.456525686356     1.472069509283     0.873392287593     1.007825032230
         H           -4.076923686356    -0.476896490717    -0.880707712407     1.007825032230
         H           -4.744074686356     0.911760509283     0.000019287593     1.007825032230
         H           -4.076914686356    -0.476909490717     0.880718287593     1.007825032230
         H            0.070805313644     1.471128509283    -0.000058712407     1.007825032230
         H            0.898172313644    -1.492375490717     0.000052287593     1.007825032230
         H            4.180619313644    -0.348595490717    -0.000008712407     1.007825032230

  Basis Set: AUG-CC-PVTZ
    Blend: AUG-CC-PVTZ
  Basis Set: (AUG-CC-PVTZ AUX)
    Blend: AUG-CC-PVTZ-JKFIT
	 Reference Energy          =    -456.6224562783403371 [Eh]
	 Singles Energy            =      -0.0000000000000000 [Eh]
	 Same-Spin Energy          =      -0.4492669499926604 [Eh]
	 Opposite-Spin Energy      =      -1.4110417668694812 [Eh]
	 Correlation Energy        =      -1.8603087168621415 [Eh]
	 Total Energy              =    -458.4827649952025013 [Eh]

	 ================> DF-SCS-MP2 Energies <==================
	-----------------------------------------------------------
	 SCS Same-Spin Scale       =       0.3333333333333333 [-]
	 SCS Opposite-Spin Scale   =       1.2000000000000000 [-]
	 SCS Same-Spin Energy      =      -0.1497556499975534 [Eh]
	 SCS Opposite-Spin Energy  =      -1.6932501202433774 [Eh]
	 SCS Correlation Energy    =      -1.8430057702409308 [Eh]
	 SCS Total Energy          =    -458.4654620485812870 [Eh]
	-----------------------------------------------------------

  Dipole Moment: [D]
     X:    -0.0493      Y:     1.1775      Z:     0.0000     Total:     1.1785

*** Psi4 exiting successfully. Buy a developer a beer!
