                               Psi4 1.3.2 release

  ==> Input File <==

--------------------------------------------------------------------------
#psi4
#
memory 32 gb

molecule  {
0 1
  O       -1.6636540     1.3623100    -0.0826750
  O        3.3290625     0.8404086    -0.0380124
  O        2.7087961    -1.2878253     0.0816356
  C       -2.5713650    -0.8630400     0.0337620
  C       -1.4513780     0.1516300    -0.0098980
  C       -3.9526870    -0.2300600    -0.0211700
  C       -0.0615660    -0.3898680     0.0323710
  C        0.9984040     0.4317740    -0.0078830
  C        2.3702780    -0.1170190     0.0219370
  H       -2.4419680    -1.4628000     0.9443570
  H       -2.4189490    -1.5634100    -0.8003330
  H       -4.1001540     0.4487780     0.8215890
  H       -4.7285220    -0.9991160     0.0102380
  H       -4.0749460     0.3516660    -0.9371360
  H        0.0882100    -1.4658090     0.0960520
  H        0.8681440     1.5076730    -0.0687300
  H        4.1643390     0.4215720    -0.0233140
units angstrom
no_reorient  #important for SAPT in psi4, default
symmetry c1  #important for SAPT in psi4, default
}

set PROPERTIES_ORIGIN ["COM"]
properties('MP2/aug-cc-pvtz', properties = ['dipole'])
--------------------------------------------------------------------------

    Molecular point group: c1
  Charge       = 0
  Multiplicity = 1
  Basis Set: AUG-CC-PVTZ
    Blend: AUG-CC-PVTZ
  Basis Set: (AUG-CC-PVTZ AUX)
    Blend: AUG-CC-PVTZ-JKFIT

    Orbital Energies [Eh]
    ---------------------

    Doubly Occupied:

       1A    -20.617289     2A    -20.562844     3A    -20.558386
       4A    -11.405174     5A    -11.352041     6A    -11.280793
       7A    -11.279060     8A    -11.253967     9A    -11.226285
      10A     -1.476532    11A     -1.392649    12A     -1.364207
      13A     -1.112441    14A     -1.067427    15A     -0.960903
      16A     -0.891656    17A     -0.806252    18A     -0.749134
      19A     -0.722109    20A     -0.710476    21A     -0.662891
      22A     -0.644367    23A     -0.643718    24A     -0.638492
      25A     -0.607376    26A     -0.571612    27A     -0.541623
      28A     -0.540683    29A     -0.525708    30A     -0.501066
      31A     -0.493857    32A     -0.469554    33A     -0.437493
      34A     -0.406918

  @DF-RHF Final Energy:  -456.62882427522317

   => Energetics <=

    Nuclear Repulsion Energy =            413.2916760867868788
    One-Electron Energy =               -1442.8910377501713356
    Two-Electron Energy =                 572.9705373881613468
    Total Energy =                       -456.6288242752232236
  Basis Set: (AUG-CC-PVTZ AUX)
    Blend: AUG-CC-PVTZ-RI
    Molecular point group: c1

    Geometry (in Angstrom), charge = 0, multiplicity = 1:

       Center              X                  Y                   Z               Mass
    ------------   -----------------  -----------------  -----------------  -----------------
         O           -1.673044875003     1.365030948153    -0.082736345295    15.994914619570
         O            3.319671624997     0.843129548153    -0.038073745295    15.994914619570
         O            2.699405224997    -1.285104351847     0.081574254705    15.994914619570
         C           -2.580755875003    -0.860319051847     0.033700654705    12.000000000000
         C           -1.460768875003     0.154350948153    -0.009959345295    12.000000000000
         C           -3.962077875003    -0.227339051847    -0.021231345295    12.000000000000
         C           -0.070956875003    -0.387147051847     0.032309654705    12.000000000000
         C            0.989013124997     0.434494948153    -0.007944345295    12.000000000000
         C            2.360887124997    -0.114298051847     0.021875654705    12.000000000000
         H           -2.451358875003    -1.460079051847     0.944295654705     1.007825032230
         H           -2.428339875003    -1.560689051847    -0.800394345295     1.007825032230
         H           -4.109544875003     0.451498948153     0.821527654705     1.007825032230
         H           -4.737912875003    -0.996395051847     0.010176654705     1.007825032230
         H           -4.084336875003     0.354386948153    -0.937197345295     1.007825032230
         H            0.078819124997    -1.463088051847     0.095990654705     1.007825032230
         H            0.858753124997     1.510393948153    -0.068791345295     1.007825032230
         H            4.154948124997     0.424292948153    -0.023375345295     1.007825032230

  Basis Set: AUG-CC-PVTZ
    Blend: AUG-CC-PVTZ
  Basis Set: (AUG-CC-PVTZ AUX)
    Blend: AUG-CC-PVTZ-JKFIT
	 Reference Energy          =    -456.6288242752231668 [Eh]
	 Singles Energy            =      -0.0000000000000000 [Eh]
	 Same-Spin Energy          =      -0.4473738563801009 [Eh]
	 Opposite-Spin Energy      =      -1.4071880072491165 [Eh]
	 Correlation Energy        =      -1.8545618636292174 [Eh]
	 Total Energy              =    -458.4833861388523815 [Eh]

	 ================> DF-SCS-MP2 Energies <==================
	-----------------------------------------------------------
	 SCS Same-Spin Scale       =       0.3333333333333333 [-]
	 SCS Opposite-Spin Scale   =       1.2000000000000000 [-]
	 SCS Same-Spin Energy      =      -0.1491246187933669 [Eh]
	 SCS Opposite-Spin Energy  =      -1.6886256086989397 [Eh]
	 SCS Correlation Energy    =      -1.8377502274923068 [Eh]
	 SCS Total Energy          =    -458.4665745027154458 [Eh]
	-----------------------------------------------------------

  Dipole Moment: [D]
     X:    -0.4540      Y:    -1.1766      Z:     0.0622     Total:     1.2627

*** Psi4 exiting successfully. Buy a developer a beer!
