                               Psi4 1.4a3.dev225

  ==> Input File <==

--------------------------------------------------------------------------
#psi4
#
memory 32 gb

molecule  {
0 1
  O       -1.5457390    -1.4151030    -0.0000120
  O        3.4055420    -0.8324430     0.0000000
  O        2.7346890     1.3362110     0.0000030
  C       -2.4962220     0.7973420     0.0000070
  C       -1.3646334    -0.2469657    -0.0000120
  C       -3.8659970     0.1363490     0.0000100
  C        0.0231420     0.3709680    -0.0000240
  C        1.1002740    -0.4324720     0.0000170
  C        2.4625110     0.1452670     0.0000070
  H       -2.3684100     1.4519690    -0.8733630
  H       -2.3683970     1.4519470     0.8733920
  H       -3.9887950    -0.4970190    -0.8807080
  H       -4.6559460     0.8916380     0.0000190
  H       -3.9887860    -0.4970320     0.8807180
  H        0.1589340     1.4510060    -0.0000590
  H        0.9863010    -1.5124980     0.0000520
  H        4.2687480    -0.3687180    -0.0000090
units angstrom
no_reorient  #important for SAPT in psi4, default
symmetry c1  #important for SAPT in psi4, default
}

set PROPERTIES_ORIGIN ["COM"]
properties('MP2/aug-cc-pvtz', properties = ['dipole'])
--------------------------------------------------------------------------

    Molecular point group: c1
  Charge       = 0
  Multiplicity = 1
  Basis Set: AUG-CC-PVTZ
    Blend: AUG-CC-PVTZ
  Basis Set: (AUG-CC-PVTZ AUX)
    Blend: AUG-CC-PVTZ-JKFIT

    Orbital Energies [Eh]
    ---------------------

    Doubly Occupied:

       1A    -20.626428     2A    -20.565358     3A    -20.560055
       4A    -11.404431     5A    -11.347685     6A    -11.275032
       7A    -11.272329     8A    -11.250543     9A    -11.224095
      10A     -1.469464    11A     -1.425667    12A     -1.365672
      13A     -1.104362    14A     -1.060763    15A     -0.950333
      16A     -0.882884    17A     -0.794406    18A     -0.747081
      19A     -0.720796    20A     -0.711157    21A     -0.662966
      22A     -0.648775    23A     -0.642762    24A     -0.637493
      25A     -0.606648    26A     -0.572497    27A     -0.552904
      28A     -0.540371    29A     -0.525218    30A     -0.502825
      31A     -0.497258    32A     -0.469827    33A     -0.427076
      34A     -0.404287

  @DF-RHF Final Energy:  -456.62963642203158

   => Energetics <=

    Nuclear Repulsion Energy =            413.4658061688764406
    One-Electron Energy =               -1443.2919836905261946
    Two-Electron Energy =                 573.1965410996181163
    Total Energy =                       -456.6296364220315809
  Basis Set: (AUG-CC-PVTZ AUX)
    Blend: AUG-CC-PVTZ-RI
    Molecular point group: c1

    Geometry (in Angstrom), charge = 0, multiplicity = 1:

       Center              X                  Y                   Z               Mass
    ------------   -----------------  -----------------  -----------------  -----------------
         O           -1.637482352503    -1.392134796396    -0.000011674920    15.994914619570
         O            3.313798647497    -0.809474796396     0.000000325080    15.994914619570
         O            2.642945647497     1.359179203604     0.000003325080    15.994914619570
         C           -2.587965352503     0.820310203604     0.000007325080    12.000000000000
         C           -1.456376752503    -0.223997496396    -0.000011674920    12.000000000000
         C           -3.957740352503     0.159317203604     0.000010325080    12.000000000000
         C           -0.068601352503     0.393936203604    -0.000023674920    12.000000000000
         C            1.008530647497    -0.409503796396     0.000017325080    12.000000000000
         C            2.370767647497     0.168235203604     0.000007325080    12.000000000000
         H           -2.460153352503     1.474937203604    -0.873362674920     1.007825032230
         H           -2.460140352503     1.474915203604     0.873392325080     1.007825032230
         H           -4.080538352503    -0.474050796396    -0.880707674920     1.007825032230
         H           -4.747689352503     0.914606203604     0.000019325080     1.007825032230
         H           -4.080529352503    -0.474063796396     0.880718325080     1.007825032230
         H            0.067190647497     1.473974203604    -0.000058674920     1.007825032230
         H            0.894557647497    -1.489529796396     0.000052325080     1.007825032230
         H            4.177004647497    -0.345749796396    -0.000008674920     1.007825032230

  Basis Set: AUG-CC-PVTZ
    Blend: AUG-CC-PVTZ
  Basis Set: (AUG-CC-PVTZ AUX)
    Blend: AUG-CC-PVTZ-JKFIT
	 Reference Energy          =    -456.6296364220315809 [Eh]
	 Singles Energy            =      -0.0000000000000000 [Eh]
	 Same-Spin Energy          =      -0.4468457486869862 [Eh]
	 Opposite-Spin Energy      =      -1.4062118571526043 [Eh]
	 Correlation Energy        =      -1.8530576058395904 [Eh]
	 Total Energy              =    -458.4826940278711618 [Eh]

	 ================> DF-SCS-MP2 Energies <==================
	-----------------------------------------------------------
	 SCS Same-Spin Scale       =       0.3333333333333333 [-]
	 SCS Opposite-Spin Scale   =       1.2000000000000000 [-]
	 SCS Same-Spin Energy      =      -0.1489485828956620 [Eh]
	 SCS Opposite-Spin Energy  =      -1.6874542285831251 [Eh]
	 SCS Correlation Energy    =      -1.8364028114787871 [Eh]
	 SCS Total Energy          =    -458.4660392335103438 [Eh]
	-----------------------------------------------------------

  Dipole Moment: [D]
     X:    -0.2433      Y:     0.9887      Z:     0.0000     Total:     1.0182

*** Psi4 exiting successfully. Buy a developer a beer!
