                               Psi4 1.3.2 release

  ==> Input File <==

--------------------------------------------------------------------------
#psi4
#
memory 32 gb

molecule  {
0 1
  O       -1.6636540     1.3623100    -0.0826750
  O        3.2950020     0.8732560    -0.0394660
  O        2.6676780    -1.2988900     0.0825990
  C       -2.5713650    -0.8630400     0.0337620
  C       -1.4166230     0.1120136    -0.0071483
  C       -3.9740080    -0.2785941    -0.0186522
  C       -0.0615660    -0.3898680     0.0323710
  C        0.9984040     0.4317740    -0.0078830
  C        2.3702780    -0.1170190     0.0219370
  H       -2.4419680    -1.4628000     0.9443570
  H       -2.4189490    -1.5634100    -0.8003330
  H       -4.1001540     0.4487780     0.8215890
  H       -4.7285220    -0.9991160     0.0102380
  H       -4.0749460     0.3516660    -0.9371360
  H        0.0882100    -1.4658090     0.0960520
  H        0.8681440     1.5076730    -0.0687300
  H        4.1643390     0.4215720    -0.0233140
units angstrom
no_reorient  #important for SAPT in psi4, default
symmetry c1  #important for SAPT in psi4, default
}

set PROPERTIES_ORIGIN ["COM"]
properties('MP2/aug-cc-pvtz', properties = ['dipole'])
--------------------------------------------------------------------------

    Molecular point group: c1
  Charge       = 0
  Multiplicity = 1
  Basis Set: AUG-CC-PVTZ
    Blend: AUG-CC-PVTZ
  Basis Set: (AUG-CC-PVTZ AUX)
    Blend: AUG-CC-PVTZ-JKFIT

    Orbital Energies [Eh]
    ---------------------

    Doubly Occupied:

       1A    -20.630391     2A    -20.564982     3A    -20.556195
       4A    -11.408850     5A    -11.352011     6A    -11.282826
       7A    -11.276934     8A    -11.253456     9A    -11.225277
      10A     -1.475221    11A     -1.370696    12A     -1.360838
      13A     -1.116418    14A     -1.064889    15A     -0.966887
      16A     -0.890508    17A     -0.806047    18A     -0.749488
      19A     -0.716516    20A     -0.715288    21A     -0.662200
      22A     -0.645126    23A     -0.635929    24A     -0.635588
      25A     -0.607288    26A     -0.569125    27A     -0.553864
      28A     -0.526680    29A     -0.516475    30A     -0.500755
      31A     -0.485812    32A     -0.474679    33A     -0.438437
      34A     -0.403728

  @DF-RHF Final Energy:  -456.61495601057078

   => Energetics <=

    Nuclear Repulsion Energy =            413.0321629349024306
    One-Electron Energy =               -1442.4154339948465804
    Two-Electron Energy =                 572.7683150493733137
    Total Energy =                       -456.6149560105707224
  Basis Set: (AUG-CC-PVTZ AUX)
    Blend: AUG-CC-PVTZ-RI
    Molecular point group: c1

    Geometry (in Angstrom), charge = 0, multiplicity = 1:

       Center              X                  Y                   Z               Mass
    ------------   -----------------  -----------------  -----------------  -----------------
         O           -1.664912982105     1.370571036299    -0.083168757956    15.994914619570
         O            3.293743017895     0.881517036299    -0.039959757956    15.994914619570
         O            2.666419017895    -1.290628963701     0.082105242044    15.994914619570
         C           -2.572623982105    -0.854778963701     0.033268242044    12.000000000000
         C           -1.417881982105     0.120274636299    -0.007642057956    12.000000000000
         C           -3.975266982105    -0.270333063701    -0.019145957956    12.000000000000
         C           -0.062824982105    -0.381606963701     0.031877242044    12.000000000000
         C            0.997145017895     0.440035036299    -0.008376757956    12.000000000000
         C            2.369019017895    -0.108757963701     0.021443242044    12.000000000000
         H           -2.443226982105    -1.454538963701     0.943863242044     1.007825032230
         H           -2.420207982105    -1.555148963701    -0.800826757956     1.007825032230
         H           -4.101412982105     0.457039036299     0.821095242044     1.007825032230
         H           -4.729780982105    -0.990854963701     0.009744242044     1.007825032230
         H           -4.076204982105     0.359927036299    -0.937629757956     1.007825032230
         H            0.086951017895    -1.457547963701     0.095558242044     1.007825032230
         H            0.866885017895     1.515934036299    -0.069223757956     1.007825032230
         H            4.163080017895     0.429833036299    -0.023807757956     1.007825032230

  Basis Set: AUG-CC-PVTZ
    Blend: AUG-CC-PVTZ
  Basis Set: (AUG-CC-PVTZ AUX)
    Blend: AUG-CC-PVTZ-JKFIT
	 Reference Energy          =    -456.6149560105707792 [Eh]
	 Singles Energy            =      -0.0000000000000000 [Eh]
	 Same-Spin Energy          =      -0.4500547147254463 [Eh]
	 Opposite-Spin Energy      =      -1.4127870683192185 [Eh]
	 Correlation Energy        =      -1.8628417830446649 [Eh]
	 Total Energy              =    -458.4777977936154230 [Eh]

	 ================> DF-SCS-MP2 Energies <==================
	-----------------------------------------------------------
	 SCS Same-Spin Scale       =       0.3333333333333333 [-]
	 SCS Opposite-Spin Scale   =       1.2000000000000000 [-]
	 SCS Same-Spin Energy      =      -0.1500182382418154 [Eh]
	 SCS Opposite-Spin Energy  =      -1.6953444819830621 [Eh]
	 SCS Correlation Energy    =      -1.8453627202248775 [Eh]
	 SCS Total Energy          =    -458.4603187307956773 [Eh]
	-----------------------------------------------------------

  Dipole Moment: [D]
     X:     0.0502      Y:    -1.2990      Z:     0.0695     Total:     1.3019

*** Psi4 exiting successfully. Buy a developer a beer!
