                               Psi4 1.3.2 release

  ==> Input File <==

--------------------------------------------------------------------------
#psi4
#
memory 32 gb

molecule  {
0 1
  O       -1.6636540     1.3623100    -0.0826750
  O        3.2950020     0.8732560    -0.0394660
  O        2.6882863    -1.2935250     0.0823530
  C       -2.5713650    -0.8630400     0.0337620
  C       -1.4513780     0.1516300    -0.0098980
  C       -3.9526870    -0.2300600    -0.0211700
  C       -0.0615660    -0.3898680     0.0323710
  C        1.0082048     0.4556025    -0.0090849
  C        2.3702780    -0.1170190     0.0219370
  H       -2.4419680    -1.4628000     0.9443570
  H       -2.4189490    -1.5634100    -0.8003330
  H       -4.1001540     0.4487780     0.8215890
  H       -4.7285220    -0.9991160     0.0102380
  H       -4.0749460     0.3516660    -0.9371360
  H        0.0882100    -1.4658090     0.0960520
  H        0.8681440     1.5076730    -0.0687300
  H        4.1643390     0.4215720    -0.0233140
units angstrom
no_reorient  #important for SAPT in psi4, default
symmetry c1  #important for SAPT in psi4, default
}

set PROPERTIES_ORIGIN ["COM"]
properties('MP2/aug-cc-pvtz', properties = ['dipole'])
--------------------------------------------------------------------------

    Molecular point group: c1
  Charge       = 0
  Multiplicity = 1
  Basis Set: AUG-CC-PVTZ
    Blend: AUG-CC-PVTZ
  Basis Set: (AUG-CC-PVTZ AUX)
    Blend: AUG-CC-PVTZ-JKFIT

    Orbital Energies [Eh]
    ---------------------

    Doubly Occupied:

       1A    -20.624851     2A    -20.561367     3A    -20.561098
       4A    -11.405293     5A    -11.350518     6A    -11.281225
       7A    -11.278459     8A    -11.252970     9A    -11.225553
      10A     -1.471768    11A     -1.391269    12A     -1.365519
      13A     -1.106598    14A     -1.065868    15A     -0.958660
      16A     -0.886573    17A     -0.799070    18A     -0.750627
      19A     -0.717873    20A     -0.712128    21A     -0.659451
      22A     -0.643753    23A     -0.641757    24A     -0.638748
      25A     -0.605244    26A     -0.576497    27A     -0.540189
      28A     -0.539372    29A     -0.524845    30A     -0.500436
      31A     -0.495477    32A     -0.471732    33A     -0.435880
      34A     -0.400957

  @DF-RHF Final Energy:  -456.62624860617183

   => Energetics <=

    Nuclear Repulsion Energy =            413.1009482075112942
    One-Electron Energy =               -1442.5711478672267276
    Two-Electron Energy =                 572.8439510535436057
    Total Energy =                       -456.6262486061718846
  Basis Set: (AUG-CC-PVTZ AUX)
    Blend: AUG-CC-PVTZ-RI
    Molecular point group: c1

    Geometry (in Angstrom), charge = 0, multiplicity = 1:

       Center              X                  Y                   Z               Mass
    ------------   -----------------  -----------------  -----------------  -----------------
         O           -1.667146762126     1.359406722609    -0.082531747095    15.994914619570
         O            3.291509237874     0.870352722609    -0.039322747095    15.994914619570
         O            2.684793537874    -1.296428277391     0.082496252905    15.994914619570
         C           -2.574857762126    -0.865943277391     0.033905252905    12.000000000000
         C           -1.454870762126     0.148726722609    -0.009754747095    12.000000000000
         C           -3.956179762126    -0.232963277391    -0.021026747095    12.000000000000
         C           -0.065058762126    -0.392771277391     0.032514252905    12.000000000000
         C            1.004712037874     0.452699222609    -0.008941647095    12.000000000000
         C            2.366785237874    -0.119922277391     0.022080252905    12.000000000000
         H           -2.445460762126    -1.465703277391     0.944500252905     1.007825032230
         H           -2.422441762126    -1.566313277391    -0.800189747095     1.007825032230
         H           -4.103646762126     0.445874722609     0.821732252905     1.007825032230
         H           -4.732014762126    -1.002019277391     0.010381252905     1.007825032230
         H           -4.078438762126     0.348762722609    -0.936992747095     1.007825032230
         H            0.084717237874    -1.468712277391     0.096195252905     1.007825032230
         H            0.864651237874     1.504769722609    -0.068586747095     1.007825032230
         H            4.160846237874     0.418668722609    -0.023170747095     1.007825032230

  Basis Set: AUG-CC-PVTZ
    Blend: AUG-CC-PVTZ
  Basis Set: (AUG-CC-PVTZ AUX)
    Blend: AUG-CC-PVTZ-JKFIT
	 Reference Energy          =    -456.6262486061718278 [Eh]
	 Singles Energy            =      -0.0000000000000000 [Eh]
	 Same-Spin Energy          =      -0.4484976223732720 [Eh]
	 Opposite-Spin Energy      =      -1.4096323888470490 [Eh]
	 Correlation Energy        =      -1.8581300112203210 [Eh]
	 Total Energy              =    -458.4843786173921671 [Eh]

	 ================> DF-SCS-MP2 Energies <==================
	-----------------------------------------------------------
	 SCS Same-Spin Scale       =       0.3333333333333333 [-]
	 SCS Opposite-Spin Scale   =       1.2000000000000000 [-]
	 SCS Same-Spin Energy      =      -0.1494992074577573 [Eh]
	 SCS Opposite-Spin Energy  =      -1.6915588666164587 [Eh]
	 SCS Correlation Energy    =      -1.8410580740742160 [Eh]
	 SCS Total Energy          =    -458.4673066802460539 [Eh]
	-----------------------------------------------------------

  Dipole Moment: [D]
     X:    -0.2622      Y:    -1.1852      Z:     0.0616     Total:     1.2154

*** Psi4 exiting successfully. Buy a developer a beer!
