                               Psi4 1.3.2 release

  ==> Input File <==

--------------------------------------------------------------------------
#psi4
#
memory 32 gb

molecule  {
0 1
  O       -1.6636540     1.3623100    -0.0826750
  O        3.2950020     0.8732560    -0.0394660
  O        2.6676780    -1.2988900     0.0825990
  C       -2.6061234    -0.8234072     0.0313074
  C       -1.4513780     0.1516300    -0.0098980
  C       -3.9526870    -0.2300600    -0.0211700
  C       -0.0434636    -0.3410920     0.0299312
  C        0.9984040     0.4317740    -0.0078830
  C        2.3702780    -0.1170190     0.0219370
  H       -2.4419680    -1.4628000     0.9443570
  H       -2.4189490    -1.5634100    -0.8003330
  H       -4.1001540     0.4487780     0.8215890
  H       -4.7285220    -0.9991160     0.0102380
  H       -4.0749460     0.3516660    -0.9371360
  H        0.0882100    -1.4658090     0.0960520
  H        0.8681440     1.5076730    -0.0687300
  H        4.1643390     0.4215720    -0.0233140
units angstrom
no_reorient  #important for SAPT in psi4, default
symmetry c1  #important for SAPT in psi4, default
}

set PROPERTIES_ORIGIN ["COM"]
properties('MP2/aug-cc-pvtz', properties = ['dipole'])
--------------------------------------------------------------------------

    Molecular point group: c1
  Charge       = 0
  Multiplicity = 1
  Basis Set: AUG-CC-PVTZ
    Blend: AUG-CC-PVTZ
  Basis Set: (AUG-CC-PVTZ AUX)
    Blend: AUG-CC-PVTZ-JKFIT

    Orbital Energies [Eh]
    ---------------------

    Doubly Occupied:

       1A    -20.627814     2A    -20.561607     3A    -20.558790
       4A    -11.405931     5A    -11.349394     6A    -11.274331
       7A    -11.268453     8A    -11.257293     9A    -11.224277
      10A     -1.472382    11A     -1.390987    12A     -1.367621
      13A     -1.116054    14A     -1.073313    15A     -0.956739
      16A     -0.889665    17A     -0.799705    18A     -0.740643
      19A     -0.718910    20A     -0.711415    21A     -0.667375
      22A     -0.643242    23A     -0.640212    24A     -0.637284
      25A     -0.608064    26A     -0.557945    27A     -0.555033
      28A     -0.541530    29A     -0.523737    30A     -0.499188
      31A     -0.487639    32A     -0.471438    33A     -0.434348
      34A     -0.413020

  @DF-RHF Final Energy:  -456.62236234366043

   => Energetics <=

    Nuclear Repulsion Energy =            414.2476992527848552
    One-Electron Energy =               -1444.8493715327260816
    Two-Electron Energy =                 573.9793099362809699
    Total Energy =                       -456.6223623436603702
  Basis Set: (AUG-CC-PVTZ AUX)
    Blend: AUG-CC-PVTZ-RI
    Molecular point group: c1

    Geometry (in Angstrom), charge = 0, multiplicity = 1:

       Center              X                  Y                   Z               Mass
    ------------   -----------------  -----------------  -----------------  -----------------
         O           -1.662093087616     1.354024722007    -0.082216432074    15.994914619570
         O            3.296562912384     0.864970722007    -0.039007432074    15.994914619570
         O            2.669238912384    -1.307175277993     0.083057567926    15.994914619570
         C           -2.604562487616    -0.831692477993     0.031765967926    12.000000000000
         C           -1.449817087616     0.143344722007    -0.009439432074    12.000000000000
         C           -3.951126087616    -0.238345277993    -0.020711432074    12.000000000000
         C           -0.041902687616    -0.349377277993     0.030389767926    12.000000000000
         C            0.999964912384     0.423488722007    -0.007424432074    12.000000000000
         C            2.371838912384    -0.125304277993     0.022395567926    12.000000000000
         H           -2.440407087616    -1.471085277993     0.944815567926     1.007825032230
         H           -2.417388087616    -1.571695277993    -0.799874432074     1.007825032230
         H           -4.098593087616     0.440492722007     0.822047567926     1.007825032230
         H           -4.726961087616    -1.007401277993     0.010696567926     1.007825032230
         H           -4.073385087616     0.343380722007    -0.936677432074     1.007825032230
         H            0.089770912384    -1.474094277993     0.096510567926     1.007825032230
         H            0.869704912384     1.499387722007    -0.068271432074     1.007825032230
         H            4.165899912384     0.413286722007    -0.022855432074     1.007825032230

  Basis Set: AUG-CC-PVTZ
    Blend: AUG-CC-PVTZ
  Basis Set: (AUG-CC-PVTZ AUX)
    Blend: AUG-CC-PVTZ-JKFIT
	 Reference Energy          =    -456.6223623436604271 [Eh]
	 Singles Energy            =      -0.0000000000000000 [Eh]
	 Same-Spin Energy          =      -0.4483313942931496 [Eh]
	 Opposite-Spin Energy      =      -1.4086629922513234 [Eh]
	 Correlation Energy        =      -1.8569943865444731 [Eh]
	 Total Energy              =    -458.4793567302049269 [Eh]

	 ================> DF-SCS-MP2 Energies <==================
	-----------------------------------------------------------
	 SCS Same-Spin Scale       =       0.3333333333333333 [-]
	 SCS Opposite-Spin Scale   =       1.2000000000000000 [-]
	 SCS Same-Spin Energy      =      -0.1494437980977165 [Eh]
	 SCS Opposite-Spin Energy  =      -1.6903955907015880 [Eh]
	 SCS Correlation Energy    =      -1.8398393887993045 [Eh]
	 SCS Total Energy          =    -458.4622017324597323 [Eh]
	-----------------------------------------------------------

  Dipole Moment: [D]
     X:    -0.2655      Y:    -1.1765      Z:     0.0602     Total:     1.2076

*** Psi4 exiting successfully. Buy a developer a beer!
