                               Psi4 1.3.2 release

  ==> Input File <==

--------------------------------------------------------------------------
#psi4
#
memory 32 gb

molecule  {
0 1
  O       -1.6636540     1.3623100    -0.0826750
  O        3.2950020     0.8732560    -0.0394660
  O        2.6779939    -1.2962524     0.0824783
  C       -2.5713650    -0.8630400     0.0337620
  C       -1.4513780     0.1516300    -0.0098980
  C       -3.9526870    -0.2300600    -0.0211700
  C       -0.0615660    -0.3898680     0.0323710
  C        1.0032523     0.4437096    -0.0084851
  C        2.3702780    -0.1170190     0.0219370
  H       -2.4419680    -1.4628000     0.9443570
  H       -2.4189490    -1.5634100    -0.8003330
  H       -4.1001540     0.4487780     0.8215890
  H       -4.7285220    -0.9991160     0.0102380
  H       -4.0749460     0.3516660    -0.9371360
  H        0.0882100    -1.4658090     0.0960520
  H        0.8681440     1.5076730    -0.0687300
  H        4.1643390     0.4215720    -0.0233140
units angstrom
no_reorient  #important for SAPT in psi4, default
symmetry c1  #important for SAPT in psi4, default
}

set PROPERTIES_ORIGIN ["COM"]
properties('MP2/aug-cc-pvtz', properties = ['dipole'])
--------------------------------------------------------------------------

    Molecular point group: c1
  Charge       = 0
  Multiplicity = 1
  Basis Set: AUG-CC-PVTZ
    Blend: AUG-CC-PVTZ
  Basis Set: (AUG-CC-PVTZ AUX)
    Blend: AUG-CC-PVTZ-JKFIT

    Orbital Energies [Eh]
    ---------------------

    Doubly Occupied:

       1A    -20.626230     2A    -20.561229     3A    -20.561027
       4A    -11.405358     5A    -11.350241     6A    -11.278978
       7A    -11.276968     8A    -11.252737     9A    -11.225366
      10A     -1.471994    11A     -1.390945    12A     -1.366512
      13A     -1.107819    14A     -1.065782    15A     -0.957963
      16A     -0.887072    17A     -0.798995    18A     -0.748816
      19A     -0.718113    20A     -0.712538    21A     -0.660366
      22A     -0.643818    23A     -0.641368    24A     -0.638957
      25A     -0.606074    26A     -0.573458    27A     -0.540114
      28A     -0.539361    29A     -0.524633    30A     -0.500634
      31A     -0.495815    32A     -0.471522    33A     -0.435616
      34A     -0.402596

  @DF-RHF Final Energy:  -456.62760875151167

   => Energetics <=

    Nuclear Repulsion Energy =            413.2829189300485950
    One-Electron Energy =               -1442.9430221961897587
    Two-Electron Energy =                 573.0324945146294340
    Total Energy =                       -456.6276087515116160
  Basis Set: (AUG-CC-PVTZ AUX)
    Blend: AUG-CC-PVTZ-RI
    Molecular point group: c1

    Geometry (in Angstrom), charge = 0, multiplicity = 1:

       Center              X                  Y                   Z               Mass
    ------------   -----------------  -----------------  -----------------  -----------------
         O           -1.665396971368     1.360861960368    -0.082603609287    15.994914619570
         O            3.293259028632     0.871807960368    -0.039394609287    15.994914619570
         O            2.676250928632    -1.297700439632     0.082549690713    15.994914619570
         C           -2.573107971368    -0.864488039632     0.033833390713    12.000000000000
         C           -1.453120971368     0.150181960368    -0.009826609287    12.000000000000
         C           -3.954429971368    -0.231508039632    -0.021098609287    12.000000000000
         C           -0.063308971368    -0.391316039632     0.032442390713    12.000000000000
         C            1.001509328632     0.442261560368    -0.008413709287    12.000000000000
         C            2.368535028632    -0.118467039632     0.022008390713    12.000000000000
         H           -2.443710971368    -1.464248039632     0.944428390713     1.007825032230
         H           -2.420691971368    -1.564858039632    -0.800261609287     1.007825032230
         H           -4.101896971368     0.447329960368     0.821660390713     1.007825032230
         H           -4.730264971368    -1.000564039632     0.010309390713     1.007825032230
         H           -4.076688971368     0.350217960368    -0.937064609287     1.007825032230
         H            0.086467028632    -1.467257039632     0.096123390713     1.007825032230
         H            0.866401028632     1.506224960368    -0.068658609287     1.007825032230
         H            4.162596028632     0.420123960368    -0.023242609287     1.007825032230

  Basis Set: AUG-CC-PVTZ
    Blend: AUG-CC-PVTZ
  Basis Set: (AUG-CC-PVTZ AUX)
    Blend: AUG-CC-PVTZ-JKFIT
	 Reference Energy          =    -456.6276087515116728 [Eh]
	 Singles Energy            =      -0.0000000000000000 [Eh]
	 Same-Spin Energy          =      -0.4483779340619815 [Eh]
	 Opposite-Spin Energy      =      -1.4093408396900842 [Eh]
	 Correlation Energy        =      -1.8577187737520657 [Eh]
	 Total Energy              =    -458.4853275252637559 [Eh]

	 ================> DF-SCS-MP2 Energies <==================
	-----------------------------------------------------------
	 SCS Same-Spin Scale       =       0.3333333333333333 [-]
	 SCS Opposite-Spin Scale   =       1.2000000000000000 [-]
	 SCS Same-Spin Energy      =      -0.1494593113539938 [Eh]
	 SCS Opposite-Spin Energy  =      -1.6912090076281010 [Eh]
	 SCS Correlation Energy    =      -1.8406683189820949 [Eh]
	 SCS Total Energy          =    -458.4682770704937411 [Eh]
	-----------------------------------------------------------

  Dipole Moment: [D]
     X:    -0.2184      Y:    -1.1833      Z:     0.0615     Total:     1.2048

*** Psi4 exiting successfully. Buy a developer a beer!
