                               Psi4 1.3.2 release

  ==> Input File <==

--------------------------------------------------------------------------
#psi4
#
memory 32 gb

molecule  {
0 1
  O       -1.6636540     1.3623100    -0.0826750
  O        3.2950020     0.8732560    -0.0394660
  O        2.6676780    -1.2988900     0.0825990
  C       -2.5713650    -0.8630400     0.0337620
  C       -1.4513780     0.1516300    -0.0098980
  C       -3.9526870    -0.2300600    -0.0211700
  C       -0.0615660    -0.3898680     0.0323710
  C        0.9984040     0.4317740    -0.0078830
  C        2.3616556    -0.1089186     0.0215834
  H       -2.4419680    -1.4628000     0.9443570
  H       -2.4189490    -1.5634100    -0.8003330
  H       -4.1001540     0.4487780     0.8215890
  H       -4.7285220    -0.9991160     0.0102380
  H       -4.0749460     0.3516660    -0.9371360
  H        0.0882100    -1.4658090     0.0960520
  H        0.8681440     1.5076730    -0.0687300
  H        4.1682493     0.4291631    -0.0237555
units angstrom
no_reorient  #important for SAPT in psi4, default
symmetry c1  #important for SAPT in psi4, default
}

set PROPERTIES_ORIGIN ["COM"]
properties('MP2/aug-cc-pvtz', properties = ['dipole'])
--------------------------------------------------------------------------

    Molecular point group: c1
  Charge       = 0
  Multiplicity = 1
  Basis Set: AUG-CC-PVTZ
    Blend: AUG-CC-PVTZ
  Basis Set: (AUG-CC-PVTZ AUX)
    Blend: AUG-CC-PVTZ-JKFIT

    Orbital Energies [Eh]
    ---------------------

    Doubly Occupied:

       1A    -20.627185     2A    -20.561657     3A    -20.559412
       4A    -11.405746     5A    -11.350763     6A    -11.278160
       7A    -11.275704     8A    -11.253066     9A    -11.225604
      10A     -1.469454    11A     -1.391484    12A     -1.361334
      13A     -1.110970    14A     -1.066548    15A     -0.959546
      16A     -0.888828    17A     -0.800106    18A     -0.747665
      19A     -0.719366    20A     -0.710566    21A     -0.661044
      22A     -0.643672    23A     -0.641670    24A     -0.638091
      25A     -0.605694    26A     -0.569974    27A     -0.540652
      28A     -0.539822    29A     -0.524908    30A     -0.500497
      31A     -0.494052    32A     -0.470057    33A     -0.436287
      34A     -0.404654

  @DF-RHF Final Energy:  -456.62710492776046

   => Energetics <=

    Nuclear Repulsion Energy =            413.4481464990629433
    One-Electron Energy =               -1443.2820268264113110
    Two-Electron Energy =                 573.2067753995879684
    Total Energy =                       -456.6271049277604561
  Basis Set: (AUG-CC-PVTZ AUX)
    Blend: AUG-CC-PVTZ-RI
    Molecular point group: c1

    Geometry (in Angstrom), charge = 0, multiplicity = 1:

       Center              X                  Y                   Z               Mass
    ------------   -----------------  -----------------  -----------------  -----------------
         O           -1.662876736031     1.361491103337    -0.082638499752    15.994914619570
         O            3.295779263969     0.872437103337    -0.039429499752    15.994914619570
         O            2.668455263969    -1.299708896663     0.082635500248    15.994914619570
         C           -2.570587736031    -0.863858896663     0.033798500248    12.000000000000
         C           -1.450600736031     0.150811103337    -0.009861499752    12.000000000000
         C           -3.951909736031    -0.230878896663    -0.021133499752    12.000000000000
         C           -0.060788736031    -0.390686896663     0.032407500248    12.000000000000
         C            0.999181263969     0.430955103337    -0.007846499752    12.000000000000
         C            2.362432863969    -0.109737496663     0.021619900248    12.000000000000
         H           -2.441190736031    -1.463618896663     0.944393500248     1.007825032230
         H           -2.418171736031    -1.564228896663    -0.800296499752     1.007825032230
         H           -4.099376736031     0.447959103337     0.821625500248     1.007825032230
         H           -4.727744736031    -0.999934896663     0.010274500248     1.007825032230
         H           -4.074168736031     0.350847103337    -0.937099499752     1.007825032230
         H            0.088987263969    -1.466627896663     0.096088500248     1.007825032230
         H            0.868921263969     1.506854103337    -0.068693499752     1.007825032230
         H            4.169026563969     0.428344203337    -0.023718999752     1.007825032230

  Basis Set: AUG-CC-PVTZ
    Blend: AUG-CC-PVTZ
  Basis Set: (AUG-CC-PVTZ AUX)
    Blend: AUG-CC-PVTZ-JKFIT
	 Reference Energy          =    -456.6271049277604561 [Eh]
	 Singles Energy            =      -0.0000000000000000 [Eh]
	 Same-Spin Energy          =      -0.4485386154322613 [Eh]
	 Opposite-Spin Energy      =      -1.4096075402315047 [Eh]
	 Correlation Energy        =      -1.8581461556637660 [Eh]
	 Total Energy              =    -458.4852510834242025 [Eh]

	 ================> DF-SCS-MP2 Energies <==================
	-----------------------------------------------------------
	 SCS Same-Spin Scale       =       0.3333333333333333 [-]
	 SCS Opposite-Spin Scale   =       1.2000000000000000 [-]
	 SCS Same-Spin Energy      =      -0.1495128718107537 [Eh]
	 SCS Opposite-Spin Energy  =      -1.6915290482778056 [Eh]
	 SCS Correlation Energy    =      -1.8410419200885593 [Eh]
	 SCS Total Energy          =    -458.4681468478490274 [Eh]
	-----------------------------------------------------------

  Dipole Moment: [D]
     X:    -0.2353      Y:    -1.1316      Z:     0.0586     Total:     1.1573

*** Psi4 exiting successfully. Buy a developer a beer!
