                               Psi4 1.3.2 release

  ==> Input File <==

--------------------------------------------------------------------------
#psi4
#
memory 32 gb

molecule  {
0 1
  O       -1.6636540     1.3623100    -0.0826750
  O        3.2950020     0.8732560    -0.0394660
  O        2.6676780    -1.2988900     0.0825990
  C       -2.5713650    -0.8630400     0.0337620
  C       -1.4513780     0.1516300    -0.0098980
  C       -3.9526870    -0.2300600    -0.0211700
  C       -0.0470483    -0.4082090     0.0334742
  C        0.9984040     0.4317740    -0.0078830
  C        2.3702780    -0.1170190     0.0219370
  H       -2.4419680    -1.4628000     0.9443570
  H       -2.4189490    -1.5634100    -0.8003330
  H       -4.1001540     0.4487780     0.8215890
  H       -4.7285220    -0.9991160     0.0102380
  H       -4.0749460     0.3516660    -0.9371360
  H        0.0882100    -1.4658090     0.0960520
  H        0.8869706     1.5097846    -0.0687472
  H        4.1643390     0.4215720    -0.0233140
units angstrom
no_reorient  #important for SAPT in psi4, default
symmetry c1  #important for SAPT in psi4, default
}

set PROPERTIES_ORIGIN ["COM"]
properties('MP2/aug-cc-pvtz', properties = ['dipole'])
--------------------------------------------------------------------------

    Molecular point group: c1
  Charge       = 0
  Multiplicity = 1
  Basis Set: AUG-CC-PVTZ
    Blend: AUG-CC-PVTZ
  Basis Set: (AUG-CC-PVTZ AUX)
    Blend: AUG-CC-PVTZ-JKFIT

    Orbital Energies [Eh]
    ---------------------

    Doubly Occupied:

       1A    -20.626995     2A    -20.561170     3A    -20.560326
       4A    -11.404017     5A    -11.351411     6A    -11.276967
       7A    -11.275151     8A    -11.252530     9A    -11.225201
      10A     -1.471594    11A     -1.390229    12A     -1.366794
      13A     -1.108489    14A     -1.065626    15A     -0.955269
      16A     -0.887346    17A     -0.796756    18A     -0.749807
      19A     -0.717584    20A     -0.713114    21A     -0.658828
      22A     -0.643533    23A     -0.641289    24A     -0.638794
      25A     -0.607536    26A     -0.575199    27A     -0.539430
      28A     -0.539278    29A     -0.524257    30A     -0.500677
      31A     -0.495804    32A     -0.470108    33A     -0.433810
      34A     -0.404647

  @DF-RHF Final Energy:  -456.62800258366536

   => Energetics <=

    Nuclear Repulsion Energy =            413.2820881852728689
    One-Electron Energy =               -1442.9610481955783143
    Two-Electron Energy =                 573.0509574266401387
    Total Energy =                       -456.6280025836653067
  Basis Set: (AUG-CC-PVTZ AUX)
    Blend: AUG-CC-PVTZ-RI
    Molecular point group: c1

    Geometry (in Angstrom), charge = 0, multiplicity = 1:

       Center              X                  Y                   Z               Mass
    ------------   -----------------  -----------------  -----------------  -----------------
         O           -1.665162720348     1.364012195668    -0.082778363802    15.994914619570
         O            3.293493279652     0.874958195668    -0.039569363802    15.994914619570
         O            2.666169279652    -1.297187804332     0.082495636198    15.994914619570
         C           -2.572873720348    -0.861337804332     0.033658636198    12.000000000000
         C           -1.452886720348     0.153332195668    -0.010001363802    12.000000000000
         C           -3.954195720348    -0.228357804332    -0.021273363802    12.000000000000
         C           -0.048557020348    -0.406506804332     0.033370836198    12.000000000000
         C            0.996895279652     0.433476195668    -0.007986363802    12.000000000000
         C            2.368769279652    -0.115316804332     0.021833636198    12.000000000000
         H           -2.443476720348    -1.461097804332     0.944253636198     1.007825032230
         H           -2.420457720348    -1.561707804332    -0.800436363802     1.007825032230
         H           -4.101662720348     0.450480195668     0.821485636198     1.007825032230
         H           -4.730030720348    -0.997413804332     0.010134636198     1.007825032230
         H           -4.076454720348     0.353368195668    -0.937239363802     1.007825032230
         H            0.086701279652    -1.464106804332     0.095948636198     1.007825032230
         H            0.885461879652     1.511486795668    -0.068850563802     1.007825032230
         H            4.162830279652     0.423274195668    -0.023417363802     1.007825032230

  Basis Set: AUG-CC-PVTZ
    Blend: AUG-CC-PVTZ
  Basis Set: (AUG-CC-PVTZ AUX)
    Blend: AUG-CC-PVTZ-JKFIT
	 Reference Energy          =    -456.6280025836653635 [Eh]
	 Singles Energy            =      -0.0000000000000000 [Eh]
	 Same-Spin Energy          =      -0.4480803056097402 [Eh]
	 Opposite-Spin Energy      =      -1.4088257288293193 [Eh]
	 Correlation Energy        =      -1.8569060344390595 [Eh]
	 Total Energy              =    -458.4849086181044413 [Eh]

	 ================> DF-SCS-MP2 Energies <==================
	-----------------------------------------------------------
	 SCS Same-Spin Scale       =       0.3333333333333333 [-]
	 SCS Opposite-Spin Scale   =       1.2000000000000000 [-]
	 SCS Same-Spin Energy      =      -0.1493601018699134 [Eh]
	 SCS Opposite-Spin Energy  =      -1.6905908745951832 [Eh]
	 SCS Correlation Energy    =      -1.8399509764650965 [Eh]
	 SCS Total Energy          =    -458.4679535601304678 [Eh]
	-----------------------------------------------------------

  Dipole Moment: [D]
     X:    -0.2063      Y:    -1.1807      Z:     0.0614     Total:     1.2002

*** Psi4 exiting successfully. Buy a developer a beer!
