                               Psi4 1.3.2 release

  ==> Input File <==

--------------------------------------------------------------------------
#psi4
#
memory 32 gb

molecule  {
0 1
  O       -1.6636540     1.3623100    -0.0826750
  O        3.2950020     0.8732560    -0.0394660
  O        2.6676780    -1.2988900     0.0825990
  C       -2.5713650    -0.8630400     0.0337620
  C       -1.4513780     0.1516300    -0.0098980
  C       -3.9526870    -0.2300600    -0.0211700
  C       -0.2478461    -0.3172896     0.0267056
  C        0.9984040     0.4317740    -0.0078830
  C        2.3702780    -0.1170190     0.0219370
  H       -2.4419680    -1.4628000     0.9443570
  H       -2.4189490    -1.5634100    -0.8003330
  H       -4.1001540     0.4487780     0.8215890
  H       -4.7285220    -0.9991160     0.0102380
  H       -4.0749460     0.3516660    -0.9371360
  H        0.0882100    -1.4658090     0.0960520
  H        0.8681440     1.5076730    -0.0687300
  H        4.1643390     0.4215720    -0.0233140
units angstrom
no_reorient  #important for SAPT in psi4, default
symmetry c1  #important for SAPT in psi4, default
}

set PROPERTIES_ORIGIN ["COM"]
properties('MP2/aug-cc-pvtz', properties = ['dipole'])
--------------------------------------------------------------------------

    Molecular point group: c1
  Charge       = 0
  Multiplicity = 1
  Basis Set: AUG-CC-PVTZ
    Blend: AUG-CC-PVTZ
  Basis Set: (AUG-CC-PVTZ AUX)
    Blend: AUG-CC-PVTZ-JKFIT

    Orbital Energies [Eh]
    ---------------------

    Doubly Occupied:

       1A    -20.636012     2A    -20.572445     3A    -20.553144
       4A    -11.417747     5A    -11.327287     6A    -11.306038
       7A    -11.283104     8A    -11.246280     9A    -11.220851
      10A     -1.480894    11A     -1.391892    12A     -1.376380
      13A     -1.113353    14A     -1.058972    15A     -0.990141
      16A     -0.883893    17A     -0.818496    18A     -0.737482
      19A     -0.721395    20A     -0.712003    21A     -0.675800
      22A     -0.649941    23A     -0.642113    24A     -0.639858
      25A     -0.610562    26A     -0.553089    27A     -0.546080
      28A     -0.521772    29A     -0.510805    30A     -0.504756
      31A     -0.495340    32A     -0.481533    33A     -0.439577
      34A     -0.381719

  @DF-RHF Final Energy:  -456.56341193014265

   => Energetics <=

    Nuclear Repulsion Energy =            414.4819237488641761
    One-Electron Energy =               -1445.0891640847864892
    Two-Electron Energy =                 574.0438284057797773
    Total Energy =                       -456.5634119301425926
  Basis Set: (AUG-CC-PVTZ AUX)
    Blend: AUG-CC-PVTZ-RI
    Molecular point group: c1

    Geometry (in Angstrom), charge = 0, multiplicity = 1:

       Center              X                  Y                   Z               Mass
    ------------   -----------------  -----------------  -----------------  -----------------
         O           -1.646196707929     1.355508273277    -0.082144177549    15.994914619570
         O            3.312459292071     0.866454273277    -0.038935177549    15.994914619570
         O            2.685135292071    -1.305691726723     0.083129822451    15.994914619570
         C           -2.553907707929    -0.869841726723     0.034292822451    12.000000000000
         C           -1.433920707929     0.144828273277    -0.009367177549    12.000000000000
         C           -3.935229707929    -0.236861726723    -0.020639177549    12.000000000000
         C           -0.230388807929    -0.324091326723     0.027236422451    12.000000000000
         C            1.015861292071     0.424972273277    -0.007352177549    12.000000000000
         C            2.387735292071    -0.123820726723     0.022467822451    12.000000000000
         H           -2.424510707929    -1.469601726723     0.944887822451     1.007825032230
         H           -2.401491707929    -1.570211726723    -0.799802177549     1.007825032230
         H           -4.082696707929     0.441976273277     0.822119822451     1.007825032230
         H           -4.711064707929    -1.005917726723     0.010768822451     1.007825032230
         H           -4.057488707929     0.344864273277    -0.936605177549     1.007825032230
         H            0.105667292071    -1.472610726723     0.096582822451     1.007825032230
         H            0.885601292071     1.500871273277    -0.068199177549     1.007825032230
         H            4.181796292071     0.414770273277    -0.022783177549     1.007825032230

  Basis Set: AUG-CC-PVTZ
    Blend: AUG-CC-PVTZ
  Basis Set: (AUG-CC-PVTZ AUX)
    Blend: AUG-CC-PVTZ-JKFIT
	 Reference Energy          =    -456.5634119301426495 [Eh]
	 Singles Energy            =      -0.0000000000000000 [Eh]
	 Same-Spin Energy          =      -0.4537936637305928 [Eh]
	 Opposite-Spin Energy      =      -1.4191650991306433 [Eh]
	 Correlation Energy        =      -1.8729587628612361 [Eh]
	 Total Energy              =    -458.4363706930038802 [Eh]

	 ================> DF-SCS-MP2 Energies <==================
	-----------------------------------------------------------
	 SCS Same-Spin Scale       =       0.3333333333333333 [-]
	 SCS Opposite-Spin Scale   =       1.2000000000000000 [-]
	 SCS Same-Spin Energy      =      -0.1512645545768642 [Eh]
	 SCS Opposite-Spin Energy  =      -1.7029981189567718 [Eh]
	 SCS Correlation Energy    =      -1.8542626735336361 [Eh]
	 SCS Total Energy          =    -458.4176746036762893 [Eh]
	-----------------------------------------------------------

  Dipole Moment: [D]
     X:     0.3531      Y:    -1.1511      Z:     0.0626     Total:     1.2056

*** Psi4 exiting successfully. Buy a developer a beer!
