                               Psi4 1.3.2 release

  ==> Input File <==

--------------------------------------------------------------------------
#psi4
#
memory 32 gb

molecule  {
0 1
  O       -1.6636540     1.3623100    -0.0826750
  O        3.2950020     0.8732560    -0.0394660
  O        2.7087978    -1.2878016     0.0820887
  C       -2.5713650    -0.8630400     0.0337620
  C       -1.4513780     0.1516300    -0.0098980
  C       -3.9526870    -0.2300600    -0.0211700
  C       -0.0615660    -0.3898680     0.0323710
  C        1.0184204     0.4792566    -0.0102773
  C        2.3702780    -0.1170190     0.0219370
  H       -2.4419680    -1.4628000     0.9443570
  H       -2.4189490    -1.5634100    -0.8003330
  H       -4.1001540     0.4487780     0.8215890
  H       -4.7285220    -0.9991160     0.0102380
  H       -4.0749460     0.3516660    -0.9371360
  H        0.0882100    -1.4658090     0.0960520
  H        0.8681440     1.5076730    -0.0687300
  H        4.1643390     0.4215720    -0.0233140
units angstrom
no_reorient  #important for SAPT in psi4, default
symmetry c1  #important for SAPT in psi4, default
}

set PROPERTIES_ORIGIN ["COM"]
properties('MP2/aug-cc-pvtz', properties = ['dipole'])
--------------------------------------------------------------------------

    Molecular point group: c1
  Charge       = 0
  Multiplicity = 1
  Basis Set: AUG-CC-PVTZ
    Blend: AUG-CC-PVTZ
  Basis Set: (AUG-CC-PVTZ AUX)
    Blend: AUG-CC-PVTZ-JKFIT

    Orbital Energies [Eh]
    ---------------------

    Doubly Occupied:

       1A    -20.622081     2A    -20.562073     3A    -20.560853
       4A    -11.405240     5A    -11.351090     6A    -11.285888
       7A    -11.281244     8A    -11.253448     9A    -11.225933
      10A     -1.471378    11A     -1.391927    12A     -1.363553
      13A     -1.104319    14A     -1.066030    15A     -0.960059
      16A     -0.885623    17A     -0.799544    18A     -0.754189
      19A     -0.717538    20A     -0.711300    21A     -0.658299
      22A     -0.643773    23A     -0.642001    24A     -0.638231
      25A     -0.603392    26A     -0.582190    27A     -0.540368
      28A     -0.539347    29A     -0.525268    30A     -0.500299
      31A     -0.494570    32A     -0.471924    33A     -0.436415
      34A     -0.397718

  @DF-RHF Final Energy:  -456.62174490988917

   => Energetics <=

    Nuclear Repulsion Energy =            412.7468899721885691
    One-Electron Energy =               -1441.8430656385035036
    Two-Electron Energy =                 572.4744307564258179
    Total Energy =                       -456.6217449098892303
  Basis Set: (AUG-CC-PVTZ AUX)
    Blend: AUG-CC-PVTZ-RI
    Molecular point group: c1

    Geometry (in Angstrom), charge = 0, multiplicity = 1:

       Center              X                  Y                   Z               Mass
    ------------   -----------------  -----------------  -----------------  -----------------
         O           -1.670666295423     1.356475037481    -0.082386986139    15.994914619570
         O            3.287989704577     0.867421037481    -0.039177986139    15.994914619570
         O            2.701785504577    -1.293636562519     0.082376713861    15.994914619570
         C           -2.578377295423    -0.868874962519     0.034050013861    12.000000000000
         C           -1.458390295423     0.145795037481    -0.009609986139    12.000000000000
         C           -3.959699295423    -0.235894962519    -0.020881986139    12.000000000000
         C           -0.068578295423    -0.395702962519     0.032659013861    12.000000000000
         C            1.011408104577     0.473421637481    -0.009989286139    12.000000000000
         C            2.363265704577    -0.122853962519     0.022225013861    12.000000000000
         H           -2.448980295423    -1.468634962519     0.944645013861     1.007825032230
         H           -2.425961295423    -1.569244962519    -0.800044986139     1.007825032230
         H           -4.107166295423     0.442943037481     0.821877013861     1.007825032230
         H           -4.735534295423    -1.004950962519     0.010526013861     1.007825032230
         H           -4.081958295423     0.345831037481    -0.936847986139     1.007825032230
         H            0.081197704577    -1.471643962519     0.096340013861     1.007825032230
         H            0.861131704577     1.501838037481    -0.068441986139     1.007825032230
         H            4.157326704577     0.415737037481    -0.023025986139     1.007825032230

  Basis Set: AUG-CC-PVTZ
    Blend: AUG-CC-PVTZ
  Basis Set: (AUG-CC-PVTZ AUX)
    Blend: AUG-CC-PVTZ-JKFIT
	 Reference Energy          =    -456.6217449098891734 [Eh]
	 Singles Energy            =      -0.0000000000000000 [Eh]
	 Same-Spin Energy          =      -0.4487880672733864 [Eh]
	 Opposite-Spin Energy      =      -1.4103315766602575 [Eh]
	 Correlation Energy        =      -1.8591196439336439 [Eh]
	 Total Energy              =    -458.4808645538228120 [Eh]

	 ================> DF-SCS-MP2 Energies <==================
	-----------------------------------------------------------
	 SCS Same-Spin Scale       =       0.3333333333333333 [-]
	 SCS Opposite-Spin Scale   =       1.2000000000000000 [-]
	 SCS Same-Spin Energy      =      -0.1495960224244621 [Eh]
	 SCS Opposite-Spin Energy  =      -1.6923978919923091 [Eh]
	 SCS Correlation Energy    =      -1.8419939144167712 [Eh]
	 SCS Total Energy          =    -458.4637388243059490 [Eh]
	-----------------------------------------------------------

  Dipole Moment: [D]
     X:    -0.3477      Y:    -1.1913      Z:     0.0618     Total:     1.2425

*** Psi4 exiting successfully. Buy a developer a beer!
