                               Psi4 1.3.2 release

  ==> Input File <==

--------------------------------------------------------------------------
#psi4
#
memory 32 gb

molecule  {
0 1
  O       -1.7058519     1.3541581    -0.0825124
  O        3.2950020     0.8732560    -0.0394660
  O        2.6676780    -1.2988900     0.0825990
  C       -2.5713650    -0.8630400     0.0337620
  C       -1.4513780     0.1516300    -0.0098980
  C       -3.9526870    -0.2300600    -0.0211700
  C       -0.0813641    -0.4379679     0.0350505
  C        0.9984040     0.4317740    -0.0078830
  C        2.3702780    -0.1170190     0.0219370
  H       -2.4419680    -1.4628000     0.9443570
  H       -2.4189490    -1.5634100    -0.8003330
  H       -4.1001540     0.4487780     0.8215890
  H       -4.7285220    -0.9991160     0.0102380
  H       -4.0749460     0.3516660    -0.9371360
  H        0.0882100    -1.4658090     0.0960520
  H        0.8681440     1.5076730    -0.0687300
  H        4.1643390     0.4215720    -0.0233140
units angstrom
no_reorient  #important for SAPT in psi4, default
symmetry c1  #important for SAPT in psi4, default
}

set PROPERTIES_ORIGIN ["COM"]
properties('MP2/aug-cc-pvtz', properties = ['dipole'])
--------------------------------------------------------------------------

    Molecular point group: c1
  Charge       = 0
  Multiplicity = 1
  Basis Set: AUG-CC-PVTZ
    Blend: AUG-CC-PVTZ
  Basis Set: (AUG-CC-PVTZ AUX)
    Blend: AUG-CC-PVTZ-JKFIT

    Orbital Energies [Eh]
    ---------------------

    Doubly Occupied:

       1A    -20.628719     2A    -20.562761     3A    -20.560692
       4A    -11.406669     5A    -11.350316     6A    -11.286043
       7A    -11.281740     8A    -11.248720     9A    -11.222677
      10A     -1.473484    11A     -1.389883    12A     -1.368832
      13A     -1.105176    14A     -1.062037    15A     -0.960502
      16A     -0.885254    17A     -0.797517    18A     -0.756237
      19A     -0.717501    20A     -0.714593    21A     -0.659472
      22A     -0.643835    23A     -0.640136    24A     -0.638501
      25A     -0.606749    26A     -0.582972    27A     -0.538063
      28A     -0.535499    29A     -0.522138    30A     -0.500443
      31A     -0.495702    32A     -0.472685    33A     -0.433820
      34A     -0.397905

  @DF-RHF Final Energy:  -456.62137302471950

   => Energetics <=

    Nuclear Repulsion Energy =            412.8719444371649843
    One-Electron Energy =               -1442.0920864996796809
    Two-Electron Energy =                 572.5987690377951367
    Total Energy =                       -456.6213730247195599
  Basis Set: (AUG-CC-PVTZ AUX)
    Blend: AUG-CC-PVTZ-RI
    Molecular point group: c1

    Geometry (in Angstrom), charge = 0, multiplicity = 1:

       Center              X                  Y                   Z               Mass
    ------------   -----------------  -----------------  -----------------  -----------------
         O           -1.698725413316     1.359684067814    -0.082783933692    15.994914619570
         O            3.302128486684     0.878781967814    -0.039737533692    15.994914619570
         O            2.674804486684    -1.293364032186     0.082327466308    15.994914619570
         C           -2.564238513316    -0.857514032186     0.033490466308    12.000000000000
         C           -1.444251513316     0.157155967814    -0.010169533692    12.000000000000
         C           -3.945560513316    -0.224534032186    -0.021441533692    12.000000000000
         C           -0.074237613316    -0.432441932186     0.034778966308    12.000000000000
         C            1.005530486684     0.437299967814    -0.008154533692    12.000000000000
         C            2.377404486684    -0.111493032186     0.021665466308    12.000000000000
         H           -2.434841513316    -1.457274032186     0.944085466308     1.007825032230
         H           -2.411822513316    -1.557884032186    -0.800604533692     1.007825032230
         H           -4.093027513316     0.454303967814     0.821317466308     1.007825032230
         H           -4.721395513316    -0.993590032186     0.009966466308     1.007825032230
         H           -4.067819513316     0.357191967814    -0.937407533692     1.007825032230
         H            0.095336486684    -1.460283032186     0.095780466308     1.007825032230
         H            0.875270486684     1.513198967814    -0.069001533692     1.007825032230
         H            4.171465486684     0.427097967814    -0.023585533692     1.007825032230

  Basis Set: AUG-CC-PVTZ
    Blend: AUG-CC-PVTZ
  Basis Set: (AUG-CC-PVTZ AUX)
    Blend: AUG-CC-PVTZ-JKFIT
	 Reference Energy          =    -456.6213730247195031 [Eh]
	 Singles Energy            =      -0.0000000000000000 [Eh]
	 Same-Spin Energy          =      -0.4489327847549190 [Eh]
	 Opposite-Spin Energy      =      -1.4105898077684484 [Eh]
	 Correlation Energy        =      -1.8595225925233674 [Eh]
	 Total Energy              =    -458.4808956172428793 [Eh]

	 ================> DF-SCS-MP2 Energies <==================
	-----------------------------------------------------------
	 SCS Same-Spin Scale       =       0.3333333333333333 [-]
	 SCS Opposite-Spin Scale   =       1.2000000000000000 [-]
	 SCS Same-Spin Energy      =      -0.1496442615849730 [Eh]
	 SCS Opposite-Spin Energy  =      -1.6927077693221382 [Eh]
	 SCS Correlation Energy    =      -1.8423520309071111 [Eh]
	 SCS Total Energy          =    -458.4637250556266395 [Eh]
	-----------------------------------------------------------

  Dipole Moment: [D]
     X:     0.0371      Y:    -1.1578      Z:     0.0619     Total:     1.1600

*** Psi4 exiting successfully. Buy a developer a beer!
