                               Psi4 1.4a3.dev225

  ==> Input File <==

--------------------------------------------------------------------------
#psi4
#
memory 32 gb

molecule  {
0 1
  O       -1.5457390    -1.4151030    -0.0000120
  O        3.4055420    -0.8324430     0.0000000
  O        2.7346890     1.3362110     0.0000030
  C       -2.4962220     0.7973420     0.0000070
  C       -1.3569730    -0.1975560    -0.0000120
  C       -3.8659970     0.1363490     0.0000100
  C        0.0231420     0.3709680    -0.0000240
  C        1.1002740    -0.4324720     0.0000170
  C        2.4625110     0.1452670     0.0000070
  H       -2.3684100     1.4519690    -0.8733630
  H       -2.3683970     1.4519470     0.8733920
  H       -3.9887950    -0.4970190    -0.8807080
  H       -4.6559460     0.8916380     0.0000190
  H       -3.9887860    -0.4970320     0.8807180
  H        0.1589340     1.4510060    -0.0000590
  H        0.9842021    -1.5323876     0.0000526
  H        4.2687480    -0.3687180    -0.0000090
units angstrom
no_reorient  #important for SAPT in psi4, default
symmetry c1  #important for SAPT in psi4, default
}

set PROPERTIES_ORIGIN ["COM"]
properties('MP2/aug-cc-pvtz', properties = ['dipole'])
--------------------------------------------------------------------------

    Molecular point group: c1
  Charge       = 0
  Multiplicity = 1
  Basis Set: AUG-CC-PVTZ
    Blend: AUG-CC-PVTZ
  Basis Set: (AUG-CC-PVTZ AUX)
    Blend: AUG-CC-PVTZ-JKFIT

    Orbital Energies [Eh]
    ---------------------

    Doubly Occupied:

       1A    -20.627888     2A    -20.562041     3A    -20.560757
       4A    -11.406518     5A    -11.350356     6A    -11.278688
       7A    -11.276077     8A    -11.252656     9A    -11.225164
      10A     -1.471043    11A     -1.390111    12A     -1.367369
      13A     -1.107739    14A     -1.065290    15A     -0.956553
      16A     -0.887437    17A     -0.798501    18A     -0.744446
      19A     -0.717995    20A     -0.712476    21A     -0.661215
      22A     -0.643490    23A     -0.639258    24A     -0.638678
      25A     -0.606462    26A     -0.567913    27A     -0.539903
      28A     -0.539230    29A     -0.524409    30A     -0.500949
      31A     -0.496088    32A     -0.471176    33A     -0.435504
      34A     -0.403663

  @DF-RHF Final Energy:  -456.62708546885870

   => Energetics <=

    Nuclear Repulsion Energy =            413.0649595784793178
    One-Electron Energy =               -1442.5300052657005381
    Two-Electron Energy =                 572.8379602183624684
    Total Energy =                       -456.6270854688586951
  Basis Set: (AUG-CC-PVTZ AUX)
    Blend: AUG-CC-PVTZ-RI
    Molecular point group: c1

    Geometry (in Angstrom), charge = 0, multiplicity = 1:

       Center              X                  Y                   Z               Mass
    ------------   -----------------  -----------------  -----------------  -----------------
         O           -1.638183729612    -1.396608697570    -0.000011679643    15.994914619570
         O            3.313097270388    -0.813948697570     0.000000320357    15.994914619570
         O            2.642244270388     1.354705302430     0.000003320357    15.994914619570
         C           -2.588666729612     0.815836302430     0.000007320357    12.000000000000
         C           -1.449417729612    -0.179061697570    -0.000011679643    12.000000000000
         C           -3.958441729612     0.154843302430     0.000010320357    12.000000000000
         C           -0.069302729612     0.389462302430    -0.000023679643    12.000000000000
         C            1.007829270388    -0.413977697570     0.000017320357    12.000000000000
         C            2.370066270388     0.163761302430     0.000007320357    12.000000000000
         H           -2.460854729612     1.470463302430    -0.873362679643     1.007825032230
         H           -2.460841729612     1.470441302430     0.873392320357     1.007825032230
         H           -4.081239729612    -0.478524697570    -0.880707679643     1.007825032230
         H           -4.748390729612     0.910132302430     0.000019320357     1.007825032230
         H           -4.081230729612    -0.478537697570     0.880718320357     1.007825032230
         H            0.066489270388     1.469500302430    -0.000058679643     1.007825032230
         H            0.891757370388    -1.513893297570     0.000052920357     1.007825032230
         H            4.176303270388    -0.350223697570    -0.000008679643     1.007825032230

  Basis Set: AUG-CC-PVTZ
    Blend: AUG-CC-PVTZ
  Basis Set: (AUG-CC-PVTZ AUX)
    Blend: AUG-CC-PVTZ-JKFIT
	 Reference Energy          =    -456.6270854688586951 [Eh]
	 Singles Energy            =      -0.0000000000000000 [Eh]
	 Same-Spin Energy          =      -0.4484396852962534 [Eh]
	 Opposite-Spin Energy      =      -1.4095695911583821 [Eh]
	 Correlation Energy        =      -1.8580092764546356 [Eh]
	 Total Energy              =    -458.4850947453133472 [Eh]

	 ================> DF-SCS-MP2 Energies <==================
	-----------------------------------------------------------
	 SCS Same-Spin Scale       =       0.3333333333333333 [-]
	 SCS Opposite-Spin Scale   =       1.2000000000000000 [-]
	 SCS Same-Spin Energy      =      -0.1494798950987511 [Eh]
	 SCS Opposite-Spin Energy  =      -1.6914835093900584 [Eh]
	 SCS Correlation Energy    =      -1.8409634044888095 [Eh]
	 SCS Total Energy          =    -458.4680488733475272 [Eh]
	-----------------------------------------------------------

  Dipole Moment: [D]
     X:    -0.1838      Y:     1.1738      Z:     0.0000     Total:     1.1881

*** Psi4 exiting successfully. Buy a developer a beer!
