                               Psi4 1.4a3.dev225

  ==> Input File <==

--------------------------------------------------------------------------
#psi4
#
memory 32 gb

molecule  {
0 1
  O       -1.5457390    -1.4151030    -0.0000120
  O        3.4055420    -0.8324430     0.0000000
  O        2.7346890     1.3362110     0.0000030
  C       -2.4962220     0.7973420     0.0000070
  C       -1.3569730    -0.1975560    -0.0000120
  C       -3.8659970     0.1363490     0.0000100
  C        0.0046496     0.3633502    -0.0000238
  C        1.1002740    -0.4324720     0.0000170
  C        2.4625110     0.1452670     0.0000070
  H       -2.3684100     1.4519690    -0.8733630
  H       -2.3683970     1.4519470     0.8733920
  H       -3.9887950    -0.4970190    -0.8807080
  H       -4.6559460     0.8916380     0.0000190
  H       -3.9887860    -0.4970320     0.8807180
  H        0.1589340     1.4510060    -0.0000590
  H        0.9863010    -1.5124980     0.0000520
  H        4.2687480    -0.3687180    -0.0000090
units angstrom
no_reorient  #important for SAPT in psi4, default
symmetry c1  #important for SAPT in psi4, default
}

set PROPERTIES_ORIGIN ["COM"]
properties('MP2/aug-cc-pvtz', properties = ['dipole'])
--------------------------------------------------------------------------

    Molecular point group: c1
  Charge       = 0
  Multiplicity = 1
  Basis Set: AUG-CC-PVTZ
    Blend: AUG-CC-PVTZ
  Basis Set: (AUG-CC-PVTZ AUX)
    Blend: AUG-CC-PVTZ-JKFIT

    Orbital Energies [Eh]
    ---------------------

    Doubly Occupied:

       1A    -20.628625     2A    -20.562839     3A    -20.560287
       4A    -11.407425     5A    -11.348868     6A    -11.279272
       7A    -11.277001     8A    -11.252228     9A    -11.224888
      10A     -1.471742    11A     -1.390324    12A     -1.368014
      13A     -1.107670    14A     -1.065018    15A     -0.959797
      16A     -0.887263    17A     -0.800845    18A     -0.745640
      19A     -0.718473    20A     -0.712615    21A     -0.662916
      22A     -0.643794    23A     -0.640432    24A     -0.638944
      25A     -0.606156    26A     -0.567756    27A     -0.540400
      28A     -0.538450    29A     -0.524389    30A     -0.501030
      31A     -0.496258    32A     -0.472193    33A     -0.436667
      34A     -0.401473

  @DF-RHF Final Energy:  -456.62641666074228

   => Energetics <=

    Nuclear Repulsion Energy =            413.2220008338263142
    One-Electron Energy =               -1442.8174549736700101
    Two-Electron Energy =                 572.9690374791014165
    Total Energy =                       -456.6264166607422794
  Basis Set: (AUG-CC-PVTZ AUX)
    Blend: AUG-CC-PVTZ-RI
    Molecular point group: c1

    Geometry (in Angstrom), charge = 0, multiplicity = 1:

       Center              X                  Y                   Z               Mass
    ------------   -----------------  -----------------  -----------------  -----------------
         O           -1.636467227973    -1.396051338386    -0.000011693663    15.994914619570
         O            3.314813772027    -0.813391338386     0.000000306337    15.994914619570
         O            2.643960772027     1.355262661614     0.000003306337    15.994914619570
         C           -2.586950227973     0.816393661614     0.000007306337    12.000000000000
         C           -1.447701227973    -0.178504338386    -0.000011693663    12.000000000000
         C           -3.956725227973     0.155400661614     0.000010306337    12.000000000000
         C           -0.086078627973     0.382401861614    -0.000023493663    12.000000000000
         C            1.009545772027    -0.413420338386     0.000017306337    12.000000000000
         C            2.371782772027     0.164318661614     0.000007306337    12.000000000000
         H           -2.459138227973     1.471020661614    -0.873362693663     1.007825032230
         H           -2.459125227973     1.470998661614     0.873392306337     1.007825032230
         H           -4.079523227973    -0.477967338386    -0.880707693663     1.007825032230
         H           -4.746674227973     0.910689661614     0.000019306337     1.007825032230
         H           -4.079514227973    -0.477980338386     0.880718306337     1.007825032230
         H            0.068205772027     1.470057661614    -0.000058693663     1.007825032230
         H            0.895572772027    -1.493446338386     0.000052306337     1.007825032230
         H            4.178019772027    -0.349666338386    -0.000008693663     1.007825032230

  Basis Set: AUG-CC-PVTZ
    Blend: AUG-CC-PVTZ
  Basis Set: (AUG-CC-PVTZ AUX)
    Blend: AUG-CC-PVTZ-JKFIT
	 Reference Energy          =    -456.6264166607422794 [Eh]
	 Singles Energy            =      -0.0000000000000000 [Eh]
	 Same-Spin Energy          =      -0.4486898533455292 [Eh]
	 Opposite-Spin Energy      =      -1.4099890216861699 [Eh]
	 Correlation Energy        =      -1.8586788750316992 [Eh]
	 Total Energy              =    -458.4850955357739508 [Eh]

	 ================> DF-SCS-MP2 Energies <==================
	-----------------------------------------------------------
	 SCS Same-Spin Scale       =       0.3333333333333333 [-]
	 SCS Opposite-Spin Scale   =       1.2000000000000000 [-]
	 SCS Same-Spin Energy      =      -0.1495632844485097 [Eh]
	 SCS Opposite-Spin Energy  =      -1.6919868260234039 [Eh]
	 SCS Correlation Energy    =      -1.8415501104719136 [Eh]
	 SCS Total Energy          =    -458.4679667712142077 [Eh]
	-----------------------------------------------------------

  Dipole Moment: [D]
     X:    -0.1313      Y:     1.1781      Z:     0.0000     Total:     1.1854

*** Psi4 exiting successfully. Buy a developer a beer!
