                               Psi4 1.3.2 release

  ==> Input File <==

--------------------------------------------------------------------------
#psi4
#
memory 32 gb

molecule  {
0 1
  O       -1.6636540     1.3623100    -0.0826750
  O        3.2950020     0.8732560    -0.0394660
  O        2.6676780    -1.2988900     0.0825990
  C       -2.5713650    -0.8630400     0.0337620
  C       -1.4513780     0.1516300    -0.0098980
  C       -3.9526870    -0.2300600    -0.0211700
  C       -0.0615660    -0.3898680     0.0323710
  C        0.9984040     0.4317740    -0.0078830
  C        2.3702780    -0.1170190     0.0219370
  H       -2.4419680    -1.4628000     0.9443570
  H       -2.4189490    -1.5634100    -0.8003330
  H       -4.1001540     0.4487780     0.8215890
  H       -4.7285220    -0.9991160     0.0102380
  H       -4.0749460     0.3516660    -0.9371360
  H        0.1157378    -1.6635594     0.1077561
  H        0.8681440     1.5076730    -0.0687300
  H        4.1643390     0.4215720    -0.0233140
units angstrom
no_reorient  #important for SAPT in psi4, default
symmetry c1  #important for SAPT in psi4, default
}

set PROPERTIES_ORIGIN ["COM"]
properties('MP2/aug-cc-pvtz', properties = ['dipole'])
--------------------------------------------------------------------------

    Molecular point group: c1
  Charge       = 0
  Multiplicity = 1
  Basis Set: AUG-CC-PVTZ
    Blend: AUG-CC-PVTZ
  Basis Set: (AUG-CC-PVTZ AUX)
    Blend: AUG-CC-PVTZ-JKFIT

    Orbital Energies [Eh]
    ---------------------

    Doubly Occupied:

       1A    -20.627667     2A    -20.562072     3A    -20.561022
       4A    -11.405481     5A    -11.351882     6A    -11.295027
       7A    -11.276991     8A    -11.251909     9A    -11.224771
      10A     -1.472166    11A     -1.391878    12A     -1.367270
      13A     -1.104638    14A     -1.065365    15A     -0.954603
      16A     -0.886416    17A     -0.798505    18A     -0.730843
      19A     -0.718657    20A     -0.704520    21A     -0.660733
      22A     -0.643747    23A     -0.640451    24A     -0.638864
      25A     -0.604345    26A     -0.547628    27A     -0.540587
      28A     -0.534159    29A     -0.523976    30A     -0.500722
      31A     -0.496006    32A     -0.471150    33A     -0.435134
      34A     -0.404932

  @DF-RHF Final Energy:  -456.60580541719253

   => Energetics <=

    Nuclear Repulsion Energy =            412.6113876893384713
    One-Electron Energy =               -1441.6461545541249052
    Two-Electron Energy =                 572.4289614475939061
    Total Energy =                       -456.6058054171925278
  Basis Set: (AUG-CC-PVTZ AUX)
    Blend: AUG-CC-PVTZ-RI
    Molecular point group: c1

    Geometry (in Angstrom), charge = 0, multiplicity = 1:

       Center              X                  Y                   Z               Mass
    ------------   -----------------  -----------------  -----------------  -----------------
         O           -1.663870673926     1.363866420888    -0.082767232135    15.994914619570
         O            3.294785326074     0.874812420888    -0.039558232135    15.994914619570
         O            2.667461326074    -1.297333579112     0.082506767865    15.994914619570
         C           -2.571581673926    -0.861483579112     0.033669767865    12.000000000000
         C           -1.451594673926     0.153186420888    -0.009990232135    12.000000000000
         C           -3.952903673926    -0.228503579112    -0.021262232135    12.000000000000
         C           -0.061782673926    -0.388311579112     0.032278767865    12.000000000000
         C            0.998187326074     0.433330420888    -0.007975232135    12.000000000000
         C            2.370061326074    -0.115462579112     0.021844767865    12.000000000000
         H           -2.442184673926    -1.461243579112     0.944264767865     1.007825032230
         H           -2.419165673926    -1.561853579112    -0.800425232135     1.007825032230
         H           -4.100370673926     0.450334420888     0.821496767865     1.007825032230
         H           -4.728738673926    -0.997559579112     0.010145767865     1.007825032230
         H           -4.075162673926     0.353222420888    -0.937228232135     1.007825032230
         H            0.115521126074    -1.662002979112     0.107663867865     1.007825032230
         H            0.867927326074     1.509229420888    -0.068822232135     1.007825032230
         H            4.164122326074     0.423128420888    -0.023406232135     1.007825032230

  Basis Set: AUG-CC-PVTZ
    Blend: AUG-CC-PVTZ
  Basis Set: (AUG-CC-PVTZ AUX)
    Blend: AUG-CC-PVTZ-JKFIT
	 Reference Energy          =    -456.6058054171925278 [Eh]
	 Singles Energy            =      -0.0000000000000000 [Eh]
	 Same-Spin Energy          =      -0.4490639176001454 [Eh]
	 Opposite-Spin Energy      =      -1.4114138592427423 [Eh]
	 Correlation Energy        =      -1.8604777768428877 [Eh]
	 Total Energy              =    -458.4662831940354408 [Eh]

	 ================> DF-SCS-MP2 Energies <==================
	-----------------------------------------------------------
	 SCS Same-Spin Scale       =       0.3333333333333333 [-]
	 SCS Opposite-Spin Scale   =       1.2000000000000000 [-]
	 SCS Same-Spin Energy      =      -0.1496879725333818 [Eh]
	 SCS Opposite-Spin Energy  =      -1.6936966310912906 [Eh]
	 SCS Correlation Energy    =      -1.8433846036246724 [Eh]
	 SCS Total Energy          =    -458.4491900208171842 [Eh]
	-----------------------------------------------------------

  Dipole Moment: [D]
     X:    -0.1630      Y:    -1.1713      Z:     0.0609     Total:     1.1842

*** Psi4 exiting successfully. Buy a developer a beer!
