                               Psi4 1.3.2 release

  ==> Input File <==

--------------------------------------------------------------------------
#psi4
#
memory 32 gb

molecule  {
0 1
  O       -1.6636540     1.3623100    -0.0826750
  O        3.2950020     0.8732560    -0.0394660
  O        2.6676780    -1.2988900     0.0825990
  C       -2.5713650    -0.8630400     0.0337620
  C       -1.4513780     0.1516300    -0.0098980
  C       -3.9526870    -0.2300600    -0.0211700
  C       -0.0615660    -0.3898680     0.0323710
  C        0.9984040     0.4317740    -0.0078830
  C        2.3946506    -0.2138759     0.0269084
  H       -2.4419680    -1.4628000     0.9443570
  H       -2.4189490    -1.5634100    -0.8003330
  H       -4.1001540     0.4487780     0.8215890
  H       -4.7285220    -0.9991160     0.0102380
  H       -4.0749460     0.3516660    -0.9371360
  H        0.0882100    -1.4658090     0.0960520
  H        0.8681440     1.5076730    -0.0687300
  H        4.1643390     0.4215720    -0.0233140
units angstrom
no_reorient  #important for SAPT in psi4, default
symmetry c1  #important for SAPT in psi4, default
}

set PROPERTIES_ORIGIN ["COM"]
properties('MP2/aug-cc-pvtz', properties = ['dipole'])
--------------------------------------------------------------------------

    Molecular point group: c1
  Charge       = 0
  Multiplicity = 1
  Basis Set: AUG-CC-PVTZ
    Blend: AUG-CC-PVTZ
  Basis Set: (AUG-CC-PVTZ AUX)
    Blend: AUG-CC-PVTZ-JKFIT

    Orbital Energies [Eh]
    ---------------------

    Doubly Occupied:

       1A    -20.611695     2A    -20.581600     3A    -20.556187
       4A    -11.399881     5A    -11.346107     6A    -11.276074
       7A    -11.267793     8A    -11.250029     9A    -11.223307
      10A     -1.506802    11A     -1.388194    12A     -1.386563
      13A     -1.101380    14A     -1.061740    15A     -0.943468
      16A     -0.874828    17A     -0.786549    18A     -0.748418
      19A     -0.725077    20A     -0.715872    21A     -0.668019
      22A     -0.654366    23A     -0.638953    24A     -0.636231
      25A     -0.610412    26A     -0.574186    27A     -0.537564
      28A     -0.537023    29A     -0.522430    30A     -0.518909
      31A     -0.496336    32A     -0.474063    33A     -0.430153
      34A     -0.402791

  @DF-RHF Final Energy:  -456.61655921074248

   => Energetics <=

    Nuclear Repulsion Energy =            413.8224977994520941
    One-Electron Energy =               -1443.9721170742805043
    Two-Electron Energy =                 573.5330600640859302
    Total Energy =                       -456.6165592107424800
  Basis Set: (AUG-CC-PVTZ AUX)
    Blend: AUG-CC-PVTZ-RI
    Molecular point group: c1

    Geometry (in Angstrom), charge = 0, multiplicity = 1:

       Center              X                  Y                   Z               Mass
    ------------   -----------------  -----------------  -----------------  -----------------
         O           -1.665938096690     1.371386959509    -0.083141008845    15.994914619570
         O            3.292717903310     0.882332959509    -0.039932008845    15.994914619570
         O            2.665393903310    -1.289813040491     0.082132991155    15.994914619570
         C           -2.573649096690    -0.853963040491     0.033295991155    12.000000000000
         C           -1.453662096690     0.160706959509    -0.010364008845    12.000000000000
         C           -3.954971096690    -0.220983040491    -0.021636008845    12.000000000000
         C           -0.063850096690    -0.380791040491     0.031904991155    12.000000000000
         C            0.996119903310     0.440850959509    -0.008349008845    12.000000000000
         C            2.392366503310    -0.204798940491     0.026442391155    12.000000000000
         H           -2.444252096690    -1.453723040491     0.943890991155     1.007825032230
         H           -2.421233096690    -1.554333040491    -0.800799008845     1.007825032230
         H           -4.102438096690     0.457854959509     0.821122991155     1.007825032230
         H           -4.730806096690    -0.990039040491     0.009771991155     1.007825032230
         H           -4.077230096690     0.360742959509    -0.937602008845     1.007825032230
         H            0.085925903310    -1.456732040491     0.095585991155     1.007825032230
         H            0.865859903310     1.516749959509    -0.069196008845     1.007825032230
         H            4.162054903310     0.430648959509    -0.023780008845     1.007825032230

  Basis Set: AUG-CC-PVTZ
    Blend: AUG-CC-PVTZ
  Basis Set: (AUG-CC-PVTZ AUX)
    Blend: AUG-CC-PVTZ-JKFIT
	 Reference Energy          =    -456.6165592107424800 [Eh]
	 Singles Energy            =      -0.0000000000000000 [Eh]
	 Same-Spin Energy          =      -0.4464776991076596 [Eh]
	 Opposite-Spin Energy      =      -1.4057814071618924 [Eh]
	 Correlation Energy        =      -1.8522591062695519 [Eh]
	 Total Energy              =    -458.4688183170120510 [Eh]

	 ================> DF-SCS-MP2 Energies <==================
	-----------------------------------------------------------
	 SCS Same-Spin Scale       =       0.3333333333333333 [-]
	 SCS Opposite-Spin Scale   =       1.2000000000000000 [-]
	 SCS Same-Spin Energy      =      -0.1488258997025532 [Eh]
	 SCS Opposite-Spin Energy  =      -1.6869376885942708 [Eh]
	 SCS Correlation Energy    =      -1.8357635882968240 [Eh]
	 SCS Total Energy          =    -458.4523227990392797 [Eh]
	-----------------------------------------------------------

  Dipole Moment: [D]
     X:    -0.0290      Y:    -1.8752      Z:     0.1012     Total:     1.8781

*** Psi4 exiting successfully. Buy a developer a beer!
