                               Psi4 1.3.2 release

  ==> Input File <==

--------------------------------------------------------------------------
#psi4
#
memory 32 gb

molecule  {
0 1
  O       -1.6636540     1.3623100    -0.0826750
  O        3.2950020     0.8732560    -0.0394660
  O        2.6676780    -1.2988900     0.0825990
  C       -2.5713650    -0.8630400     0.0337620
  C       -1.4420654     0.1419857     0.0128297
  C       -3.9526870    -0.2300600    -0.0211700
  C       -0.0615660    -0.3898680     0.0323710
  C        0.9984040     0.4317740    -0.0078830
  C        2.3702780    -0.1170190     0.0219370
  H       -2.4263721    -1.4525433     0.9486947
  H       -2.4189490    -1.5634100    -0.8003330
  H       -4.1001540     0.4487780     0.8215890
  H       -4.7285220    -0.9991160     0.0102380
  H       -4.0749460     0.3516660    -0.9371360
  H        0.0882100    -1.4658090     0.0960520
  H        0.8681440     1.5076730    -0.0687300
  H        4.1643390     0.4215720    -0.0233140
units angstrom
no_reorient  #important for SAPT in psi4, default
symmetry c1  #important for SAPT in psi4, default
}

set PROPERTIES_ORIGIN ["COM"]
properties('MP2/aug-cc-pvtz', properties = ['dipole'])
--------------------------------------------------------------------------

    Molecular point group: c1
  Charge       = 0
  Multiplicity = 1
  Basis Set: AUG-CC-PVTZ
    Blend: AUG-CC-PVTZ
  Basis Set: (AUG-CC-PVTZ AUX)
    Blend: AUG-CC-PVTZ-JKFIT

    Orbital Energies [Eh]
    ---------------------

    Doubly Occupied:

       1A    -20.628324     2A    -20.562302     3A    -20.559170
       4A    -11.406322     5A    -11.350073     6A    -11.278134
       7A    -11.276042     8A    -11.252843     9A    -11.225234
      10A     -1.473009    11A     -1.381871    12A     -1.368315
      13A     -1.110991    14A     -1.065546    15A     -0.959726
      16A     -0.888407    17A     -0.800705    18A     -0.747524
      19A     -0.717182    20A     -0.713714    21A     -0.660943
      22A     -0.644363    23A     -0.639888    24A     -0.638279
      25A     -0.606571    26A     -0.569882    27A     -0.539232
      28A     -0.537760    29A     -0.523674    30A     -0.501130
      31A     -0.494993    32A     -0.472069    33A     -0.435943
      34A     -0.404205

  @DF-RHF Final Energy:  -456.62609309017034

   => Energetics <=

    Nuclear Repulsion Energy =            413.4397301619831069
    One-Electron Energy =               -1443.2629136080281569
    Two-Electron Energy =                 573.1970903558747068
    Total Energy =                       -456.6260930901703432
  Basis Set: (AUG-CC-PVTZ AUX)
    Blend: AUG-CC-PVTZ-RI
    Molecular point group: c1

    Geometry (in Angstrom), charge = 0, multiplicity = 1:

       Center              X                  Y                   Z               Mass
    ------------   -----------------  -----------------  -----------------  -----------------
         O           -1.664649494707     1.363133073680    -0.084839187313    15.994914619570
         O            3.294006505293     0.874079073680    -0.041630187313    15.994914619570
         O            2.666682505293    -1.298066926320     0.080434812687    15.994914619570
         C           -2.572360494707    -0.862216926320     0.031597812687    12.000000000000
         C           -1.443060894707     0.142808773680     0.010665512687    12.000000000000
         C           -3.953682494707    -0.229236926320    -0.023334187313    12.000000000000
         C           -0.062561494707    -0.389044926320     0.030206812687    12.000000000000
         C            0.997408505293     0.432597073680    -0.010047187313    12.000000000000
         C            2.369282505293    -0.116195926320     0.019772812687    12.000000000000
         H           -2.427367594707    -1.451720226320     0.946530512687     1.007825032230
         H           -2.419944494707    -1.562586926320    -0.802497187313     1.007825032230
         H           -4.101149494707     0.449601073680     0.819424812687     1.007825032230
         H           -4.729517494707    -0.998292926320     0.008073812687     1.007825032230
         H           -4.075941494707     0.352489073680    -0.939300187313     1.007825032230
         H            0.087214505293    -1.464985926320     0.093887812687     1.007825032230
         H            0.867148505293     1.508496073680    -0.070894187313     1.007825032230
         H            4.163343505293     0.422395073680    -0.025478187313     1.007825032230

  Basis Set: AUG-CC-PVTZ
    Blend: AUG-CC-PVTZ
  Basis Set: (AUG-CC-PVTZ AUX)
    Blend: AUG-CC-PVTZ-JKFIT
	 Reference Energy          =    -456.6260930901703432 [Eh]
	 Singles Energy            =      -0.0000000000000000 [Eh]
	 Same-Spin Energy          =      -0.4487426227182982 [Eh]
	 Opposite-Spin Energy      =      -1.4100444724750996 [Eh]
	 Correlation Energy        =      -1.8587870951933978 [Eh]
	 Total Energy              =    -458.4848801853637497 [Eh]

	 ================> DF-SCS-MP2 Energies <==================
	-----------------------------------------------------------
	 SCS Same-Spin Scale       =       0.3333333333333333 [-]
	 SCS Opposite-Spin Scale   =       1.2000000000000000 [-]
	 SCS Same-Spin Energy      =      -0.1495808742394327 [Eh]
	 SCS Opposite-Spin Energy  =      -1.6920533669701194 [Eh]
	 SCS Correlation Energy    =      -1.8416342412095521 [Eh]
	 SCS Total Energy          =    -458.4677273313798764 [Eh]
	-----------------------------------------------------------

  Dipole Moment: [D]
     X:    -0.1103      Y:    -1.2084      Z:     0.0758     Total:     1.2158

*** Psi4 exiting successfully. Buy a developer a beer!
