                               Psi4 1.3.2 release

  ==> Input File <==

--------------------------------------------------------------------------
#psi4
#
memory 32 gb

molecule  {
0 1
  O       -1.6636540     1.3623100    -0.0826750
  O        3.2950020     0.8732560    -0.0394660
  O        2.6676780    -1.2988900     0.0825990
  C       -2.5352421    -0.9014366     0.0361634
  C       -1.4513780     0.1516300    -0.0098980
  C       -3.9526870    -0.2300600    -0.0211700
  C       -0.0813616    -0.4379843     0.0347593
  C        0.9984040     0.4317740    -0.0078830
  C        2.3702780    -0.1170190     0.0219370
  H       -2.4419680    -1.4628000     0.9443570
  H       -2.4189490    -1.5634100    -0.8003330
  H       -4.1001540     0.4487780     0.8215890
  H       -4.7285220    -0.9991160     0.0102380
  H       -4.0749460     0.3516660    -0.9371360
  H        0.0882100    -1.4658090     0.0960520
  H        0.8681440     1.5076730    -0.0687300
  H        4.1643390     0.4215720    -0.0233140
units angstrom
no_reorient  #important for SAPT in psi4, default
symmetry c1  #important for SAPT in psi4, default
}

set PROPERTIES_ORIGIN ["COM"]
properties('MP2/aug-cc-pvtz', properties = ['dipole'])
--------------------------------------------------------------------------

    Molecular point group: c1
  Charge       = 0
  Multiplicity = 1
  Basis Set: AUG-CC-PVTZ
    Blend: AUG-CC-PVTZ
  Basis Set: (AUG-CC-PVTZ AUX)
    Blend: AUG-CC-PVTZ-JKFIT

    Orbital Energies [Eh]
    ---------------------

    Doubly Occupied:

       1A    -20.627548     2A    -20.562617     3A    -20.561353
       4A    -11.405177     5A    -11.351138     6A    -11.283614
       7A    -11.278322     8A    -11.248497     9A    -11.225995
      10A     -1.472246    11A     -1.390511    12A     -1.367548
      13A     -1.103906    14A     -1.059107    15A     -0.957595
      16A     -0.885955    17A     -0.798626    18A     -0.755402
      19A     -0.718155    20A     -0.713793    21A     -0.657085
      22A     -0.647231    23A     -0.641059    24A     -0.640343
      25A     -0.604931    26A     -0.581205    27A     -0.538879
      28A     -0.533018    29A     -0.514383    30A     -0.508258
      31A     -0.497654    32A     -0.471091    33A     -0.434791
      34A     -0.395800

  @DF-RHF Final Energy:  -456.61938518494969

   => Energetics <=

    Nuclear Repulsion Energy =            412.7449472979830034
    One-Electron Energy =               -1441.8629970167055490
    Two-Electron Energy =                 572.4986645337727396
    Total Energy =                       -456.6193851849496923
  Basis Set: (AUG-CC-PVTZ AUX)
    Blend: AUG-CC-PVTZ-RI
    Molecular point group: c1

    Geometry (in Angstrom), charge = 0, multiplicity = 1:

       Center              X                  Y                   Z               Mass
    ------------   -----------------  -----------------  -----------------  -----------------
         O           -1.665184128690     1.370417568063    -0.083123980768    15.994914619570
         O            3.293471871310     0.881363568063    -0.039914980768    15.994914619570
         O            2.666147871310    -1.290782431937     0.082150019232    15.994914619570
         C           -2.536772228690    -0.893329031937     0.035714419232    12.000000000000
         C           -1.452908128690     0.159737568063    -0.010346980768    12.000000000000
         C           -3.954217128690    -0.221952431937    -0.021618980768    12.000000000000
         C           -0.082891728690    -0.429876731937     0.034310319232    12.000000000000
         C            0.996873871310     0.439881568063    -0.008331980768    12.000000000000
         C            2.368747871310    -0.108911431937     0.021488019232    12.000000000000
         H           -2.443498128690    -1.454692431937     0.943908019232     1.007825032230
         H           -2.420479128690    -1.555302431937    -0.800781980768     1.007825032230
         H           -4.101684128690     0.456885568063     0.821140019232     1.007825032230
         H           -4.730052128690    -0.991008431937     0.009789019232     1.007825032230
         H           -4.076476128690     0.359773568063    -0.937584980768     1.007825032230
         H            0.086679871310    -1.457701431937     0.095603019232     1.007825032230
         H            0.866613871310     1.515780568063    -0.069178980768     1.007825032230
         H            4.162808871310     0.429679568063    -0.023762980768     1.007825032230

  Basis Set: AUG-CC-PVTZ
    Blend: AUG-CC-PVTZ
  Basis Set: (AUG-CC-PVTZ AUX)
    Blend: AUG-CC-PVTZ-JKFIT
	 Reference Energy          =    -456.6193851849496923 [Eh]
	 Singles Energy            =      -0.0000000000000000 [Eh]
	 Same-Spin Energy          =      -0.4486779087864108 [Eh]
	 Opposite-Spin Energy      =      -1.4104996643643912 [Eh]
	 Correlation Energy        =      -1.8591775731508020 [Eh]
	 Total Energy              =    -458.4785627581005087 [Eh]

	 ================> DF-SCS-MP2 Energies <==================
	-----------------------------------------------------------
	 SCS Same-Spin Scale       =       0.3333333333333333 [-]
	 SCS Opposite-Spin Scale   =       1.2000000000000000 [-]
	 SCS Same-Spin Energy      =      -0.1495593029288036 [Eh]
	 SCS Opposite-Spin Energy  =      -1.6925995972372694 [Eh]
	 SCS Correlation Energy    =      -1.8421589001660730 [Eh]
	 SCS Total Energy          =    -458.4615440851157473 [Eh]
	-----------------------------------------------------------

  Dipole Moment: [D]
     X:    -0.0858      Y:    -1.1742      Z:     0.0620     Total:     1.1789

*** Psi4 exiting successfully. Buy a developer a beer!
