                               Psi4 1.3.2 release

  ==> Input File <==

--------------------------------------------------------------------------
#psi4
#
memory 32 gb

molecule  {
0 1
  O       -1.6636540     1.3623100    -0.0826750
  O        3.2950020     0.8732560    -0.0394660
  O        2.6676780    -1.2988900     0.0825990
  C       -2.5713650    -0.8630400     0.0337620
  C       -1.4513780     0.1516300    -0.0098980
  C       -3.9526870    -0.2300600    -0.0211700
  C       -0.0322111    -0.4263102     0.0342641
  C        0.9984040     0.4317740    -0.0078830
  C        2.3502616    -0.1645021     0.0243215
  H       -2.4419680    -1.4628000     0.9443570
  H       -2.4189490    -1.5634100    -0.8003330
  H       -4.1001540     0.4487780     0.8215890
  H       -4.7285220    -0.9991160     0.0102380
  H       -4.0749460     0.3516660    -0.9371360
  H        0.0882100    -1.4658090     0.0960520
  H        0.8681440     1.5076730    -0.0687300
  H        4.1643390     0.4215720    -0.0233140
units angstrom
no_reorient  #important for SAPT in psi4, default
symmetry c1  #important for SAPT in psi4, default
}

set PROPERTIES_ORIGIN ["COM"]
properties('MP2/aug-cc-pvtz', properties = ['dipole'])
--------------------------------------------------------------------------

    Molecular point group: c1
  Charge       = 0
  Multiplicity = 1
  Basis Set: AUG-CC-PVTZ
    Blend: AUG-CC-PVTZ
  Basis Set: (AUG-CC-PVTZ AUX)
    Blend: AUG-CC-PVTZ-JKFIT

    Orbital Energies [Eh]
    ---------------------

    Doubly Occupied:

       1A    -20.611860     2A    -20.569290     3A    -20.562502
       4A    -11.401219     5A    -11.353358     6A    -11.277140
       7A    -11.275410     8A    -11.253146     9A    -11.225681
      10A     -1.469994    11A     -1.390745    12A     -1.372803
      13A     -1.110282    14A     -1.066317    15A     -0.950652
      16A     -0.882634    17A     -0.785928    18A     -0.755874
      19A     -0.715847    20A     -0.713150    21A     -0.656974
      22A     -0.642849    23A     -0.639714    24A     -0.635097
      25A     -0.609889    26A     -0.585494    27A     -0.540034
      28A     -0.539136    29A     -0.524665    30A     -0.505141
      31A     -0.498764    32A     -0.473127    33A     -0.432480
      34A     -0.407636

  @DF-RHF Final Energy:  -456.62438589712809

   => Energetics <=

    Nuclear Repulsion Energy =            413.3234220492768145
    One-Electron Energy =               -1443.0259562939063471
    Two-Electron Energy =                 573.0781483475014966
    Total Energy =                       -456.6243858971280360
  Basis Set: (AUG-CC-PVTZ AUX)
    Blend: AUG-CC-PVTZ-RI
    Molecular point group: c1

    Geometry (in Angstrom), charge = 0, multiplicity = 1:

       Center              X                  Y                   Z               Mass
    ------------   -----------------  -----------------  -----------------  -----------------
         O           -1.664529170943     1.370175070257    -0.083075989144    15.994914619570
         O            3.294126829057     0.881121070257    -0.039866989144    15.994914619570
         O            2.666802829057    -1.291024929743     0.082198010856    15.994914619570
         C           -2.572240170943    -0.855174929743     0.033361010856    12.000000000000
         C           -1.452253170943     0.159495070257    -0.010298989144    12.000000000000
         C           -3.953562170943    -0.222194929743    -0.021570989144    12.000000000000
         C           -0.033086270943    -0.418445129743     0.033863110856    12.000000000000
         C            0.997528829057     0.439639070257    -0.008283989144    12.000000000000
         C            2.349386429057    -0.156637029743     0.023920510856    12.000000000000
         H           -2.442843170943    -1.454934929743     0.943956010856     1.007825032230
         H           -2.419824170943    -1.555544929743    -0.800733989144     1.007825032230
         H           -4.101029170943     0.456643070257     0.821188010856     1.007825032230
         H           -4.729397170943    -0.991250929743     0.009837010856     1.007825032230
         H           -4.075821170943     0.359531070257    -0.937536989144     1.007825032230
         H            0.087334829057    -1.457943929743     0.095651010856     1.007825032230
         H            0.867268829057     1.515538070257    -0.069130989144     1.007825032230
         H            4.163463829057     0.429437070257    -0.023714989144     1.007825032230

  Basis Set: AUG-CC-PVTZ
    Blend: AUG-CC-PVTZ
  Basis Set: (AUG-CC-PVTZ AUX)
    Blend: AUG-CC-PVTZ-JKFIT
	 Reference Energy          =    -456.6243858971280929 [Eh]
	 Singles Energy            =      -0.0000000000000000 [Eh]
	 Same-Spin Energy          =      -0.4475806673563790 [Eh]
	 Opposite-Spin Energy      =      -1.4081140045564906 [Eh]
	 Correlation Energy        =      -1.8556946719128695 [Eh]
	 Total Energy              =    -458.4800805690409788 [Eh]

	 ================> DF-SCS-MP2 Energies <==================
	-----------------------------------------------------------
	 SCS Same-Spin Scale       =       0.3333333333333333 [-]
	 SCS Opposite-Spin Scale   =       1.2000000000000000 [-]
	 SCS Same-Spin Energy      =      -0.1491935557854597 [Eh]
	 SCS Opposite-Spin Energy  =      -1.6897368054677886 [Eh]
	 SCS Correlation Energy    =      -1.8389303612532482 [Eh]
	 SCS Total Energy          =    -458.4633162583813260 [Eh]
	-----------------------------------------------------------

  Dipole Moment: [D]
     X:    -0.4911      Y:    -1.5586      Z:     0.0828     Total:     1.6363

*** Psi4 exiting successfully. Buy a developer a beer!
