                               Psi4 1.3.2 release

  ==> Input File <==

--------------------------------------------------------------------------
#psi4
#
memory 32 gb

molecule  {
0 1
  O       -1.6636540     1.3623100    -0.0826750
  O        3.2950020     0.8732560    -0.0394660
  O        2.6676780    -1.2988900     0.0825990
  C       -2.5713650    -0.8630400     0.0337620
  C       -1.4513780     0.1516300    -0.0098980
  C       -3.9526870    -0.2300600    -0.0211700
  C       -0.0615660    -0.3898680     0.0323710
  C        0.9984040     0.4317740    -0.0078830
  C        2.3604772    -0.1408391     0.0232960
  H       -2.4419680    -1.4628000     0.9443570
  H       -2.4189490    -1.5634100    -0.8003330
  H       -4.1001540     0.4487780     0.8215890
  H       -4.7285220    -0.9991160     0.0102380
  H       -4.0749460     0.3516660    -0.9371360
  H        0.0882100    -1.4658090     0.0960520
  H        0.8493568     1.5052404    -0.0685746
  H        4.1643390     0.4215720    -0.0233140
units angstrom
no_reorient  #important for SAPT in psi4, default
symmetry c1  #important for SAPT in psi4, default
}

set PROPERTIES_ORIGIN ["COM"]
properties('MP2/aug-cc-pvtz', properties = ['dipole'])
--------------------------------------------------------------------------

    Molecular point group: c1
  Charge       = 0
  Multiplicity = 1
  Basis Set: AUG-CC-PVTZ
    Blend: AUG-CC-PVTZ
  Basis Set: (AUG-CC-PVTZ AUX)
    Blend: AUG-CC-PVTZ-JKFIT

    Orbital Energies [Eh]
    ---------------------

    Doubly Occupied:

       1A    -20.620484     2A    -20.566381     3A    -20.561098
       4A    -11.404731     5A    -11.350252     6A    -11.276958
       7A    -11.275281     8A    -11.252796     9A    -11.225407
      10A     -1.469126    11A     -1.391038    12A     -1.373256
      13A     -1.110139    14A     -1.066056    15A     -0.955859
      16A     -0.885227    17A     -0.794523    18A     -0.748543
      19A     -0.717686    20A     -0.712319    21A     -0.661414
      22A     -0.643247    23A     -0.639928    24A     -0.637098
      25A     -0.609032    26A     -0.572563    27A     -0.540262
      28A     -0.539657    29A     -0.524712    30A     -0.503586
      31A     -0.498080    32A     -0.473777    33A     -0.435603
      34A     -0.405487

  @DF-RHF Final Energy:  -456.62831720839637

   => Energetics <=

    Nuclear Repulsion Energy =            413.5706907208090684
    One-Electron Energy =               -1443.5148016898240257
    Two-Electron Energy =                 573.3157937606184760
    Total Energy =                       -456.6283172083964246
  Basis Set: (AUG-CC-PVTZ AUX)
    Blend: AUG-CC-PVTZ-RI
    Molecular point group: c1

    Geometry (in Angstrom), charge = 0, multiplicity = 1:

       Center              X                  Y                   Z               Mass
    ------------   -----------------  -----------------  -----------------  -----------------
         O           -1.662587656168     1.364561437505    -0.082803694672    15.994914619570
         O            3.296068343832     0.875507437505    -0.039594694672    15.994914619570
         O            2.668744343832    -1.296638562495     0.082470305328    15.994914619570
         C           -2.570298656168    -0.860788562495     0.033633305328    12.000000000000
         C           -1.450311656168     0.153881437505    -0.010026694672    12.000000000000
         C           -3.951620656168    -0.227808562495    -0.021298694672    12.000000000000
         C           -0.060499656168    -0.387616562495     0.032242305328    12.000000000000
         C            0.999470343832     0.434025437505    -0.008011694672    12.000000000000
         C            2.361543543832    -0.138587662495     0.023167305328    12.000000000000
         H           -2.440901656168    -1.460548562495     0.944228305328     1.007825032230
         H           -2.417882656168    -1.561158562495    -0.800461694672     1.007825032230
         H           -4.099087656168     0.451029437505     0.821460305328     1.007825032230
         H           -4.727455656168    -0.996864562495     0.010109305328     1.007825032230
         H           -4.073879656168     0.353917437505    -0.937264694672     1.007825032230
         H            0.089276343832    -1.463557562495     0.095923305328     1.007825032230
         H            0.850423143832     1.507491837505    -0.068703294672     1.007825032230
         H            4.165405343832     0.423823437505    -0.023442694672     1.007825032230

  Basis Set: AUG-CC-PVTZ
    Blend: AUG-CC-PVTZ
  Basis Set: (AUG-CC-PVTZ AUX)
    Blend: AUG-CC-PVTZ-JKFIT
	 Reference Energy          =    -456.6283172083963677 [Eh]
	 Singles Energy            =      -0.0000000000000000 [Eh]
	 Same-Spin Energy          =      -0.4480798966164784 [Eh]
	 Opposite-Spin Energy      =      -1.4087763318879998 [Eh]
	 Correlation Energy        =      -1.8568562285044781 [Eh]
	 Total Energy              =    -458.4851734369008227 [Eh]

	 ================> DF-SCS-MP2 Energies <==================
	-----------------------------------------------------------
	 SCS Same-Spin Scale       =       0.3333333333333333 [-]
	 SCS Opposite-Spin Scale   =       1.2000000000000000 [-]
	 SCS Same-Spin Energy      =      -0.1493599655388261 [Eh]
	 SCS Opposite-Spin Energy  =      -1.6905315982655997 [Eh]
	 SCS Correlation Energy    =      -1.8398915638044260 [Eh]
	 SCS Total Energy          =    -458.4682087722007964 [Eh]
	-----------------------------------------------------------

  Dipole Moment: [D]
     X:    -0.2978      Y:    -1.3707      Z:     0.0725     Total:     1.4045

*** Psi4 exiting successfully. Buy a developer a beer!
