                               Psi4 1.4a3.dev225

  ==> Input File <==

--------------------------------------------------------------------------
#psi4
#
memory 32 gb

molecule  {
0 1
  O       -1.5457390    -1.4151030    -0.0000120
  O        3.4055420    -0.8324430     0.0000000
  O        2.7346890     1.3362110     0.0000030
  C       -2.4962220     0.7973420     0.0000070
  C       -1.3569730    -0.1975560    -0.0000120
  C       -3.8659970     0.1363490     0.0000100
  C        0.0231420     0.3709680    -0.0000240
  C        1.1002740    -0.4324720     0.0000170
  C        2.4513712     0.0965237     0.0000072
  H       -2.3684100     1.4519690    -0.8733630
  H       -2.3683970     1.4519470     0.8733920
  H       -3.9887950    -0.4970190    -0.8807080
  H       -4.6559460     0.8916380     0.0000190
  H       -3.9887860    -0.4970320     0.8807180
  H        0.1589340     1.4510060    -0.0000590
  H        0.9863010    -1.5124980     0.0000520
  H        4.2687480    -0.3687180    -0.0000090
units angstrom
no_reorient  #important for SAPT in psi4, default
symmetry c1  #important for SAPT in psi4, default
}

set PROPERTIES_ORIGIN ["COM"]
properties('MP2/aug-cc-pvtz', properties = ['dipole'])
--------------------------------------------------------------------------

    Molecular point group: c1
  Charge       = 0
  Multiplicity = 1
  Basis Set: AUG-CC-PVTZ
    Blend: AUG-CC-PVTZ
  Basis Set: (AUG-CC-PVTZ AUX)
    Blend: AUG-CC-PVTZ-JKFIT

    Orbital Energies [Eh]
    ---------------------

    Doubly Occupied:

       1A    -20.635022     2A    -20.563180     3A    -20.551649
       4A    -11.408207     5A    -11.352362     6A    -11.280993
       7A    -11.275894     8A    -11.253963     9A    -11.226154
      10A     -1.475661    11A     -1.392268    12A     -1.339380
      13A     -1.112291    14A     -1.067469    15A     -0.964452
      16A     -0.892967    17A     -0.806720    18A     -0.747697
      19A     -0.721885    20A     -0.710399    21A     -0.661675
      22A     -0.645011    23A     -0.643204    24A     -0.640223
      25A     -0.600970    26A     -0.564122    27A     -0.541455
      28A     -0.540350    29A     -0.525528    30A     -0.500468
      31A     -0.484546    32A     -0.464517    33A     -0.437855
      34A     -0.402971

  @DF-RHF Final Energy:  -456.61989244430941

   => Energetics <=

    Nuclear Repulsion Energy =            413.0832311476918903
    One-Electron Energy =               -1442.5432287613148219
    Two-Electron Energy =                 572.8401051693133468
    Total Energy =                       -456.6198924443094711
  Basis Set: (AUG-CC-PVTZ AUX)
    Blend: AUG-CC-PVTZ-RI
    Molecular point group: c1

    Geometry (in Angstrom), charge = 0, multiplicity = 1:

       Center              X                  Y                   Z               Mass
    ------------   -----------------  -----------------  -----------------  -----------------
         O           -1.637156279360    -1.392197248296    -0.000011693663    15.994914619570
         O            3.314124720640    -0.809537248296     0.000000306337    15.994914619570
         O            2.643271720640     1.359116751704     0.000003306337    15.994914619570
         C           -2.587639279360     0.820247751704     0.000007306337    12.000000000000
         C           -1.448390279360    -0.174650248296    -0.000011693663    12.000000000000
         C           -3.957414279360     0.159254751704     0.000010306337    12.000000000000
         C           -0.068275279360     0.393873751704    -0.000023693663    12.000000000000
         C            1.008856720640    -0.409566248296     0.000017306337    12.000000000000
         C            2.359953920640     0.119429451704     0.000007506337    12.000000000000
         H           -2.459827279360     1.474874751704    -0.873362693663     1.007825032230
         H           -2.459814279360     1.474852751704     0.873392306337     1.007825032230
         H           -4.080212279360    -0.474113248296    -0.880707693663     1.007825032230
         H           -4.747363279360     0.914543751704     0.000019306337     1.007825032230
         H           -4.080203279360    -0.474126248296     0.880718306337     1.007825032230
         H            0.067516720640     1.473911751704    -0.000058693663     1.007825032230
         H            0.894883720640    -1.489592248296     0.000052306337     1.007825032230
         H            4.177330720640    -0.345812248296    -0.000008693663     1.007825032230

  Basis Set: AUG-CC-PVTZ
    Blend: AUG-CC-PVTZ
  Basis Set: (AUG-CC-PVTZ AUX)
    Blend: AUG-CC-PVTZ-JKFIT
	 Reference Energy          =    -456.6198924443094143 [Eh]
	 Singles Energy            =      -0.0000000000000000 [Eh]
	 Same-Spin Energy          =      -0.4494417415770099 [Eh]
	 Opposite-Spin Energy      =      -1.4113595209271119 [Eh]
	 Correlation Energy        =      -1.8608012625041219 [Eh]
	 Total Energy              =    -458.4806937068135539 [Eh]

	 ================> DF-SCS-MP2 Energies <==================
	-----------------------------------------------------------
	 SCS Same-Spin Scale       =       0.3333333333333333 [-]
	 SCS Opposite-Spin Scale   =       1.2000000000000000 [-]
	 SCS Same-Spin Energy      =      -0.1498139138590033 [Eh]
	 SCS Opposite-Spin Energy  =      -1.6936314251125342 [Eh]
	 SCS Correlation Energy    =      -1.8434453389715375 [Eh]
	 SCS Total Energy          =    -458.4633377832809629 [Eh]
	-----------------------------------------------------------

  Dipole Moment: [D]
     X:    -0.2319      Y:     0.8706      Z:     0.0000     Total:     0.9010

*** Psi4 exiting successfully. Buy a developer a beer!
