                               Psi4 1.4a3.dev225

  ==> Input File <==

--------------------------------------------------------------------------
#psi4
#
memory 32 gb

molecule  {
0 1
  O       -1.5457390    -1.4151030    -0.0000120
  O        3.4055420    -0.8324430     0.0000000
  O        2.7346890     1.3362110     0.0000030
  C       -2.4962220     0.7973420     0.0000070
  C       -1.3569730    -0.1975560    -0.0000120
  C       -3.8659970     0.1363490     0.0000100
  C        0.0231420     0.3709680    -0.0000240
  C        1.1002740    -0.4324720     0.0000170
  C        2.4763955     0.1308719     0.0000069
  H       -2.3684100     1.4519690    -0.8733630
  H       -2.3683970     1.4519470     0.8733920
  H       -3.9887950    -0.4970190    -0.8807080
  H       -4.6559460     0.8916380     0.0000190
  H       -3.9887860    -0.4970320     0.8807180
  H        0.1589340     1.4510060    -0.0000590
  H        0.9863010    -1.5124980     0.0000520
  H        4.2687480    -0.3687180    -0.0000090
units angstrom
no_reorient  #important for SAPT in psi4, default
symmetry c1  #important for SAPT in psi4, default
}

set PROPERTIES_ORIGIN ["COM"]
properties('MP2/aug-cc-pvtz', properties = ['dipole'])
--------------------------------------------------------------------------

    Molecular point group: c1
  Charge       = 0
  Multiplicity = 1
  Basis Set: AUG-CC-PVTZ
    Blend: AUG-CC-PVTZ
  Basis Set: (AUG-CC-PVTZ AUX)
    Blend: AUG-CC-PVTZ-JKFIT

    Orbital Energies [Eh]
    ---------------------

    Doubly Occupied:

       1A    -20.633886     2A    -20.559961     3A    -20.559069
       4A    -11.407138     5A    -11.349708     6A    -11.276654
       7A    -11.274746     8A    -11.252104     9A    -11.224744
      10A     -1.478364    11A     -1.389398    12A     -1.363841
      13A     -1.106348    14A     -1.064635    15A     -0.956612
      16A     -0.888881    17A     -0.802507    18A     -0.745497
      19A     -0.718455    20A     -0.715197    21A     -0.661615
      22A     -0.646438    23A     -0.640276    24A     -0.639960
      25A     -0.604647    26A     -0.567398    27A     -0.539420
      28A     -0.538685    29A     -0.523900    30A     -0.499830
      31A     -0.494223    32A     -0.469577    33A     -0.434807
      34A     -0.402299

  @DF-RHF Final Energy:  -456.62709607108621

   => Energetics <=

    Nuclear Repulsion Energy =            413.0966648742439702
    One-Electron Energy =               -1442.5858796561349209
    Two-Electron Energy =                 572.8621187108046797
    Total Energy =                       -456.6270960710862710
  Basis Set: (AUG-CC-PVTZ AUX)
    Blend: AUG-CC-PVTZ-RI
    Molecular point group: c1

    Geometry (in Angstrom), charge = 0, multiplicity = 1:

       Center              X                  Y                   Z               Mass
    ------------   -----------------  -----------------  -----------------  -----------------
         O           -1.639501440066    -1.395416201433    -0.000011665549    15.994914619570
         O            3.311779559934    -0.812756201433     0.000000334451    15.994914619570
         O            2.640926559934     1.355897798567     0.000003334451    15.994914619570
         C           -2.589984440066     0.817028798567     0.000007334451    12.000000000000
         C           -1.450735440066    -0.177869201433    -0.000011665549    12.000000000000
         C           -3.959759440066     0.156035798567     0.000010334451    12.000000000000
         C           -0.070620440066     0.390654798567    -0.000023665549    12.000000000000
         C            1.006511559934    -0.412785201433     0.000017334451    12.000000000000
         C            2.382633059934     0.150558698567     0.000007234451    12.000000000000
         H           -2.462172440066     1.471655798567    -0.873362665549     1.007825032230
         H           -2.462159440066     1.471633798567     0.873392334451     1.007825032230
         H           -4.082557440066    -0.477332201433    -0.880707665549     1.007825032230
         H           -4.749708440066     0.911324798567     0.000019334451     1.007825032230
         H           -4.082548440066    -0.477345201433     0.880718334451     1.007825032230
         H            0.065171559934     1.470692798567    -0.000058665549     1.007825032230
         H            0.892538559934    -1.492811201433     0.000052334451     1.007825032230
         H            4.174985559934    -0.349031201433    -0.000008665549     1.007825032230

  Basis Set: AUG-CC-PVTZ
    Blend: AUG-CC-PVTZ
  Basis Set: (AUG-CC-PVTZ AUX)
    Blend: AUG-CC-PVTZ-JKFIT
	 Reference Energy          =    -456.6270960710862141 [Eh]
	 Singles Energy            =      -0.0000000000000000 [Eh]
	 Same-Spin Energy          =      -0.4484061910098902 [Eh]
	 Opposite-Spin Energy      =      -1.4093863159069682 [Eh]
	 Correlation Energy        =      -1.8577925069168584 [Eh]
	 Total Energy              =    -458.4848885780030514 [Eh]

	 ================> DF-SCS-MP2 Energies <==================
	-----------------------------------------------------------
	 SCS Same-Spin Scale       =       0.3333333333333333 [-]
	 SCS Opposite-Spin Scale   =       1.2000000000000000 [-]
	 SCS Same-Spin Energy      =      -0.1494687303366301 [Eh]
	 SCS Opposite-Spin Energy  =      -1.6912635790883617 [Eh]
	 SCS Correlation Energy    =      -1.8407323094249917 [Eh]
	 SCS Total Energy          =    -458.4678283805112073 [Eh]
	-----------------------------------------------------------

  Dipole Moment: [D]
     X:    -0.0406      Y:     1.0554      Z:     0.0000     Total:     1.0562

*** Psi4 exiting successfully. Buy a developer a beer!
