                               Psi4 1.3.2 release

  ==> Input File <==

--------------------------------------------------------------------------
#psi4
#
memory 32 gb

molecule  {
0 1
  O       -1.6636540     1.3623100    -0.0826750
  O        3.2950020     0.8732560    -0.0394660
  O        2.6676780    -1.2988900     0.0825990
  C       -2.5713650    -0.8630400     0.0337620
  C       -1.4513780     0.1516300    -0.0098980
  C       -3.9526870    -0.2300600    -0.0211700
  C       -0.0615660    -0.3898680     0.0323710
  C        0.9984040     0.4317740    -0.0078830
  C        2.3702780    -0.1170190     0.0219370
  H       -2.4419680    -1.4628000     0.9443570
  H       -2.4189490    -1.5634100    -0.8003330
  H       -4.1001540     0.4487780     0.8215890
  H       -4.7285220    -0.9991160     0.0102380
  H       -4.0749460     0.3516660    -0.9371360
  H        0.0882100    -1.4658090     0.0960520
  H        0.8681440     1.5076730    -0.0687300
  H        4.2530641     0.3754728    -0.0216655
units angstrom
no_reorient  #important for SAPT in psi4, default
symmetry c1  #important for SAPT in psi4, default
}

set PROPERTIES_ORIGIN ["COM"]
properties('MP2/aug-cc-pvtz', properties = ['dipole'])
--------------------------------------------------------------------------

    Molecular point group: c1
  Charge       = 0
  Multiplicity = 1
  Basis Set: AUG-CC-PVTZ
    Blend: AUG-CC-PVTZ
  Basis Set: (AUG-CC-PVTZ AUX)
    Blend: AUG-CC-PVTZ-JKFIT

    Orbital Energies [Eh]
    ---------------------

    Doubly Occupied:

       1A    -20.632737     2A    -20.560161     3A    -20.559458
       4A    -11.403556     5A    -11.349474     6A    -11.276393
       7A    -11.274716     8A    -11.252129     9A    -11.224877
      10A     -1.460065    11A     -1.390110    12A     -1.358601
      13A     -1.107851    14A     -1.065043    15A     -0.953134
      16A     -0.881746    17A     -0.789813    18A     -0.746184
      19A     -0.715564    20A     -0.703845    21A     -0.659890
      22A     -0.642558    23A     -0.638751    24A     -0.636625
      25A     -0.598514    26A     -0.568840    27A     -0.539550
      28A     -0.538770    29A     -0.524045    30A     -0.499564
      31A     -0.493898    32A     -0.469339    33A     -0.434799
      34A     -0.403593

  @DF-RHF Final Energy:  -456.61520349933397

   => Energetics <=

    Nuclear Repulsion Energy =            412.9049370542944075
    One-Electron Energy =               -1442.3318892381003025
    Two-Electron Energy =                 572.8117486844720361
    Total Energy =                       -456.6152034993339157
  Basis Set: (AUG-CC-PVTZ AUX)
    Blend: AUG-CC-PVTZ-RI
    Molecular point group: c1

    Geometry (in Angstrom), charge = 0, multiplicity = 1:

       Center              X                  Y                   Z               Mass
    ------------   -----------------  -----------------  -----------------  -----------------
         O           -1.664352340854     1.362672816471    -0.082688087304    15.994914619570
         O            3.294303659146     0.873618816471    -0.039479087304    15.994914619570
         O            2.666979659146    -1.298527183529     0.082585912696    15.994914619570
         C           -2.572063340854    -0.862677183529     0.033748912696    12.000000000000
         C           -1.452076340854     0.151992816471    -0.009911087304    12.000000000000
         C           -3.953385340854    -0.229697183529    -0.021183087304    12.000000000000
         C           -0.062264340854    -0.389505183529     0.032357912696    12.000000000000
         C            0.997705659146     0.432136816471    -0.007896087304    12.000000000000
         C            2.369579659146    -0.116656183529     0.021923912696    12.000000000000
         H           -2.442666340854    -1.462437183529     0.944343912696     1.007825032230
         H           -2.419647340854    -1.563047183529    -0.800346087304     1.007825032230
         H           -4.100852340854     0.449140816471     0.821575912696     1.007825032230
         H           -4.729220340854    -0.998753183529     0.010224912696     1.007825032230
         H           -4.075644340854     0.352028816471    -0.937149087304     1.007825032230
         H            0.087511659146    -1.465446183529     0.096038912696     1.007825032230
         H            0.867445659146     1.508035816471    -0.068743087304     1.007825032230
         H            4.252365759146     0.375835616471    -0.021678587304     1.007825032230

  Basis Set: AUG-CC-PVTZ
    Blend: AUG-CC-PVTZ
  Basis Set: (AUG-CC-PVTZ AUX)
    Blend: AUG-CC-PVTZ-JKFIT
	 Reference Energy          =    -456.6152034993339726 [Eh]
	 Singles Energy            =      -0.0000000000000000 [Eh]
	 Same-Spin Energy          =      -0.4495560368882980 [Eh]
	 Opposite-Spin Energy      =      -1.4122360293133149 [Eh]
	 Correlation Energy        =      -1.8617920662016130 [Eh]
	 Total Energy              =    -458.4769955655355602 [Eh]

	 ================> DF-SCS-MP2 Energies <==================
	-----------------------------------------------------------
	 SCS Same-Spin Scale       =       0.3333333333333333 [-]
	 SCS Opposite-Spin Scale   =       1.2000000000000000 [-]
	 SCS Same-Spin Energy      =      -0.1498520122960993 [Eh]
	 SCS Opposite-Spin Energy  =      -1.6946832351759780 [Eh]
	 SCS Correlation Energy    =      -1.8445352474720773 [Eh]
	 SCS Total Energy          =    -458.4597387468060674 [Eh]
	-----------------------------------------------------------

  Dipole Moment: [D]
     X:    -0.0372      Y:    -1.2068      Z:     0.0616     Total:     1.2089

*** Psi4 exiting successfully. Buy a developer a beer!
