                               Psi4 1.3.2 release

  ==> Input File <==

--------------------------------------------------------------------------
#psi4
#
memory 32 gb

molecule  {
0 1
  O       -1.6636540     1.3623100    -0.0826750
  O        3.2950020     0.8732560    -0.0394660
  O        2.6676780    -1.2988900     0.0825990
  C       -2.5713650    -0.8630400     0.0337620
  C       -1.4513780     0.1516300    -0.0098980
  C       -3.9526870    -0.2300600    -0.0211700
  C       -0.0615660    -0.3898680     0.0323710
  C        1.0264656     0.3943545    -0.0055053
  C        2.3702780    -0.1170190     0.0219370
  H       -2.4419680    -1.4628000     0.9443570
  H       -2.4189490    -1.5634100    -0.8003330
  H       -4.1001540     0.4487780     0.8215890
  H       -4.7285220    -0.9991160     0.0102380
  H       -4.0749460     0.3516660    -0.9371360
  H        0.1257333    -1.4599196     0.0959769
  H        0.8681440     1.5076730    -0.0687300
  H        4.1643390     0.4215720    -0.0233140
units angstrom
no_reorient  #important for SAPT in psi4, default
symmetry c1  #important for SAPT in psi4, default
}

set PROPERTIES_ORIGIN ["COM"]
properties('MP2/aug-cc-pvtz', properties = ['dipole'])
--------------------------------------------------------------------------

    Molecular point group: c1
  Charge       = 0
  Multiplicity = 1
  Basis Set: AUG-CC-PVTZ
    Blend: AUG-CC-PVTZ
  Basis Set: (AUG-CC-PVTZ AUX)
    Blend: AUG-CC-PVTZ-JKFIT

    Orbital Energies [Eh]
    ---------------------

    Doubly Occupied:

       1A    -20.627353     2A    -20.563120     3A    -20.560075
       4A    -11.402663     5A    -11.352778     6A    -11.277745
       7A    -11.274278     8A    -11.253553     9A    -11.225915
      10A     -1.472607    11A     -1.392432    12A     -1.367476
      13A     -1.111094    14A     -1.067103    15A     -0.962192
      16A     -0.890739    17A     -0.799111    18A     -0.742183
      19A     -0.722244    20A     -0.711924    21A     -0.666128
      22A     -0.645108    23A     -0.640050    24A     -0.638178
      25A     -0.608762    26A     -0.559156    27A     -0.540984
      28A     -0.539972    29A     -0.525315    30A     -0.501621
      31A     -0.496538    32A     -0.471568    33A     -0.438199
      34A     -0.403971

  @DF-RHF Final Energy:  -456.62458842854267

   => Energetics <=

    Nuclear Repulsion Energy =            413.8211838758883232
    One-Electron Energy =               -1443.9872763511627909
    Two-Electron Energy =                 573.5415040467319159
    Total Energy =                       -456.6245884285426655
  Basis Set: (AUG-CC-PVTZ AUX)
    Blend: AUG-CC-PVTZ-RI
    Molecular point group: c1

    Geometry (in Angstrom), charge = 0, multiplicity = 1:

       Center              X                  Y                   Z               Mass
    ------------   -----------------  -----------------  -----------------  -----------------
         O           -1.666579148026     1.365770409711    -0.082897348285    15.994914619570
         O            3.292076851974     0.876716409711    -0.039688348285    15.994914619570
         O            2.664752851974    -1.295429590289     0.082376651715    15.994914619570
         C           -2.574290148026    -0.859579590289     0.033539651715    12.000000000000
         C           -1.454303148026     0.155090409711    -0.010120348285    12.000000000000
         C           -3.955612148026    -0.226599590289    -0.021392348285    12.000000000000
         C           -0.064491148026    -0.386407590289     0.032148651715    12.000000000000
         C            1.023540451974     0.397814909711    -0.005727648285    12.000000000000
         C            2.367352851974    -0.113558590289     0.021714651715    12.000000000000
         H           -2.444893148026    -1.459339590289     0.944134651715     1.007825032230
         H           -2.421874148026    -1.559949590289    -0.800555348285     1.007825032230
         H           -4.103079148026     0.452238409711     0.821366651715     1.007825032230
         H           -4.731447148026    -0.995655590289     0.010015651715     1.007825032230
         H           -4.077871148026     0.355126409711    -0.937358348285     1.007825032230
         H            0.122808151974    -1.456459190289     0.095754551715     1.007825032230
         H            0.865218851974     1.511133409711    -0.068952348285     1.007825032230
         H            4.161413851974     0.425032409711    -0.023536348285     1.007825032230

  Basis Set: AUG-CC-PVTZ
    Blend: AUG-CC-PVTZ
  Basis Set: (AUG-CC-PVTZ AUX)
    Blend: AUG-CC-PVTZ-JKFIT
	 Reference Energy          =    -456.6245884285426655 [Eh]
	 Singles Energy            =      -0.0000000000000000 [Eh]
	 Same-Spin Energy          =      -0.4488240378166707 [Eh]
	 Opposite-Spin Energy      =      -1.4099114895501481 [Eh]
	 Correlation Energy        =      -1.8587355273668189 [Eh]
	 Total Energy              =    -458.4833239559094977 [Eh]

	 ================> DF-SCS-MP2 Energies <==================
	-----------------------------------------------------------
	 SCS Same-Spin Scale       =       0.3333333333333333 [-]
	 SCS Opposite-Spin Scale   =       1.2000000000000000 [-]
	 SCS Same-Spin Energy      =      -0.1496080126055569 [Eh]
	 SCS Opposite-Spin Energy  =      -1.6918937874601776 [Eh]
	 SCS Correlation Energy    =      -1.8415018000657346 [Eh]
	 SCS Total Energy          =    -458.4660902286083797 [Eh]
	-----------------------------------------------------------

  Dipole Moment: [D]
     X:    -0.2461      Y:    -1.1848      Z:     0.0612     Total:     1.2117

*** Psi4 exiting successfully. Buy a developer a beer!
