                               Psi4 1.3.2 release

  ==> Input File <==

--------------------------------------------------------------------------
#psi4
#
memory 32 gb

molecule  {
0 1
  O       -1.6636540     1.3623100    -0.0826750
  O        3.2950020     0.8732560    -0.0394660
  O        2.6676780    -1.2988900     0.0825990
  C       -2.5713650    -0.8630400     0.0337620
  C       -1.4425596     0.1418399    -0.0092154
  C       -3.9581761    -0.2421235    -0.0205467
  C       -0.0615660    -0.3898680     0.0323710
  C        0.9984040     0.4317740    -0.0078830
  C        2.3702780    -0.1170190     0.0219370
  H       -2.4419680    -1.4628000     0.9443570
  H       -2.4189490    -1.5634100    -0.8003330
  H       -4.1001540     0.4487780     0.8215890
  H       -4.7285220    -0.9991160     0.0102380
  H       -4.0749460     0.3516660    -0.9371360
  H        0.0882100    -1.4658090     0.0960520
  H        0.8681440     1.5076730    -0.0687300
  H        4.1643390     0.4215720    -0.0233140
units angstrom
no_reorient  #important for SAPT in psi4, default
symmetry c1  #important for SAPT in psi4, default
}

set PROPERTIES_ORIGIN ["COM"]
properties('MP2/aug-cc-pvtz', properties = ['dipole'])
--------------------------------------------------------------------------

    Molecular point group: c1
  Charge       = 0
  Multiplicity = 1
  Basis Set: AUG-CC-PVTZ
    Blend: AUG-CC-PVTZ
  Basis Set: (AUG-CC-PVTZ AUX)
    Blend: AUG-CC-PVTZ-JKFIT

    Orbital Energies [Eh]
    ---------------------

    Doubly Occupied:

       1A    -20.628303     2A    -20.562267     3A    -20.559560
       4A    -11.406301     5A    -11.350471     6A    -11.278106
       7A    -11.276082     8A    -11.252658     9A    -11.225097
      10A     -1.472985    11A     -1.382989    12A     -1.368288
      13A     -1.110903    14A     -1.065415    15A     -0.959615
      16A     -0.888242    17A     -0.800703    18A     -0.747591
      19A     -0.717708    20A     -0.713692    21A     -0.661527
      22A     -0.643819    23A     -0.639300    24A     -0.638505
      25A     -0.607032    26A     -0.570077    27A     -0.542978
      28A     -0.536409    29A     -0.522647    30A     -0.500324
      31A     -0.494101    32A     -0.472060    33A     -0.436541
      34A     -0.404314

  @DF-RHF Final Energy:  -456.62645050648757

   => Energetics <=

    Nuclear Repulsion Energy =            413.3525617132443131
    One-Electron Energy =               -1443.0848048221180306
    Two-Electron Energy =                 573.1057926023861455
    Total Energy =                       -456.6264505064875721
  Basis Set: (AUG-CC-PVTZ AUX)
    Blend: AUG-CC-PVTZ-RI
    Molecular point group: c1

    Geometry (in Angstrom), charge = 0, multiplicity = 1:

       Center              X                  Y                   Z               Mass
    ------------   -----------------  -----------------  -----------------  -----------------
         O           -1.663966016740     1.364357999977    -0.082797495278    15.994914619570
         O            3.294689983260     0.875303999977    -0.039588495278    15.994914619570
         O            2.667365983260    -1.296842000023     0.082476504722    15.994914619570
         C           -2.571677016740    -0.860992000023     0.033639504722    12.000000000000
         C           -1.442871616740     0.143887899977    -0.009337895278    12.000000000000
         C           -3.958488116740    -0.240075500023    -0.020669195278    12.000000000000
         C           -0.061878016740    -0.387820000023     0.032248504722    12.000000000000
         C            0.998091983260     0.433821999977    -0.008005495278    12.000000000000
         C            2.369965983260    -0.114971000023     0.021814504722    12.000000000000
         H           -2.442280016740    -1.460752000023     0.944234504722     1.007825032230
         H           -2.419261016740    -1.561362000023    -0.800455495278     1.007825032230
         H           -4.100466016740     0.450825999977     0.821466504722     1.007825032230
         H           -4.728834016740    -0.997068000023     0.010115504722     1.007825032230
         H           -4.075258016740     0.353713999977    -0.937258495278     1.007825032230
         H            0.087897983260    -1.463761000023     0.095929504722     1.007825032230
         H            0.867831983260     1.509720999977    -0.068852495278     1.007825032230
         H            4.164026983260     0.423619999977    -0.023436495278     1.007825032230

  Basis Set: AUG-CC-PVTZ
    Blend: AUG-CC-PVTZ
  Basis Set: (AUG-CC-PVTZ AUX)
    Blend: AUG-CC-PVTZ-JKFIT
	 Reference Energy          =    -456.6264505064875721 [Eh]
	 Singles Energy            =      -0.0000000000000000 [Eh]
	 Same-Spin Energy          =      -0.4486743445095910 [Eh]
	 Opposite-Spin Energy      =      -1.4099203105523330 [Eh]
	 Correlation Energy        =      -1.8585946550619239 [Eh]
	 Total Energy              =    -458.4850451615495217 [Eh]

	 ================> DF-SCS-MP2 Energies <==================
	-----------------------------------------------------------
	 SCS Same-Spin Scale       =       0.3333333333333333 [-]
	 SCS Opposite-Spin Scale   =       1.2000000000000000 [-]
	 SCS Same-Spin Energy      =      -0.1495581148365303 [Eh]
	 SCS Opposite-Spin Energy  =      -1.6919043726627996 [Eh]
	 SCS Correlation Energy    =      -1.8414624874993299 [Eh]
	 SCS Total Energy          =    -458.4679129939868858 [Eh]
	-----------------------------------------------------------

  Dipole Moment: [D]
     X:    -0.1144      Y:    -1.2141      Z:     0.0637     Total:     1.2211

*** Psi4 exiting successfully. Buy a developer a beer!
