                               Psi4 1.3.2 release

  ==> Input File <==

--------------------------------------------------------------------------
#psi4
#
memory 32 gb

molecule  {
0 1
  O       -1.6636540     1.3623100    -0.0826750
  O        3.2950020     0.8732560    -0.0394660
  O        2.6676780    -1.2988900     0.0825990
  C       -2.5713650    -0.8630400     0.0337620
  C       -1.4513780     0.1516300    -0.0098980
  C       -3.9526870    -0.2300600    -0.0211700
  C       -0.0470478    -0.4082170     0.0333238
  C        0.9984040     0.4317740    -0.0078830
  C        2.3604772    -0.1408478     0.0231340
  H       -2.4419680    -1.4628000     0.9443570
  H       -2.4189490    -1.5634100    -0.8003330
  H       -4.1001540     0.4487780     0.8215890
  H       -4.7285220    -0.9991160     0.0102380
  H       -4.0749460     0.3516660    -0.9371360
  H        0.0882100    -1.4658090     0.0960520
  H        0.8681440     1.5076730    -0.0687300
  H        4.1643390     0.4215720    -0.0233140
units angstrom
no_reorient  #important for SAPT in psi4, default
symmetry c1  #important for SAPT in psi4, default
}

set PROPERTIES_ORIGIN ["COM"]
properties('MP2/aug-cc-pvtz', properties = ['dipole'])
--------------------------------------------------------------------------

    Molecular point group: c1
  Charge       = 0
  Multiplicity = 1
  Basis Set: AUG-CC-PVTZ
    Blend: AUG-CC-PVTZ
  Basis Set: (AUG-CC-PVTZ AUX)
    Blend: AUG-CC-PVTZ-JKFIT

    Orbital Energies [Eh]
    ---------------------

    Doubly Occupied:

       1A    -20.619853     2A    -20.565349     3A    -20.561563
       4A    -11.403308     5A    -11.351680     6A    -11.276931
       7A    -11.275221     8A    -11.252811     9A    -11.225422
      10A     -1.468438    11A     -1.390629    12A     -1.372571
      13A     -1.109551    14A     -1.065982    15A     -0.953794
      16A     -0.884978    17A     -0.792136    18A     -0.751343
      19A     -0.717009    20A     -0.712480    21A     -0.658951
      22A     -0.642950    23A     -0.640248    24A     -0.636636
      25A     -0.609045    26A     -0.578139    27A     -0.539761
      28A     -0.539522    29A     -0.524548    30A     -0.503175
      31A     -0.497942    32A     -0.472649    33A     -0.434024
      34A     -0.405912

  @DF-RHF Final Energy:  -456.62805515572757

   => Energetics <=

    Nuclear Repulsion Energy =            413.3841839897735895
    One-Electron Energy =               -1443.1553745159285427
    Two-Electron Energy =                 573.1431353704273306
    Total Energy =                       -456.6280551557275658
  Basis Set: (AUG-CC-PVTZ AUX)
    Blend: AUG-CC-PVTZ-RI
    Molecular point group: c1

    Geometry (in Angstrom), charge = 0, multiplicity = 1:

       Center              X                  Y                   Z               Mass
    ------------   -----------------  -----------------  -----------------  -----------------
         O           -1.664096102999     1.366262689228    -0.082876581650    15.994914619570
         O            3.294559897001     0.877208689228    -0.039667581650    15.994914619570
         O            2.667235897001    -1.294937310772     0.082397418350    15.994914619570
         C           -2.571807102999    -0.859087310772     0.033560418350    12.000000000000
         C           -1.451820102999     0.155582689228    -0.010099581650    12.000000000000
         C           -3.953129102999    -0.226107310772    -0.021371581650    12.000000000000
         C           -0.047489902999    -0.404264310772     0.033122218350    12.000000000000
         C            0.997961897001     0.435726689228    -0.008084581650    12.000000000000
         C            2.360035097001    -0.136895110772     0.022932418350    12.000000000000
         H           -2.442410102999    -1.458847310772     0.944155418350     1.007825032230
         H           -2.419391102999    -1.559457310772    -0.800534581650     1.007825032230
         H           -4.100596102999     0.452730689228     0.821387418350     1.007825032230
         H           -4.728964102999    -0.995163310772     0.010036418350     1.007825032230
         H           -4.075388102999     0.355618689228    -0.937337581650     1.007825032230
         H            0.087767897001    -1.461856310772     0.095850418350     1.007825032230
         H            0.867701897001     1.511625689228    -0.068931581650     1.007825032230
         H            4.163896897001     0.425524689228    -0.023515581650     1.007825032230

  Basis Set: AUG-CC-PVTZ
    Blend: AUG-CC-PVTZ
  Basis Set: (AUG-CC-PVTZ AUX)
    Blend: AUG-CC-PVTZ-JKFIT
	 Reference Energy          =    -456.6280551557275658 [Eh]
	 Singles Energy            =      -0.0000000000000000 [Eh]
	 Same-Spin Energy          =      -0.4478826041084499 [Eh]
	 Opposite-Spin Energy      =      -1.4085095951607580 [Eh]
	 Correlation Energy        =      -1.8563921992692078 [Eh]
	 Total Energy              =    -458.4844473549967461 [Eh]

	 ================> DF-SCS-MP2 Energies <==================
	-----------------------------------------------------------
	 SCS Same-Spin Scale       =       0.3333333333333333 [-]
	 SCS Opposite-Spin Scale   =       1.2000000000000000 [-]
	 SCS Same-Spin Energy      =      -0.1492942013694833 [Eh]
	 SCS Opposite-Spin Energy  =      -1.6902115141929095 [Eh]
	 SCS Correlation Energy    =      -1.8395057155623928 [Eh]
	 SCS Total Energy          =    -458.4675608712899475 [Eh]
	-----------------------------------------------------------

  Dipole Moment: [D]
     X:    -0.3296      Y:    -1.3693      Z:     0.0721     Total:     1.4103

*** Psi4 exiting successfully. Buy a developer a beer!
