                               Psi4 1.3.2 release

  ==> Input File <==

--------------------------------------------------------------------------
#psi4
#
memory 32 gb

molecule  {
0 1
  O       -1.6636540     1.3623100    -0.0826750
  O        3.2950020     0.8732560    -0.0394660
  O        2.6676780    -1.2988900     0.0825990
  C       -2.5713650    -0.8630400     0.0337620
  C       -1.4513780     0.1516300    -0.0098980
  C       -3.9526870    -0.2300600    -0.0211700
  C       -0.0615660    -0.3898680     0.0323710
  C        0.9984040     0.4317740    -0.0078830
  C        2.4384583    -0.0440056     0.0174097
  H       -2.4419680    -1.4628000     0.9443570
  H       -2.4189490    -1.5634100    -0.8003330
  H       -4.1001540     0.4487780     0.8215890
  H       -4.7285220    -0.9991160     0.0102380
  H       -4.0749460     0.3516660    -0.9371360
  H        0.0882100    -1.4658090     0.0960520
  H        0.8681440     1.5076730    -0.0687300
  H        4.1643390     0.4215720    -0.0233140
units angstrom
no_reorient  #important for SAPT in psi4, default
symmetry c1  #important for SAPT in psi4, default
}

set PROPERTIES_ORIGIN ["COM"]
properties('MP2/aug-cc-pvtz', properties = ['dipole'])
--------------------------------------------------------------------------

    Molecular point group: c1
  Charge       = 0
  Multiplicity = 1
  Basis Set: AUG-CC-PVTZ
    Blend: AUG-CC-PVTZ
  Basis Set: (AUG-CC-PVTZ AUX)
    Blend: AUG-CC-PVTZ-JKFIT

    Orbital Energies [Eh]
    ---------------------

    Doubly Occupied:

       1A    -20.657095     2A    -20.556472     3A    -20.546267
       4A    -11.409209     5A    -11.346644     6A    -11.275389
       7A    -11.270369     8A    -11.249725     9A    -11.223051
      10A     -1.523990    11A     -1.386827    12A     -1.339520
      13A     -1.099823    14A     -1.061609    15A     -0.958345
      16A     -0.897302    17A     -0.816736    18A     -0.744757
      19A     -0.730248    20A     -0.716430    21A     -0.672415
      22A     -0.662226    23A     -0.639199    24A     -0.638795
      25A     -0.595734    26A     -0.554671    27A     -0.537348
      28A     -0.536469    29A     -0.521770    30A     -0.496620
      31A     -0.481661    32A     -0.458290    33A     -0.431721
      34A     -0.397414

  @DF-RHF Final Energy:  -456.61383459377646

   => Energetics <=

    Nuclear Repulsion Energy =            413.2416530832090302
    One-Electron Energy =               -1442.8426884925954710
    Two-Electron Energy =                 572.9872008156099810
    Total Energy =                       -456.6138345937764598
  Basis Set: (AUG-CC-PVTZ AUX)
    Blend: AUG-CC-PVTZ-RI
    Molecular point group: c1

    Geometry (in Angstrom), charge = 0, multiplicity = 1:

       Center              X                  Y                   Z               Mass
    ------------   -----------------  -----------------  -----------------  -----------------
         O           -1.670043550057     1.355467507106    -0.082250834974    15.994914619570
         O            3.288612449943     0.866413507106    -0.039041834974    15.994914619570
         O            2.661288449943    -1.305732492894     0.083023165026    15.994914619570
         C           -2.577754550057    -0.869882492894     0.034186165026    12.000000000000
         C           -1.457767550057     0.144787507106    -0.009473834974    12.000000000000
         C           -3.959076550057    -0.236902492894    -0.020745834974    12.000000000000
         C           -0.067955550057    -0.396710492894     0.032795165026    12.000000000000
         C            0.992014449943     0.424931507106    -0.007458834974    12.000000000000
         C            2.432068749943    -0.050848092894     0.017833865026    12.000000000000
         H           -2.448357550057    -1.469642492894     0.944781165026     1.007825032230
         H           -2.425338550057    -1.570252492894    -0.799908834974     1.007825032230
         H           -4.106543550057     0.441935507106     0.822013165026     1.007825032230
         H           -4.734911550057    -1.005958492894     0.010662165026     1.007825032230
         H           -4.081335550057     0.344823507106    -0.936711834974     1.007825032230
         H            0.081820449943    -1.472651492894     0.096476165026     1.007825032230
         H            0.861754449943     1.500830507106    -0.068305834974     1.007825032230
         H            4.157949449943     0.414729507106    -0.022889834974     1.007825032230

  Basis Set: AUG-CC-PVTZ
    Blend: AUG-CC-PVTZ
  Basis Set: (AUG-CC-PVTZ AUX)
    Blend: AUG-CC-PVTZ-JKFIT
	 Reference Energy          =    -456.6138345937764598 [Eh]
	 Singles Energy            =      -0.0000000000000000 [Eh]
	 Same-Spin Energy          =      -0.4486217147808086 [Eh]
	 Opposite-Spin Energy      =      -1.4092882034386343 [Eh]
	 Correlation Energy        =      -1.8579099182194430 [Eh]
	 Total Energy              =    -458.4717445119958938 [Eh]

	 ================> DF-SCS-MP2 Energies <==================
	-----------------------------------------------------------
	 SCS Same-Spin Scale       =       0.3333333333333333 [-]
	 SCS Opposite-Spin Scale   =       1.2000000000000000 [-]
	 SCS Same-Spin Energy      =      -0.1495405715936029 [Eh]
	 SCS Opposite-Spin Energy  =      -1.6911458441263612 [Eh]
	 SCS Correlation Energy    =      -1.8406864157199641 [Eh]
	 SCS Total Energy          =    -458.4545210094964318 [Eh]
	-----------------------------------------------------------

  Dipole Moment: [D]
     X:     0.5089      Y:    -0.5531      Z:     0.0248     Total:     0.7520

*** Psi4 exiting successfully. Buy a developer a beer!
