                               Psi4 1.3.2 release

  ==> Input File <==

--------------------------------------------------------------------------
#psi4
#
memory 32 gb

molecule  {
0 1
  O       -1.6742297     1.3604100    -0.0826427
  O        3.2950020     0.8732560    -0.0394660
  O        2.6676780    -1.2988900     0.0825990
  C       -2.5713650    -0.8630400     0.0337620
  C       -1.4513780     0.1516300    -0.0098980
  C       -3.9526870    -0.2300600    -0.0211700
  C       -0.0663577    -0.4019571     0.0330458
  C        0.9984040     0.4317740    -0.0078830
  C        2.3702780    -0.1170190     0.0219370
  H       -2.4419680    -1.4628000     0.9443570
  H       -2.4189490    -1.5634100    -0.8003330
  H       -4.1001540     0.4487780     0.8215890
  H       -4.7285220    -0.9991160     0.0102380
  H       -4.0749460     0.3516660    -0.9371360
  H        0.0882100    -1.4658090     0.0960520
  H        0.8681440     1.5076730    -0.0687300
  H        4.1643390     0.4215720    -0.0233140
units angstrom
no_reorient  #important for SAPT in psi4, default
symmetry c1  #important for SAPT in psi4, default
}

set PROPERTIES_ORIGIN ["COM"]
properties('MP2/aug-cc-pvtz', properties = ['dipole'])
--------------------------------------------------------------------------

    Molecular point group: c1
  Charge       = 0
  Multiplicity = 1
  Basis Set: AUG-CC-PVTZ
    Blend: AUG-CC-PVTZ
  Basis Set: (AUG-CC-PVTZ AUX)
    Blend: AUG-CC-PVTZ-JKFIT

    Orbital Energies [Eh]
    ---------------------

    Doubly Occupied:

       1A    -20.627876     2A    -20.561702     3A    -20.560689
       4A    -11.405741     5A    -11.350018     6A    -11.278962
       7A    -11.277134     8A    -11.251566     9A    -11.224557
      10A     -1.472543    11A     -1.390400    12A     -1.367836
      13A     -1.108018    14A     -1.064790    15A     -0.958064
      16A     -0.886983    17A     -0.798569    18A     -0.749208
      19A     -0.718025    20A     -0.713531    21A     -0.660763
      22A     -0.643837    23A     -0.640746    24A     -0.639029
      25A     -0.606870    26A     -0.573684    27A     -0.539533
      28A     -0.538404    29A     -0.523879    30A     -0.500710
      31A     -0.496052    32A     -0.471583    33A     -0.435086
      34A     -0.402639

  @DF-RHF Final Energy:  -456.62752992981069

   => Energetics <=

    Nuclear Repulsion Energy =            413.3134567803615482
    One-Electron Energy =               -1443.0039216058546572
    Two-Electron Energy =                 573.0629348956824742
    Total Energy =                       -456.6275299298106347
  Basis Set: (AUG-CC-PVTZ AUX)
    Blend: AUG-CC-PVTZ-RI
    Molecular point group: c1

    Geometry (in Angstrom), charge = 0, multiplicity = 1:

       Center              X                  Y                   Z               Mass
    ------------   -----------------  -----------------  -----------------  -----------------
         O           -1.672459600782     1.361780253298    -0.082710086253    15.994914619570
         O            3.296772099218     0.874626253298    -0.039533386253    15.994914619570
         O            2.669448099218    -1.297519746702     0.082531613747    15.994914619570
         C           -2.569594900782    -0.861669746702     0.033694613747    12.000000000000
         C           -1.449607900782     0.153000253298    -0.009965386253    12.000000000000
         C           -3.950916900782    -0.228689746702    -0.021237386253    12.000000000000
         C           -0.064587600782    -0.400586846702     0.032978413747    12.000000000000
         C            1.000174099218     0.433144253298    -0.007950386253    12.000000000000
         C            2.372048099218    -0.115648746702     0.021869613747    12.000000000000
         H           -2.440197900782    -1.461429746702     0.944289613747     1.007825032230
         H           -2.417178900782    -1.562039746702    -0.800400386253     1.007825032230
         H           -4.098383900782     0.450148253298     0.821521613747     1.007825032230
         H           -4.726751900782    -0.997745746702     0.010170613747     1.007825032230
         H           -4.073175900782     0.353036253298    -0.937203386253     1.007825032230
         H            0.089980099218    -1.464438746702     0.095984613747     1.007825032230
         H            0.869914099218     1.509043253298    -0.068797386253     1.007825032230
         H            4.166109099218     0.422942253298    -0.023381386253     1.007825032230

  Basis Set: AUG-CC-PVTZ
    Blend: AUG-CC-PVTZ
  Basis Set: (AUG-CC-PVTZ AUX)
    Blend: AUG-CC-PVTZ-JKFIT
	 Reference Energy          =    -456.6275299298106916 [Eh]
	 Singles Energy            =      -0.0000000000000000 [Eh]
	 Same-Spin Energy          =      -0.4484137389118337 [Eh]
	 Opposite-Spin Energy      =      -1.4094013035582305 [Eh]
	 Correlation Energy        =      -1.8578150424700641 [Eh]
	 Total Energy              =    -458.4853449722807568 [Eh]

	 ================> DF-SCS-MP2 Energies <==================
	-----------------------------------------------------------
	 SCS Same-Spin Scale       =       0.3333333333333333 [-]
	 SCS Opposite-Spin Scale   =       1.2000000000000000 [-]
	 SCS Same-Spin Energy      =      -0.1494712463039445 [Eh]
	 SCS Opposite-Spin Energy  =      -1.6912815642698764 [Eh]
	 SCS Correlation Energy    =      -1.8407528105738209 [Eh]
	 SCS Total Energy          =    -458.4682827403844954 [Eh]
	-----------------------------------------------------------

  Dipole Moment: [D]
     X:    -0.1205      Y:    -1.1775      Z:     0.0617     Total:     1.1852

*** Psi4 exiting successfully. Buy a developer a beer!
