                               Psi4 1.3.2 release

  ==> Input File <==

--------------------------------------------------------------------------
#psi4
#
memory 32 gb

molecule  {
0 1
  O       -1.6636540     1.3623100    -0.0826750
  O        3.2950020     0.8732560    -0.0394660
  O        2.6676780    -1.2988900     0.0825990
  C       -2.5713650    -0.8630400     0.0337620
  C       -1.4874976     0.1900102    -0.0125945
  C       -3.9296830    -0.1822970    -0.0236209
  C       -0.0615660    -0.3898680     0.0323710
  C        0.9984040     0.4317740    -0.0078830
  C        2.3702780    -0.1170190     0.0219370
  H       -2.4419680    -1.4628000     0.9443570
  H       -2.4189490    -1.5634100    -0.8003330
  H       -4.1001540     0.4487780     0.8215890
  H       -4.7285220    -0.9991160     0.0102380
  H       -4.0749460     0.3516660    -0.9371360
  H        0.0882100    -1.4658090     0.0960520
  H        0.8681440     1.5076730    -0.0687300
  H        4.1643390     0.4215720    -0.0233140
units angstrom
no_reorient  #important for SAPT in psi4, default
symmetry c1  #important for SAPT in psi4, default
}

set PROPERTIES_ORIGIN ["COM"]
properties('MP2/aug-cc-pvtz', properties = ['dipole'])
--------------------------------------------------------------------------

    Molecular point group: c1
  Charge       = 0
  Multiplicity = 1
  Basis Set: AUG-CC-PVTZ
    Blend: AUG-CC-PVTZ
  Basis Set: (AUG-CC-PVTZ AUX)
    Blend: AUG-CC-PVTZ-JKFIT

    Orbital Energies [Eh]
    ---------------------

    Doubly Occupied:

       1A    -20.624774     2A    -20.565483     3A    -20.557725
       4A    -11.401970     5A    -11.348209     6A    -11.274044
       7A    -11.269372     8A    -11.252572     9A    -11.226311
      10A     -1.469215    11A     -1.422487    12A     -1.364335
      13A     -1.102054    14A     -1.067315    15A     -0.948350
      16A     -0.885394    17A     -0.792628    18A     -0.745121
      19A     -0.721511    20A     -0.709898    21A     -0.662575
      22A     -0.649094    23A     -0.648110    24A     -0.638028
      25A     -0.605402    26A     -0.570414    27A     -0.556167
      28A     -0.534569    29A     -0.521632    30A     -0.511196
      31A     -0.495851    32A     -0.468032    33A     -0.427735
      34A     -0.402841

  @DF-RHF Final Energy:  -456.62659032887365

   => Energetics <=

    Nuclear Repulsion Energy =            413.9734898689102351
    One-Electron Energy =               -1444.3193334904958647
    Two-Electron Energy =                 573.7192532927118691
    Total Energy =                       -456.6265903288737036
  Basis Set: (AUG-CC-PVTZ AUX)
    Blend: AUG-CC-PVTZ-RI
    Molecular point group: c1

    Geometry (in Angstrom), charge = 0, multiplicity = 1:

       Center              X                  Y                   Z               Mass
    ------------   -----------------  -----------------  -----------------  -----------------
         O           -1.662424877395     1.354237043475    -0.082192722094    15.994914619570
         O            3.296231122605     0.865183043475    -0.038983722094    15.994914619570
         O            2.668907122605    -1.306962956525     0.083081277906    15.994914619570
         C           -2.570135877395    -0.871112956525     0.034244277906    12.000000000000
         C           -1.486268477395     0.181937243475    -0.012112222094    12.000000000000
         C           -3.928453877395    -0.190369956525    -0.023138622094    12.000000000000
         C           -0.060336877395    -0.397940956525     0.032853277906    12.000000000000
         C            0.999633122605     0.423701043475    -0.007400722094    12.000000000000
         C            2.371507122605    -0.125091956525     0.022419277906    12.000000000000
         H           -2.440738877395    -1.470872956525     0.944839277906     1.007825032230
         H           -2.417719877395    -1.571482956525    -0.799850722094     1.007825032230
         H           -4.098924877395     0.440705043475     0.822071277906     1.007825032230
         H           -4.727292877395    -1.007188956525     0.010720277906     1.007825032230
         H           -4.073716877395     0.343593043475    -0.936653722094     1.007825032230
         H            0.089439122605    -1.473881956525     0.096534277906     1.007825032230
         H            0.869373122605     1.499600043475    -0.068247722094     1.007825032230
         H            4.165568122605     0.413499043475    -0.022831722094     1.007825032230

  Basis Set: AUG-CC-PVTZ
    Blend: AUG-CC-PVTZ
  Basis Set: (AUG-CC-PVTZ AUX)
    Blend: AUG-CC-PVTZ-JKFIT
	 Reference Energy          =    -456.6265903288736467 [Eh]
	 Singles Energy            =      -0.0000000000000000 [Eh]
	 Same-Spin Energy          =      -0.4469830076972423 [Eh]
	 Opposite-Spin Energy      =      -1.4063737845973101 [Eh]
	 Correlation Energy        =      -1.8533567922945524 [Eh]
	 Total Energy              =    -458.4799471211682089 [Eh]

	 ================> DF-SCS-MP2 Energies <==================
	-----------------------------------------------------------
	 SCS Same-Spin Scale       =       0.3333333333333333 [-]
	 SCS Opposite-Spin Scale   =       1.2000000000000000 [-]
	 SCS Same-Spin Energy      =      -0.1489943358990807 [Eh]
	 SCS Opposite-Spin Energy  =      -1.6876485415167721 [Eh]
	 SCS Correlation Energy    =      -1.8366428774158527 [Eh]
	 SCS Total Energy          =    -458.4632332062894875 [Eh]
	-----------------------------------------------------------

  Dipole Moment: [D]
     X:    -0.4370      Y:    -1.0381      Z:     0.0516     Total:     1.1275

*** Psi4 exiting successfully. Buy a developer a beer!
