                               Psi4 1.3.2 release

  ==> Input File <==

--------------------------------------------------------------------------
#psi4
#
memory 32 gb

molecule  {
0 1
  O       -1.6636540     1.3623100    -0.0826750
  O        3.2418084     0.9202156    -0.0421610
  O        2.6676780    -1.2988900     0.0825990
  C       -2.5713650    -0.8630400     0.0337620
  C       -1.4513780     0.1516300    -0.0098980
  C       -3.9526870    -0.2300600    -0.0211700
  C       -0.0615660    -0.3898680     0.0323710
  C        1.0290476     0.5026880    -0.0122006
  C        2.3702780    -0.1170190     0.0219370
  H       -2.4419680    -1.4628000     0.9443570
  H       -2.4189490    -1.5634100    -0.8003330
  H       -4.1001540     0.4487780     0.8215890
  H       -4.7285220    -0.9991160     0.0102380
  H       -4.0749460     0.3516660    -0.9371360
  H        0.0882100    -1.4658090     0.0960520
  H        0.8681440     1.5076730    -0.0687300
  H        4.1643390     0.4215720    -0.0233140
units angstrom
no_reorient  #important for SAPT in psi4, default
symmetry c1  #important for SAPT in psi4, default
}

set PROPERTIES_ORIGIN ["COM"]
properties('MP2/aug-cc-pvtz', properties = ['dipole'])
--------------------------------------------------------------------------

    Molecular point group: c1
  Charge       = 0
  Multiplicity = 1
  Basis Set: AUG-CC-PVTZ
    Blend: AUG-CC-PVTZ
  Basis Set: (AUG-CC-PVTZ AUX)
    Blend: AUG-CC-PVTZ-JKFIT

    Orbital Energies [Eh]
    ---------------------

    Doubly Occupied:

       1A    -20.633840     2A    -20.565238     3A    -20.559549
       4A    -11.406290     5A    -11.348545     6A    -11.285215
       7A    -11.277983     8A    -11.251725     9A    -11.224649
      10A     -1.466195    11A     -1.389535    12A     -1.367379
      13A     -1.097462    14A     -1.063303    15A     -0.956628
      16A     -0.879759    17A     -0.791709    18A     -0.754164
      19A     -0.715260    20A     -0.710098    21A     -0.657466
      22A     -0.643357    23A     -0.638867    24A     -0.638649
      25A     -0.596504    26A     -0.584304    27A     -0.538222
      28A     -0.537084    29A     -0.523713    30A     -0.500594
      31A     -0.496611    32A     -0.474195    33A     -0.433663
      34A     -0.390368

  @DF-RHF Final Energy:  -456.60487314420544

   => Energetics <=

    Nuclear Repulsion Energy =            412.7515576219122408
    One-Electron Energy =               -1441.9166133992184768
    Two-Electron Energy =                 572.5601826331006805
    Total Energy =                       -456.6048731442054986
  Basis Set: (AUG-CC-PVTZ AUX)
    Blend: AUG-CC-PVTZ-RI
    Molecular point group: c1

    Geometry (in Angstrom), charge = 0, multiplicity = 1:

       Center              X                  Y                   Z               Mass
    ------------   -----------------  -----------------  -----------------  -----------------
         O           -1.659881156613     1.349798338428    -0.081933843668    15.994914619570
         O            3.245581243387     0.907703938428    -0.041419843668    15.994914619570
         O            2.671450843387    -1.311401661572     0.083340156332    15.994914619570
         C           -2.567592156613    -0.875551661572     0.034503156332    12.000000000000
         C           -1.447605156613     0.139118338428    -0.009156843668    12.000000000000
         C           -3.948914156613    -0.242571661572    -0.020428843668    12.000000000000
         C           -0.057793156613    -0.402379661572     0.033112156332    12.000000000000
         C            1.032820443387     0.490176338428    -0.011459443668    12.000000000000
         C            2.374050843387    -0.129530661572     0.022678156332    12.000000000000
         H           -2.438195156613    -1.475311661572     0.945098156332     1.007825032230
         H           -2.415176156613    -1.575921661572    -0.799591843668     1.007825032230
         H           -4.096381156613     0.436266338428     0.822330156332     1.007825032230
         H           -4.724749156613    -1.011627661572     0.010979156332     1.007825032230
         H           -4.071173156613     0.339154338428    -0.936394843668     1.007825032230
         H            0.091982843387    -1.478320661572     0.096793156332     1.007825032230
         H            0.871916843387     1.495161338428    -0.067988843668     1.007825032230
         H            4.168111843387     0.409060338428    -0.022572843668     1.007825032230

  Basis Set: AUG-CC-PVTZ
    Blend: AUG-CC-PVTZ
  Basis Set: (AUG-CC-PVTZ AUX)
    Blend: AUG-CC-PVTZ-JKFIT
	 Reference Energy          =    -456.6048731442054418 [Eh]
	 Singles Energy            =      -0.0000000000000000 [Eh]
	 Same-Spin Energy          =      -0.4506852752298994 [Eh]
	 Opposite-Spin Energy      =      -1.4144998940804960 [Eh]
	 Correlation Energy        =      -1.8651851693103954 [Eh]
	 Total Energy              =    -458.4700583135158354 [Eh]

	 ================> DF-SCS-MP2 Energies <==================
	-----------------------------------------------------------
	 SCS Same-Spin Scale       =       0.3333333333333333 [-]
	 SCS Opposite-Spin Scale   =       1.2000000000000000 [-]
	 SCS Same-Spin Energy      =      -0.1502284250766331 [Eh]
	 SCS Opposite-Spin Energy  =      -1.6973998728965951 [Eh]
	 SCS Correlation Energy    =      -1.8476282979732281 [Eh]
	 SCS Total Energy          =    -458.4525014421786864 [Eh]
	-----------------------------------------------------------

  Dipole Moment: [D]
     X:    -0.0249      Y:    -1.2035      Z:     0.0634     Total:     1.2054

*** Psi4 exiting successfully. Buy a developer a beer!
