                               Psi4 1.3.2 release

  ==> Input File <==

--------------------------------------------------------------------------
#psi4
#
memory 32 gb

molecule  {
0 1
  O       -1.6636540     1.3623100    -0.0826750
  O        3.2950020     0.8732560    -0.0394660
  O        2.6676780    -1.2988900     0.0825990
  C       -2.5713650    -0.8630400     0.0337620
  C       -1.4610317     0.1609652    -0.0326124
  C       -3.9526870    -0.2300600    -0.0211700
  C       -0.0615660    -0.3898680     0.0323710
  C        0.9984040     0.4317740    -0.0078830
  C        2.3702780    -0.1170190     0.0219370
  H       -2.4576034    -1.4728740     0.9397419
  H       -2.4189490    -1.5634100    -0.8003330
  H       -4.1001540     0.4487780     0.8215890
  H       -4.7285220    -0.9991160     0.0102380
  H       -4.0749460     0.3516660    -0.9371360
  H        0.0882100    -1.4658090     0.0960520
  H        0.8681440     1.5076730    -0.0687300
  H        4.1643390     0.4215720    -0.0233140
units angstrom
no_reorient  #important for SAPT in psi4, default
symmetry c1  #important for SAPT in psi4, default
}

set PROPERTIES_ORIGIN ["COM"]
properties('MP2/aug-cc-pvtz', properties = ['dipole'])
--------------------------------------------------------------------------

    Molecular point group: c1
  Charge       = 0
  Multiplicity = 1
  Basis Set: AUG-CC-PVTZ
    Blend: AUG-CC-PVTZ
  Basis Set: (AUG-CC-PVTZ AUX)
    Blend: AUG-CC-PVTZ-JKFIT

    Orbital Energies [Eh]
    ---------------------

    Doubly Occupied:

       1A    -20.626865     2A    -20.562323     3A    -20.560400
       4A    -11.404548     5A    -11.350042     6A    -11.276232
       7A    -11.273941     8A    -11.252268     9A    -11.225161
      10A     -1.471445    11A     -1.399247    12A     -1.366678
      13A     -1.107150    14A     -1.065910    15A     -0.954781
      16A     -0.886798    17A     -0.797307    18A     -0.746532
      19A     -0.719673    20A     -0.712145    21A     -0.662011
      22A     -0.644290    23A     -0.642526    24A     -0.638675
      25A     -0.606891    26A     -0.570555    27A     -0.542613
      28A     -0.539642    29A     -0.525001    30A     -0.501002
      31A     -0.496547    32A     -0.470372    33A     -0.434461
      34A     -0.404038

  @DF-RHF Final Energy:  -456.62929981910446

   => Energetics <=

    Nuclear Repulsion Energy =            413.4849259229688982
    One-Electron Energy =               -1443.3523157395061389
    Two-Electron Energy =                 573.2380899974327804
    Total Energy =                       -456.6292998191045172
  Basis Set: (AUG-CC-PVTZ AUX)
    Blend: AUG-CC-PVTZ-RI
    Molecular point group: c1

    Geometry (in Angstrom), charge = 0, multiplicity = 1:

       Center              X                  Y                   Z               Mass
    ------------   -----------------  -----------------  -----------------  -----------------
         O           -1.662626248635     1.361514420728    -0.080510100601    15.994914619570
         O            3.296029751365     0.872460420728    -0.037301100601    15.994914619570
         O            2.668705751365    -1.299685579272     0.084763899399    15.994914619570
         C           -2.570337248635    -0.863835579272     0.035926899399    12.000000000000
         C           -1.460003948635     0.160169620728    -0.030447500601    12.000000000000
         C           -3.951659248635    -0.230855579272    -0.019005100601    12.000000000000
         C           -0.060538248635    -0.390663579272     0.034535899399    12.000000000000
         C            0.999431751365     0.430978420728    -0.005718100601    12.000000000000
         C            2.371305751365    -0.117814579272     0.024101899399    12.000000000000
         H           -2.456575648635    -1.473669579272     0.941906799399     1.007825032230
         H           -2.417921248635    -1.564205579272    -0.798168100601     1.007825032230
         H           -4.099126248635     0.447982420728     0.823753899399     1.007825032230
         H           -4.727494248635    -0.999911579272     0.012402899399     1.007825032230
         H           -4.073918248635     0.350870420728    -0.934971100601     1.007825032230
         H            0.089237751365    -1.466604579272     0.098216899399     1.007825032230
         H            0.869171751365     1.506877420728    -0.066565100601     1.007825032230
         H            4.165366751365     0.420776420728    -0.021149100601     1.007825032230

  Basis Set: AUG-CC-PVTZ
    Blend: AUG-CC-PVTZ
  Basis Set: (AUG-CC-PVTZ AUX)
    Blend: AUG-CC-PVTZ-JKFIT
	 Reference Energy          =    -456.6292998191044603 [Eh]
	 Singles Energy            =      -0.0000000000000000 [Eh]
	 Same-Spin Energy          =      -0.4478750069019165 [Eh]
	 Opposite-Spin Energy      =      -1.4082761555810284 [Eh]
	 Correlation Energy        =      -1.8561511624829450 [Eh]
	 Total Energy              =    -458.4854509815874053 [Eh]

	 ================> DF-SCS-MP2 Energies <==================
	-----------------------------------------------------------
	 SCS Same-Spin Scale       =       0.3333333333333333 [-]
	 SCS Opposite-Spin Scale   =       1.2000000000000000 [-]
	 SCS Same-Spin Energy      =      -0.1492916689673055 [Eh]
	 SCS Opposite-Spin Energy  =      -1.6899313866972341 [Eh]
	 SCS Correlation Energy    =      -1.8392230556645397 [Eh]
	 SCS Total Energy          =    -458.4685228747690076 [Eh]
	-----------------------------------------------------------

  Dipole Moment: [D]
     X:    -0.2440      Y:    -1.1538      Z:     0.0456     Total:     1.1802

*** Psi4 exiting successfully. Buy a developer a beer!
