                               Psi4 1.3.2 release

  ==> Input File <==

--------------------------------------------------------------------------
#psi4
#
memory 32 gb

molecule  {
0 1
  O       -1.6636540     1.3623100    -0.0826750
  O        3.2950020     0.8732560    -0.0394660
  O        2.6676780    -1.2988900     0.0825990
  C       -2.5713650    -0.8630400     0.0337620
  C       -1.4606434     0.1273278    -0.0085580
  C       -3.9526870    -0.2300600    -0.0211700
  C       -0.0615660    -0.3898680     0.0323710
  C        0.9984040     0.4317740    -0.0078830
  C        2.3702780    -0.1170190     0.0219370
  H       -2.4419680    -1.4628000     0.9443570
  H       -2.4189490    -1.5634100    -0.8003330
  H       -4.1001540     0.4487780     0.8215890
  H       -4.7285220    -0.9991160     0.0102380
  H       -4.0749460     0.3516660    -0.9371360
  H        0.0693771    -1.4682632     0.0960482
  H        0.8681440     1.5076730    -0.0687300
  H        4.1643390     0.4215720    -0.0233140
units angstrom
no_reorient  #important for SAPT in psi4, default
symmetry c1  #important for SAPT in psi4, default
}

set PROPERTIES_ORIGIN ["COM"]
properties('MP2/aug-cc-pvtz', properties = ['dipole'])
--------------------------------------------------------------------------

    Molecular point group: c1
  Charge       = 0
  Multiplicity = 1
  Basis Set: AUG-CC-PVTZ
    Blend: AUG-CC-PVTZ
  Basis Set: (AUG-CC-PVTZ AUX)
    Blend: AUG-CC-PVTZ-JKFIT

    Orbital Energies [Eh]
    ---------------------

    Doubly Occupied:

       1A    -20.627576     2A    -20.561246     3A    -20.558848
       4A    -11.405516     5A    -11.351418     6A    -11.277804
       7A    -11.276073     8A    -11.253880     9A    -11.226410
      10A     -1.472180    11A     -1.376038    12A     -1.367376
      13A     -1.109221    14A     -1.070313    15A     -0.958963
      16A     -0.890503    17A     -0.800112    18A     -0.745636
      19A     -0.718257    20A     -0.712797    21A     -0.661129
      22A     -0.645282    23A     -0.639981    24A     -0.637993
      25A     -0.606100    26A     -0.568454    27A     -0.540066
      28A     -0.536153    29A     -0.524332    30A     -0.500589
      31A     -0.493504    32A     -0.471044    33A     -0.438348
      34A     -0.403032

  @DF-RHF Final Energy:  -456.62466229447682

   => Energetics <=

    Nuclear Repulsion Energy =            413.3029046171201344
    One-Electron Energy =               -1443.0027900738180051
    Two-Electron Energy =                 573.0752231622209365
    Total Energy =                       -456.6246622944768205
  Basis Set: (AUG-CC-PVTZ AUX)
    Blend: AUG-CC-PVTZ-RI
    Molecular point group: c1

    Geometry (in Angstrom), charge = 0, multiplicity = 1:

       Center              X                  Y                   Z               Mass
    ------------   -----------------  -----------------  -----------------  -----------------
         O           -1.662637471667     1.364606787676    -0.082800661062    15.994914619570
         O            3.296018528333     0.875552787676    -0.039591661062    15.994914619570
         O            2.668694528333    -1.296593212324     0.082473338938    15.994914619570
         C           -2.570348471667    -0.860743212324     0.033636338938    12.000000000000
         C           -1.459626871667     0.129624587676    -0.008683661062    12.000000000000
         C           -3.951670471667    -0.227763212324    -0.021295661062    12.000000000000
         C           -0.060549471667    -0.387571212324     0.032245338938    12.000000000000
         C            0.999420528333     0.434070787676    -0.008008661062    12.000000000000
         C            2.371294528333    -0.114722212324     0.021811338938    12.000000000000
         H           -2.440951471667    -1.460503212324     0.944231338938     1.007825032230
         H           -2.417932471667    -1.561113212324    -0.800458661062     1.007825032230
         H           -4.099137471667     0.451074787676     0.821463338938     1.007825032230
         H           -4.727505471667    -0.996819212324     0.010112338938     1.007825032230
         H           -4.073929471667     0.353962787676    -0.937261661062     1.007825032230
         H            0.070393628333    -1.465966412324     0.095922538938     1.007825032230
         H            0.869160528333     1.509969787676    -0.068855661062     1.007825032230
         H            4.165355528333     0.423868787676    -0.023439661062     1.007825032230

  Basis Set: AUG-CC-PVTZ
    Blend: AUG-CC-PVTZ
  Basis Set: (AUG-CC-PVTZ AUX)
    Blend: AUG-CC-PVTZ-JKFIT
	 Reference Energy          =    -456.6246622944768205 [Eh]
	 Singles Energy            =      -0.0000000000000000 [Eh]
	 Same-Spin Energy          =      -0.4489929589822820 [Eh]
	 Opposite-Spin Energy      =      -1.4105933490837967 [Eh]
	 Correlation Energy        =      -1.8595863080660788 [Eh]
	 Total Energy              =    -458.4842486025428911 [Eh]

	 ================> DF-SCS-MP2 Energies <==================
	-----------------------------------------------------------
	 SCS Same-Spin Scale       =       0.3333333333333333 [-]
	 SCS Opposite-Spin Scale   =       1.2000000000000000 [-]
	 SCS Same-Spin Energy      =      -0.1496643196607607 [Eh]
	 SCS Opposite-Spin Energy  =      -1.6927120189005560 [Eh]
	 SCS Correlation Energy    =      -1.8423763385613166 [Eh]
	 SCS Total Energy          =    -458.4670386330381575 [Eh]
	-----------------------------------------------------------

  Dipole Moment: [D]
     X:    -0.2531      Y:    -1.2745      Z:     0.0658     Total:     1.3010

*** Psi4 exiting successfully. Buy a developer a beer!
