                               Psi4 1.3.2 release

  ==> Input File <==

--------------------------------------------------------------------------
#psi4
#
memory 32 gb

molecule  {
0 1
  O       -1.6636540     1.3623100    -0.0826750
  O        3.2950020     0.8732560    -0.0394660
  O        2.6676780    -1.2988900     0.0825990
  C       -2.5713650    -0.8630400     0.0337620
  C       -1.4561624     0.1563364    -0.0212573
  C       -3.9526870    -0.2300600    -0.0211700
  C       -0.0615660    -0.3898680     0.0323710
  C        0.9984040     0.4317740    -0.0078830
  C        2.3702780    -0.1170190     0.0219370
  H       -2.4497811    -1.4678600     0.9420841
  H       -2.4189490    -1.5634100    -0.8003330
  H       -4.1001540     0.4487780     0.8215890
  H       -4.7285220    -0.9991160     0.0102380
  H       -4.0749460     0.3516660    -0.9371360
  H        0.0882100    -1.4658090     0.0960520
  H        0.8681440     1.5076730    -0.0687300
  H        4.1643390     0.4215720    -0.0233140
units angstrom
no_reorient  #important for SAPT in psi4, default
symmetry c1  #important for SAPT in psi4, default
}

set PROPERTIES_ORIGIN ["COM"]
properties('MP2/aug-cc-pvtz', properties = ['dipole'])
--------------------------------------------------------------------------

    Molecular point group: c1
  Charge       = 0
  Multiplicity = 1
  Basis Set: AUG-CC-PVTZ
    Blend: AUG-CC-PVTZ
  Basis Set: (AUG-CC-PVTZ AUX)
    Blend: AUG-CC-PVTZ-JKFIT

    Orbital Energies [Eh]
    ---------------------

    Doubly Occupied:

       1A    -20.627238     2A    -20.561497     3A    -20.560887
       4A    -11.405002     5A    -11.349984     6A    -11.276535
       7A    -11.274660     8A    -11.252376     9A    -11.225166
      10A     -1.471846    11A     -1.394957    12A     -1.367099
      13A     -1.108126    14A     -1.065792    15A     -0.956027
      16A     -0.887188    17A     -0.798155    18A     -0.746766
      19A     -0.719037    20A     -0.712548    21A     -0.661716
      22A     -0.643901    23A     -0.641873    24A     -0.638917
      25A     -0.606895    26A     -0.570453    27A     -0.541298
      28A     -0.539468    29A     -0.524729    30A     -0.500932
      31A     -0.496380    32A     -0.470800    33A     -0.434945
      34A     -0.404174

  @DF-RHF Final Energy:  -456.62900153187189

   => Energetics <=

    Nuclear Repulsion Energy =            413.4780308163159361
    One-Electron Energy =               -1443.3393287960243470
    Two-Electron Energy =                 573.2322964478366885
    Total Energy =                       -456.6290015318718361
  Basis Set: (AUG-CC-PVTZ AUX)
    Blend: AUG-CC-PVTZ-RI
    Molecular point group: c1

    Geometry (in Angstrom), charge = 0, multiplicity = 1:

       Center              X                  Y                   Z               Mass
    ------------   -----------------  -----------------  -----------------  -----------------
         O           -1.663144143873     1.361908746480    -0.081592682428    15.994914619570
         O            3.295511856127     0.872854746480    -0.038383682428    15.994914619570
         O            2.668187856127    -1.299291253520     0.083681317572    15.994914619570
         C           -2.570855143873    -0.863441253520     0.034844317572    12.000000000000
         C           -1.455652543873     0.155935146480    -0.020174982428    12.000000000000
         C           -3.952177143873    -0.230461253520    -0.020087682428    12.000000000000
         C           -0.061056143873    -0.390269253520     0.033453317572    12.000000000000
         C            0.998913856127     0.431372746480    -0.006800682428    12.000000000000
         C            2.370787856127    -0.117420253520     0.023019317572    12.000000000000
         H           -2.449271243873    -1.468261253520     0.943166417572     1.007825032230
         H           -2.418439143873    -1.563811253520    -0.799250682428     1.007825032230
         H           -4.099644143873     0.448376746480     0.822671317572     1.007825032230
         H           -4.728012143873    -0.999517253520     0.011320317572     1.007825032230
         H           -4.074436143873     0.351264746480    -0.936053682428     1.007825032230
         H            0.088719856127    -1.466210253520     0.097134317572     1.007825032230
         H            0.868653856127     1.507271746480    -0.067647682428     1.007825032230
         H            4.164848856127     0.421170746480    -0.022231682428     1.007825032230

  Basis Set: AUG-CC-PVTZ
    Blend: AUG-CC-PVTZ
  Basis Set: (AUG-CC-PVTZ AUX)
    Blend: AUG-CC-PVTZ-JKFIT
	 Reference Energy          =    -456.6290015318718929 [Eh]
	 Singles Energy            =      -0.0000000000000000 [Eh]
	 Same-Spin Energy          =      -0.4480667182673704 [Eh]
	 Opposite-Spin Energy      =      -1.4086634885470699 [Eh]
	 Correlation Energy        =      -1.8567302068144405 [Eh]
	 Total Energy              =    -458.4857317386863542 [Eh]

	 ================> DF-SCS-MP2 Energies <==================
	-----------------------------------------------------------
	 SCS Same-Spin Scale       =       0.3333333333333333 [-]
	 SCS Opposite-Spin Scale   =       1.2000000000000000 [-]
	 SCS Same-Spin Energy      =      -0.1493555727557901 [Eh]
	 SCS Opposite-Spin Energy  =      -1.6903961862564838 [Eh]
	 SCS Correlation Energy    =      -1.8397517590122741 [Eh]
	 SCS Total Energy          =    -458.4687532908841945 [Eh]
	-----------------------------------------------------------

  Dipole Moment: [D]
     X:    -0.2082      Y:    -1.1682      Z:     0.0537     Total:     1.1878

*** Psi4 exiting successfully. Buy a developer a beer!
