                               Psi4 1.3.2 release

  ==> Input File <==

--------------------------------------------------------------------------
#psi4
#
memory 32 gb

molecule  {
0 1
  O       -1.6636540     1.3623100    -0.0826750
  O        3.2950020     0.8732560    -0.0394660
  O        2.6676780    -1.2988900     0.0825990
  C       -2.5713650    -0.8630400     0.0337620
  C       -1.4778929     0.0782582    -0.0058410
  C       -3.9526870    -0.2300600    -0.0211700
  C       -0.0615660    -0.3898680     0.0323710
  C        0.9984040     0.4317740    -0.0078830
  C        2.3702780    -0.1170190     0.0219370
  H       -2.4419680    -1.4628000     0.9443570
  H       -2.4189490    -1.5634100    -0.8003330
  H       -4.1001540     0.4487780     0.8215890
  H       -4.7285220    -0.9991160     0.0102380
  H       -4.0749460     0.3516660    -0.9371360
  H        0.0315975    -1.4721856     0.0959823
  H        0.8681440     1.5076730    -0.0687300
  H        4.1643390     0.4215720    -0.0233140
units angstrom
no_reorient  #important for SAPT in psi4, default
symmetry c1  #important for SAPT in psi4, default
}

set PROPERTIES_ORIGIN ["COM"]
properties('MP2/aug-cc-pvtz', properties = ['dipole'])
--------------------------------------------------------------------------

    Molecular point group: c1
  Charge       = 0
  Multiplicity = 1
  Basis Set: AUG-CC-PVTZ
    Blend: AUG-CC-PVTZ
  Basis Set: (AUG-CC-PVTZ AUX)
    Blend: AUG-CC-PVTZ-JKFIT

    Orbital Energies [Eh]
    ---------------------

    Doubly Occupied:

       1A    -20.627594     2A    -20.561115     3A    -20.554852
       4A    -11.405735     5A    -11.354322     6A    -11.279863
       7A    -11.277798     8A    -11.256066     9A    -11.228837
      10A     -1.472147    11A     -1.367294    12A     -1.348222
      13A     -1.110423    14A     -1.079317    15A     -0.962626
      16A     -0.896151    17A     -0.802586    18A     -0.743192
      19A     -0.718589    20A     -0.712608    21A     -0.661309
      22A     -0.649581    23A     -0.640743    24A     -0.633750
      25A     -0.603838    26A     -0.565009    27A     -0.541740
      28A     -0.532438    29A     -0.522666    30A     -0.500061
      31A     -0.485218    32A     -0.470883    33A     -0.441232
      34A     -0.400219

  @DF-RHF Final Energy:  -456.61083615458443

   => Energetics <=

    Nuclear Repulsion Energy =            413.0125032553832511
    One-Electron Energy =               -1442.4306263836388098
    Two-Electron Energy =                 572.8072869736711255
    Total Energy =                       -456.6108361545843763
  Basis Set: (AUG-CC-PVTZ AUX)
    Blend: AUG-CC-PVTZ-RI
    Molecular point group: c1

    Geometry (in Angstrom), charge = 0, multiplicity = 1:

       Center              X                  Y                   Z               Mass
    ------------   -----------------  -----------------  -----------------  -----------------
         O           -1.660723576239     1.369236233894    -0.083054766952    15.994914619570
         O            3.297932423761     0.880182233894    -0.039845766952    15.994914619570
         O            2.670608423761    -1.291963766106     0.082219233048    15.994914619570
         C           -2.568434576239    -0.856113766106     0.033382233048    12.000000000000
         C           -1.474962476239     0.085184433894    -0.006220766952    12.000000000000
         C           -3.949756576239    -0.223133766106    -0.021549766952    12.000000000000
         C           -0.058635576239    -0.382941766106     0.031991233048    12.000000000000
         C            1.001334423761     0.438700233894    -0.008262766952    12.000000000000
         C            2.373208423761    -0.110092766106     0.021557233048    12.000000000000
         H           -2.439037576239    -1.455873766106     0.943977233048     1.007825032230
         H           -2.416018576239    -1.556483766106    -0.800712766952     1.007825032230
         H           -4.097223576239     0.455704233894     0.821209233048     1.007825032230
         H           -4.725591576239    -0.992189766106     0.009858233048     1.007825032230
         H           -4.072015576239     0.358592233894    -0.937515766952     1.007825032230
         H            0.034527923761    -1.465259366106     0.095602533048     1.007825032230
         H            0.871074423761     1.514599233894    -0.069109766952     1.007825032230
         H            4.167269423761     0.428498233894    -0.023693766952     1.007825032230

  Basis Set: AUG-CC-PVTZ
    Blend: AUG-CC-PVTZ
  Basis Set: (AUG-CC-PVTZ AUX)
    Blend: AUG-CC-PVTZ-JKFIT
	 Reference Energy          =    -456.6108361545844332 [Eh]
	 Singles Energy            =      -0.0000000000000000 [Eh]
	 Same-Spin Energy          =      -0.4506945884828830 [Eh]
	 Opposite-Spin Energy      =      -1.4140614660514332 [Eh]
	 Correlation Energy        =      -1.8647560545343163 [Eh]
	 Total Energy              =    -458.4755922091187585 [Eh]

	 ================> DF-SCS-MP2 Energies <==================
	-----------------------------------------------------------
	 SCS Same-Spin Scale       =       0.3333333333333333 [-]
	 SCS Opposite-Spin Scale   =       1.2000000000000000 [-]
	 SCS Same-Spin Energy      =      -0.1502315294942943 [Eh]
	 SCS Opposite-Spin Energy  =      -1.6968737592617198 [Eh]
	 SCS Correlation Energy    =      -1.8471052887560142 [Eh]
	 SCS Total Energy          =    -458.4579414433404736 [Eh]
	-----------------------------------------------------------

  Dipole Moment: [D]
     X:    -0.4073      Y:    -1.4393      Z:     0.0733     Total:     1.4976

*** Psi4 exiting successfully. Buy a developer a beer!
