                               Psi4 1.3.2 release

  ==> Input File <==

--------------------------------------------------------------------------
#psi4
#
memory 32 gb

molecule  {
0 1
  O       -1.6636540     1.3623100    -0.0826750
  O        3.2950020     0.8732560    -0.0394660
  O        2.6676780    -1.2988900     0.0825990
  C       -2.5713650    -0.8630400     0.0337620
  C       -1.4513780     0.1516300    -0.0098980
  C       -3.9526870    -0.2300600    -0.0211700
  C       -0.0615660    -0.3898680     0.0323710
  C        0.9984040     0.4317740    -0.0078830
  C        2.3020977    -0.1900324     0.0264643
  H       -2.4419680    -1.4628000     0.9443570
  H       -2.4189490    -1.5634100    -0.8003330
  H       -4.1001540     0.4487780     0.8215890
  H       -4.7285220    -0.9991160     0.0102380
  H       -4.0749460     0.3516660    -0.9371360
  H        0.0882100    -1.4658090     0.0960520
  H        0.8681440     1.5076730    -0.0687300
  H        4.1643390     0.4215720    -0.0233140
units angstrom
no_reorient  #important for SAPT in psi4, default
symmetry c1  #important for SAPT in psi4, default
}

set PROPERTIES_ORIGIN ["COM"]
properties('MP2/aug-cc-pvtz', properties = ['dipole'])
--------------------------------------------------------------------------

    Molecular point group: c1
  Charge       = 0
  Multiplicity = 1
  Basis Set: AUG-CC-PVTZ
    Blend: AUG-CC-PVTZ
  Basis Set: (AUG-CC-PVTZ AUX)
    Blend: AUG-CC-PVTZ-JKFIT

    Orbital Energies [Eh]
    ---------------------

    Doubly Occupied:

       1A    -20.596859     2A    -20.575491     3A    -20.565279
       4A    -11.402734     5A    -11.353601     6A    -11.282634
       7A    -11.278371     8A    -11.255530     9A    -11.227491
      10A     -1.469479    11A     -1.394749    12A     -1.356096
      13A     -1.120231    14A     -1.069915    15A     -0.960464
      16A     -0.883726    17A     -0.784469    18A     -0.756347
      19A     -0.716338    20A     -0.708078    21A     -0.659161
      22A     -0.645231    23A     -0.640876    24A     -0.630031
      25A     -0.609964    26A     -0.580899    27A     -0.542698
      28A     -0.542147    29A     -0.527173    30A     -0.502454
      31A     -0.499797    32A     -0.472530    33A     -0.438948
      34A     -0.411662

  @DF-RHF Final Energy:  -456.61789446461705

   => Energetics <=

    Nuclear Repulsion Energy =            413.8634383230075287
    One-Electron Energy =               -1444.0397639070974947
    Two-Electron Energy =                 573.5584311194728571
    Total Energy =                       -456.6178944646170521
  Basis Set: (AUG-CC-PVTZ AUX)
    Blend: AUG-CC-PVTZ-RI
    Molecular point group: c1

    Geometry (in Angstrom), charge = 0, multiplicity = 1:

       Center              X                  Y                   Z               Mass
    ------------   -----------------  -----------------  -----------------  -----------------
         O           -1.657264470480     1.369152457872    -0.083099389864    15.994914619570
         O            3.301391529520     0.880098457872    -0.039890389864    15.994914619570
         O            2.674067529520    -1.292047542128     0.082174610136    15.994914619570
         C           -2.564975470480    -0.856197542128     0.033337610136    12.000000000000
         C           -1.444988470480     0.158472457872    -0.010322389864    12.000000000000
         C           -3.946297470480    -0.223217542128    -0.021594389864    12.000000000000
         C           -0.055176470480    -0.383025542128     0.031946610136    12.000000000000
         C            1.004793529520     0.438616457872    -0.008307389864    12.000000000000
         C            2.308487229520    -0.183189942128     0.026039910136    12.000000000000
         H           -2.435578470480    -1.455957542128     0.943932610136     1.007825032230
         H           -2.412559470480    -1.556567542128    -0.800757389864     1.007825032230
         H           -4.093764470480     0.455620457872     0.821164610136     1.007825032230
         H           -4.722132470480    -0.992273542128     0.009813610136     1.007825032230
         H           -4.068556470480     0.358508457872    -0.937560389864     1.007825032230
         H            0.094599529520    -1.458966542128     0.095627610136     1.007825032230
         H            0.874533529520     1.514515457872    -0.069154389864     1.007825032230
         H            4.170728529520     0.428414457872    -0.023738389864     1.007825032230

  Basis Set: AUG-CC-PVTZ
    Blend: AUG-CC-PVTZ
  Basis Set: (AUG-CC-PVTZ AUX)
    Blend: AUG-CC-PVTZ-JKFIT
	 Reference Energy          =    -456.6178944646170521 [Eh]
	 Singles Energy            =      -0.0000000000000000 [Eh]
	 Same-Spin Energy          =      -0.4484260494393922 [Eh]
	 Opposite-Spin Energy      =      -1.4097700292274746 [Eh]
	 Correlation Energy        =      -1.8581960786668668 [Eh]
	 Total Energy              =    -458.4760905432839309 [Eh]

	 ================> DF-SCS-MP2 Energies <==================
	-----------------------------------------------------------
	 SCS Same-Spin Scale       =       0.3333333333333333 [-]
	 SCS Opposite-Spin Scale   =       1.2000000000000000 [-]
	 SCS Same-Spin Energy      =      -0.1494753498131307 [Eh]
	 SCS Opposite-Spin Energy  =      -1.6917240350729694 [Eh]
	 SCS Correlation Energy    =      -1.8411993848861001 [Eh]
	 SCS Total Energy          =    -458.4590938495031764 [Eh]
	-----------------------------------------------------------

  Dipole Moment: [D]
     X:    -0.9174      Y:    -1.8169      Z:     0.0986     Total:     2.0377

*** Psi4 exiting successfully. Buy a developer a beer!
