                               Psi4 1.3.2 release

  ==> Input File <==

--------------------------------------------------------------------------
#psi4
#
memory 32 gb

molecule  {
0 1
  O       -1.6636540     1.3623100    -0.0826750
  O        3.2950020     0.8732560    -0.0394660
  O        2.6676780    -1.2988900     0.0825990
  C       -2.5713650    -0.8630400     0.0337620
  C       -1.4513780     0.1516300    -0.0098980
  C       -3.9526870    -0.2300600    -0.0211700
  C       -0.0615660    -0.3898680     0.0323710
  C        0.9984040     0.4317740    -0.0078830
  C        2.4054651    -0.1486605     0.0233046
  H       -2.4419680    -1.4628000     0.9443570
  H       -2.4189490    -1.5634100    -0.8003330
  H       -4.1001540     0.4487780     0.8215890
  H       -4.7285220    -0.9991160     0.0102380
  H       -4.0749460     0.3516660    -0.9371360
  H        0.0882100    -1.4658090     0.0960520
  H        0.8681440     1.5076730    -0.0687300
  H        4.1480389     0.3915574    -0.0215606
units angstrom
no_reorient  #important for SAPT in psi4, default
symmetry c1  #important for SAPT in psi4, default
}

set PROPERTIES_ORIGIN ["COM"]
properties('MP2/aug-cc-pvtz', properties = ['dipole'])
--------------------------------------------------------------------------

    Molecular point group: c1
  Charge       = 0
  Multiplicity = 1
  Basis Set: AUG-CC-PVTZ
    Blend: AUG-CC-PVTZ
  Basis Set: (AUG-CC-PVTZ AUX)
    Blend: AUG-CC-PVTZ-JKFIT

    Orbital Energies [Eh]
    ---------------------

    Doubly Occupied:

       1A    -20.629388     2A    -20.569159     3A    -20.556908
       4A    -11.404341     5A    -11.346815     6A    -11.275465
       7A    -11.269620     8A    -11.250291     9A    -11.223502
      10A     -1.485714    11A     -1.390758    12A     -1.387190
      13A     -1.101912    14A     -1.062239    15A     -0.948459
      16A     -0.882274    17A     -0.794832    18A     -0.744822
      19A     -0.722486    20A     -0.715710    21A     -0.665258
      22A     -0.650439    23A     -0.639075    24A     -0.637474
      25A     -0.610057    26A     -0.570691    27A     -0.537676
      28A     -0.537487    29A     -0.522528    30A     -0.510782
      31A     -0.496336    32A     -0.473602    33A     -0.431544
      34A     -0.401861

  @DF-RHF Final Energy:  -456.62809573207767

   => Energetics <=

    Nuclear Repulsion Energy =            413.5706129814682299
    One-Electron Energy =               -1443.5040301403269041
    Two-Electron Energy =                 573.3053214267810063
    Total Energy =                       -456.6280957320776679
  Basis Set: (AUG-CC-PVTZ AUX)
    Blend: AUG-CC-PVTZ-RI
    Molecular point group: c1

    Geometry (in Angstrom), charge = 0, multiplicity = 1:

       Center              X                  Y                   Z               Mass
    ------------   -----------------  -----------------  -----------------  -----------------
         O           -1.666823287648     1.365511512892    -0.082817078038    15.994914619570
         O            3.291832712352     0.876457512892    -0.039608078038    15.994914619570
         O            2.664508712352    -1.295688487108     0.082456921962    15.994914619570
         C           -2.574534287648    -0.859838487108     0.033619921962    12.000000000000
         C           -1.454547287648     0.154831512892    -0.010040078038    12.000000000000
         C           -3.955856287648    -0.226858487108    -0.021312078038    12.000000000000
         C           -0.064735287648    -0.386666487108     0.032228921962    12.000000000000
         C            0.995234712352     0.434975512892    -0.008025078038    12.000000000000
         C            2.402295812352    -0.145458987108     0.023162521962    12.000000000000
         H           -2.445137287648    -1.459598487108     0.944214921962     1.007825032230
         H           -2.422118287648    -1.560208487108    -0.800475078038     1.007825032230
         H           -4.103323287648     0.451979512892     0.821446921962     1.007825032230
         H           -4.731691287648    -0.995914487108     0.010095921962     1.007825032230
         H           -4.078115287648     0.354867512892    -0.937278078038     1.007825032230
         H            0.085040712352    -1.462607487108     0.095909921962     1.007825032230
         H            0.864974712352     1.510874512892    -0.068872078038     1.007825032230
         H            4.144869612352     0.394758912892    -0.021702678038     1.007825032230

  Basis Set: AUG-CC-PVTZ
    Blend: AUG-CC-PVTZ
  Basis Set: (AUG-CC-PVTZ AUX)
    Blend: AUG-CC-PVTZ-JKFIT
	 Reference Energy          =    -456.6280957320776679 [Eh]
	 Singles Energy            =      -0.0000000000000000 [Eh]
	 Same-Spin Energy          =      -0.4473971529010916 [Eh]
	 Opposite-Spin Energy      =      -1.4073138541145849 [Eh]
	 Correlation Energy        =      -1.8547110070156765 [Eh]
	 Total Energy              =    -458.4828067390933484 [Eh]

	 ================> DF-SCS-MP2 Energies <==================
	-----------------------------------------------------------
	 SCS Same-Spin Scale       =       0.3333333333333333 [-]
	 SCS Opposite-Spin Scale   =       1.2000000000000000 [-]
	 SCS Same-Spin Energy      =      -0.1491323843003639 [Eh]
	 SCS Opposite-Spin Energy  =      -1.6887766249375018 [Eh]
	 SCS Correlation Energy    =      -1.8379090092378656 [Eh]
	 SCS Total Energy          =    -458.4660047413155439 [Eh]
	-----------------------------------------------------------

  Dipole Moment: [D]
     X:     0.0880      Y:    -1.3905      Z:     0.0734     Total:     1.3952

*** Psi4 exiting successfully. Buy a developer a beer!
