                               Psi4 1.3.2 release

  ==> Input File <==

--------------------------------------------------------------------------
#psi4
#
memory 32 gb

molecule  {
0 1
  O       -1.6636540     1.3623100    -0.0826750
  O        3.2863086     0.8812747    -0.0399271
  O        2.6676780    -1.2988900     0.0825990
  C       -2.5713650    -0.8630400     0.0337620
  C       -1.4513780     0.1516300    -0.0098980
  C       -3.9526870    -0.2300600    -0.0211700
  C       -0.0615660    -0.3898680     0.0323710
  C        1.0032523     0.4437028    -0.0086086
  C        2.3702780    -0.1170190     0.0219370
  H       -2.4419680    -1.4628000     0.9443570
  H       -2.4189490    -1.5634100    -0.8003330
  H       -4.1001540     0.4487780     0.8215890
  H       -4.7285220    -0.9991160     0.0102380
  H       -4.0749460     0.3516660    -0.9371360
  H        0.0882100    -1.4658090     0.0960520
  H        0.8681440     1.5076730    -0.0687300
  H        4.1643390     0.4215720    -0.0233140
units angstrom
no_reorient  #important for SAPT in psi4, default
symmetry c1  #important for SAPT in psi4, default
}

set PROPERTIES_ORIGIN ["COM"]
properties('MP2/aug-cc-pvtz', properties = ['dipole'])
--------------------------------------------------------------------------

    Molecular point group: c1
  Charge       = 0
  Multiplicity = 1
  Basis Set: AUG-CC-PVTZ
    Blend: AUG-CC-PVTZ
  Basis Set: (AUG-CC-PVTZ AUX)
    Blend: AUG-CC-PVTZ-JKFIT

    Orbital Energies [Eh]
    ---------------------

    Doubly Occupied:

       1A    -20.628703     2A    -20.561965     3A    -20.560487
       4A    -11.405480     5A    -11.349721     6A    -11.278068
       7A    -11.275962     8A    -11.252371     9A    -11.225089
      10A     -1.471054    11A     -1.390437    12A     -1.367376
      13A     -1.106987    14A     -1.065340    15A     -0.957098
      16A     -0.886131    17A     -0.797311    18A     -0.748312
      19A     -0.717265    20A     -0.712995    21A     -0.660158
      22A     -0.643804    23A     -0.640610    24A     -0.639046
      25A     -0.605724    26A     -0.573083    27A     -0.539721
      28A     -0.539019    29A     -0.524310    30A     -0.500790
      31A     -0.496165    32A     -0.471821    33A     -0.435077
      34A     -0.401915

  @DF-RHF Final Energy:  -456.62652471830529

   => Energetics <=

    Nuclear Repulsion Energy =            413.3375541520375691
    One-Electron Energy =               -1443.0693684341699736
    Two-Electron Energy =                 573.1052895638270002
    Total Energy =                       -456.6265247183052907
  Basis Set: (AUG-CC-PVTZ AUX)
    Blend: AUG-CC-PVTZ-RI
    Molecular point group: c1

    Geometry (in Angstrom), charge = 0, multiplicity = 1:

       Center              X                  Y                   Z               Mass
    ------------   -----------------  -----------------  -----------------  -----------------
         O           -1.663022442380     1.360190422542    -0.082549514694    15.994914619570
         O            3.286940157620     0.879155122542    -0.039801614694    15.994914619570
         O            2.668309557620    -1.301009577458     0.082724485306    15.994914619570
         C           -2.570733442380    -0.865159577458     0.033887485306    12.000000000000
         C           -1.450746442380     0.149510422542    -0.009772514694    12.000000000000
         C           -3.952055442380    -0.232179577458    -0.021044514694    12.000000000000
         C           -0.060934442380    -0.391987577458     0.032496485306    12.000000000000
         C            1.003883857620     0.441583222542    -0.008483114694    12.000000000000
         C            2.370909557620    -0.119138577458     0.022062485306    12.000000000000
         H           -2.441336442380    -1.464919577458     0.944482485306     1.007825032230
         H           -2.418317442380    -1.565529577458    -0.800207514694     1.007825032230
         H           -4.099522442380     0.446658422542     0.821714485306     1.007825032230
         H           -4.727890442380    -1.001235577458     0.010363485306     1.007825032230
         H           -4.074314442380     0.349546422542    -0.937010514694     1.007825032230
         H            0.088841557620    -1.467928577458     0.096177485306     1.007825032230
         H            0.868775557620     1.505553422542    -0.068604514694     1.007825032230
         H            4.164970557620     0.419452422542    -0.023188514694     1.007825032230

  Basis Set: AUG-CC-PVTZ
    Blend: AUG-CC-PVTZ
  Basis Set: (AUG-CC-PVTZ AUX)
    Blend: AUG-CC-PVTZ-JKFIT
	 Reference Energy          =    -456.6265247183052907 [Eh]
	 Singles Energy            =      -0.0000000000000000 [Eh]
	 Same-Spin Energy          =      -0.4486217188170594 [Eh]
	 Opposite-Spin Energy      =      -1.4098607804473908 [Eh]
	 Correlation Energy        =      -1.8584824992644502 [Eh]
	 Total Energy              =    -458.4850072175697164 [Eh]

	 ================> DF-SCS-MP2 Energies <==================
	-----------------------------------------------------------
	 SCS Same-Spin Scale       =       0.3333333333333333 [-]
	 SCS Opposite-Spin Scale   =       1.2000000000000000 [-]
	 SCS Same-Spin Energy      =      -0.1495405729390198 [Eh]
	 SCS Opposite-Spin Energy  =      -1.6918329365368689 [Eh]
	 SCS Correlation Energy    =      -1.8413735094758887 [Eh]
	 SCS Total Energy          =    -458.4678982277811770 [Eh]
	-----------------------------------------------------------

  Dipole Moment: [D]
     X:    -0.1495      Y:    -1.1848      Z:     0.0618     Total:     1.1958

*** Psi4 exiting successfully. Buy a developer a beer!
