                               Psi4 1.3.2 release

  ==> Input File <==

--------------------------------------------------------------------------
#psi4
#
memory 32 gb

molecule  {
0 1
  O       -1.6636540     1.3623100    -0.0826750
  O        3.2950020     0.8732560    -0.0394660
  O        2.6676780    -1.2988900     0.0825990
  C       -2.5713650    -0.8630400     0.0337620
  C       -1.4813508     0.1786972    -0.0779738
  C       -3.9526870    -0.2300600    -0.0211700
  C       -0.0615660    -0.3898680     0.0323710
  C        0.9984040     0.4317740    -0.0078830
  C        2.3702780    -0.1170190     0.0219370
  H       -2.4889733    -1.4924618     0.9296854
  H       -2.4189490    -1.5634100    -0.8003330
  H       -4.1001540     0.4487780     0.8215890
  H       -4.7285220    -0.9991160     0.0102380
  H       -4.0749460     0.3516660    -0.9371360
  H        0.0882100    -1.4658090     0.0960520
  H        0.8681440     1.5076730    -0.0687300
  H        4.1643390     0.4215720    -0.0233140
units angstrom
no_reorient  #important for SAPT in psi4, default
symmetry c1  #important for SAPT in psi4, default
}

set PROPERTIES_ORIGIN ["COM"]
properties('MP2/aug-cc-pvtz', properties = ['dipole'])
--------------------------------------------------------------------------

    Molecular point group: c1
  Charge       = 0
  Multiplicity = 1
  Basis Set: AUG-CC-PVTZ
    Blend: AUG-CC-PVTZ
  Basis Set: (AUG-CC-PVTZ AUX)
    Blend: AUG-CC-PVTZ-JKFIT

    Orbital Energies [Eh]
    ---------------------

    Doubly Occupied:

       1A    -20.625317     2A    -20.565879     3A    -20.558392
       4A    -11.402674     5A    -11.350731     6A    -11.275309
       7A    -11.270631     8A    -11.252090     9A    -11.225224
      10A     -1.469789    11A     -1.415873    12A     -1.364932
      13A     -1.103180    14A     -1.066547    15A     -0.949767
      16A     -0.885317    17A     -0.793964    18A     -0.745772
      19A     -0.722151    20A     -0.710486    21A     -0.663662
      22A     -0.648715    23A     -0.642310    24A     -0.637599
      25A     -0.606405    26A     -0.570631    27A     -0.548348
      28A     -0.540658    29A     -0.525835    30A     -0.501633
      31A     -0.496119    32A     -0.468639    33A     -0.431807
      34A     -0.402886

  @DF-RHF Final Energy:  -456.62722007893547

   => Energetics <=

    Nuclear Repulsion Energy =            413.4813271413825646
    One-Electron Energy =               -1443.3385472640486569
    Two-Electron Energy =                 573.2300000437306835
    Total Energy =                       -456.6272200789354656
  Basis Set: (AUG-CC-PVTZ AUX)
    Blend: AUG-CC-PVTZ-RI
    Molecular point group: c1

    Geometry (in Angstrom), charge = 0, multiplicity = 1:

       Center              X                  Y                   Z               Mass
    ------------   -----------------  -----------------  -----------------  -----------------
         O           -1.660475133574     1.360006830499    -0.076179889801    15.994914619570
         O            3.298180866426     0.870952830499    -0.032970889801    15.994914619570
         O            2.670856866426    -1.301193169501     0.089094110199    15.994914619570
         C           -2.568186133574    -0.865343169501     0.040257110199    12.000000000000
         C           -1.478171933574     0.176394030499    -0.071478689801    12.000000000000
         C           -3.949508133574    -0.232363169501    -0.014674889801    12.000000000000
         C           -0.058387133574    -0.392171169501     0.038866110199    12.000000000000
         C            1.001582866426     0.429470830499    -0.001387889801    12.000000000000
         C            2.373456866426    -0.119322169501     0.028432110199    12.000000000000
         H           -2.485794433574    -1.494764969501     0.936180510199     1.007825032230
         H           -2.415770133574    -1.565713169501    -0.793837889801     1.007825032230
         H           -4.096975133574     0.446474830499     0.828084110199     1.007825032230
         H           -4.725343133574    -1.001419169501     0.016733110199     1.007825032230
         H           -4.071767133574     0.349362830499    -0.930640889801     1.007825032230
         H            0.091388866426    -1.468112169501     0.102547110199     1.007825032230
         H            0.871322866426     1.505369830499    -0.062234889801     1.007825032230
         H            4.167517866426     0.419268830499    -0.016818889801     1.007825032230

  Basis Set: AUG-CC-PVTZ
    Blend: AUG-CC-PVTZ
  Basis Set: (AUG-CC-PVTZ AUX)
    Blend: AUG-CC-PVTZ-JKFIT
	 Reference Energy          =    -456.6272200789354656 [Eh]
	 Singles Energy            =      -0.0000000000000000 [Eh]
	 Same-Spin Energy          =      -0.4472759006985539 [Eh]
	 Opposite-Spin Energy      =      -1.4070943888560143 [Eh]
	 Correlation Energy        =      -1.8543702895545682 [Eh]
	 Total Energy              =    -458.4815903684900604 [Eh]

	 ================> DF-SCS-MP2 Energies <==================
	-----------------------------------------------------------
	 SCS Same-Spin Scale       =       0.3333333333333333 [-]
	 SCS Opposite-Spin Scale   =       1.2000000000000000 [-]
	 SCS Same-Spin Energy      =      -0.1490919668995180 [Eh]
	 SCS Opposite-Spin Energy  =      -1.6885132666272171 [Eh]
	 SCS Correlation Energy    =      -1.8376052335267352 [Eh]
	 SCS Total Energy          =    -458.4648253124622101 [Eh]
	-----------------------------------------------------------

  Dipole Moment: [D]
     X:    -0.4015      Y:    -1.0918      Z:     0.0091     Total:     1.1633

*** Psi4 exiting successfully. Buy a developer a beer!
