                               Psi4 1.4a3.dev225

  ==> Input File <==

--------------------------------------------------------------------------
#psi4
#
memory 32 gb

molecule  {
0 1
  O       -1.5457390    -1.4151030    -0.0000120
  O        3.4055420    -0.8324430     0.0000000
  O        2.7346890     1.3362110     0.0000030
  C       -2.4962220     0.7973420     0.0000070
  C       -1.3569730    -0.1975560    -0.0000120
  C       -3.8659970     0.1363490     0.0000100
  C        0.0231420     0.3709680    -0.0000240
  C        1.1163054    -0.4444300     0.0000176
  C        2.4625110     0.1452670     0.0000070
  H       -2.3684100     1.4519690    -0.8733630
  H       -2.3683970     1.4519470     0.8733920
  H       -3.9887950    -0.4970190    -0.8807080
  H       -4.6559460     0.8916380     0.0000190
  H       -3.9887860    -0.4970320     0.8807180
  H        0.1589340     1.4510060    -0.0000590
  H        0.9863010    -1.5124980     0.0000520
  H        4.2687480    -0.3687180    -0.0000090
units angstrom
no_reorient  #important for SAPT in psi4, default
symmetry c1  #important for SAPT in psi4, default
}

set PROPERTIES_ORIGIN ["COM"]
properties('MP2/aug-cc-pvtz', properties = ['dipole'])
--------------------------------------------------------------------------

    Molecular point group: c1
  Charge       = 0
  Multiplicity = 1
  Basis Set: AUG-CC-PVTZ
    Blend: AUG-CC-PVTZ
  Basis Set: (AUG-CC-PVTZ AUX)
    Blend: AUG-CC-PVTZ-JKFIT

    Orbital Energies [Eh]
    ---------------------

    Doubly Occupied:

       1A    -20.626993     2A    -20.561685     3A    -20.561365
       4A    -11.405713     5A    -11.350848     6A    -11.280441
       7A    -11.277408     8A    -11.252996     9A    -11.225426
      10A     -1.470823    11A     -1.390589    12A     -1.366979
      13A     -1.105744    14A     -1.065535    15A     -0.958969
      16A     -0.887131    17A     -0.798993    18A     -0.748116
      19A     -0.718593    20A     -0.712279    21A     -0.660219
      22A     -0.643596    23A     -0.640059    24A     -0.638781
      25A     -0.605778    26A     -0.572713    27A     -0.539875
      28A     -0.539205    29A     -0.524716    30A     -0.500782
      31A     -0.496124    32A     -0.472165    33A     -0.436031
      34A     -0.399931

  @DF-RHF Final Energy:  -456.62599620893889

   => Energetics <=

    Nuclear Repulsion Energy =            413.0115255460658545
    One-Electron Energy =               -1442.4018456591163613
    Two-Electron Energy =                 572.7643239041117340
    Total Energy =                       -456.6259962089388864
  Basis Set: (AUG-CC-PVTZ AUX)
    Blend: AUG-CC-PVTZ-RI
    Molecular point group: c1

    Geometry (in Angstrom), charge = 0, multiplicity = 1:

       Center              X                  Y                   Z               Mass
    ------------   -----------------  -----------------  -----------------  -----------------
         O           -1.639702637523    -1.395644595081    -0.000011731150    15.994914619570
         O            3.311578362477    -0.812984595081     0.000000268850    15.994914619570
         O            2.640725362477     1.355669404919     0.000003268850    15.994914619570
         C           -2.590185637523     0.816800404919     0.000007268850    12.000000000000
         C           -1.450936637523    -0.178097595081    -0.000011731150    12.000000000000
         C           -3.959960637523     0.155807404919     0.000010268850    12.000000000000
         C           -0.070821637523     0.390426404919    -0.000023731150    12.000000000000
         C            1.022341762477    -0.424971595081     0.000017868850    12.000000000000
         C            2.368547362477     0.164725404919     0.000007268850    12.000000000000
         H           -2.462373637523     1.471427404919    -0.873362731150     1.007825032230
         H           -2.462360637523     1.471405404919     0.873392268850     1.007825032230
         H           -4.082758637523    -0.477560595081    -0.880707731150     1.007825032230
         H           -4.749909637523     0.911096404919     0.000019268850     1.007825032230
         H           -4.082749637523    -0.477573595081     0.880718268850     1.007825032230
         H            0.064970362477     1.470464404919    -0.000058731150     1.007825032230
         H            0.892337362477    -1.493039595081     0.000052268850     1.007825032230
         H            4.174784362477    -0.349259595081    -0.000008731150     1.007825032230

  Basis Set: AUG-CC-PVTZ
    Blend: AUG-CC-PVTZ
  Basis Set: (AUG-CC-PVTZ AUX)
    Blend: AUG-CC-PVTZ-JKFIT
	 Reference Energy          =    -456.6259962089388864 [Eh]
	 Singles Energy            =      -0.0000000000000000 [Eh]
	 Same-Spin Energy          =      -0.4486957088023104 [Eh]
	 Opposite-Spin Energy      =      -1.4100846730049574 [Eh]
	 Correlation Energy        =      -1.8587803818072679 [Eh]
	 Total Energy              =    -458.4847765907461508 [Eh]

	 ================> DF-SCS-MP2 Energies <==================
	-----------------------------------------------------------
	 SCS Same-Spin Scale       =       0.3333333333333333 [-]
	 SCS Opposite-Spin Scale   =       1.2000000000000000 [-]
	 SCS Same-Spin Energy      =      -0.1495652362674368 [Eh]
	 SCS Opposite-Spin Energy  =      -1.6921016076059490 [Eh]
	 SCS Correlation Energy    =      -1.8416668438733856 [Eh]
	 SCS Total Energy          =    -458.4676630528122701 [Eh]
	-----------------------------------------------------------

  Dipole Moment: [D]
     X:    -0.2127      Y:     1.1742      Z:     0.0000     Total:     1.1933

*** Psi4 exiting successfully. Buy a developer a beer!
