                               Psi4 1.3.2 release

  ==> Input File <==

--------------------------------------------------------------------------
#psi4
#
memory 32 gb

molecule  {
0 1
  O       -1.6742291     1.3604062    -0.0827063
  O        3.2950020     0.8732560    -0.0394660
  O        2.6676780    -1.2988900     0.0825990
  C       -2.5801834    -0.8532500     0.0330786
  C       -1.4513780     0.1516300    -0.0098980
  C       -3.9526870    -0.2300600    -0.0211700
  C       -0.0615660    -0.3898680     0.0323710
  C        0.9984040     0.4317740    -0.0078830
  C        2.3702780    -0.1170190     0.0219370
  H       -2.4419680    -1.4628000     0.9443570
  H       -2.4189490    -1.5634100    -0.8003330
  H       -4.1001540     0.4487780     0.8215890
  H       -4.7285220    -0.9991160     0.0102380
  H       -4.0749460     0.3516660    -0.9371360
  H        0.0882100    -1.4658090     0.0960520
  H        0.8681440     1.5076730    -0.0687300
  H        4.1643390     0.4215720    -0.0233140
units angstrom
no_reorient  #important for SAPT in psi4, default
symmetry c1  #important for SAPT in psi4, default
}

set PROPERTIES_ORIGIN ["COM"]
properties('MP2/aug-cc-pvtz', properties = ['dipole'])
--------------------------------------------------------------------------

    Molecular point group: c1
  Charge       = 0
  Multiplicity = 1
  Basis Set: AUG-CC-PVTZ
    Blend: AUG-CC-PVTZ
  Basis Set: (AUG-CC-PVTZ AUX)
    Blend: AUG-CC-PVTZ-JKFIT

    Orbital Energies [Eh]
    ---------------------

    Doubly Occupied:

       1A    -20.627906     2A    -20.561729     3A    -20.560203
       4A    -11.405830     5A    -11.349795     6A    -11.277699
       7A    -11.275987     8A    -11.252697     9A    -11.224340
      10A     -1.472557    11A     -1.390455    12A     -1.367843
      13A     -1.109519    14A     -1.066600    15A     -0.957954
      16A     -0.887446    17A     -0.798688    18A     -0.747312
      19A     -0.718080    20A     -0.713270    21A     -0.662062
      22A     -0.643547    23A     -0.640665    24A     -0.638484
      25A     -0.607242    26A     -0.570773    27A     -0.541840
      28A     -0.539854    29A     -0.524449    30A     -0.499919
      31A     -0.494392    32A     -0.471622    33A     -0.435005
      34A     -0.404788

  @DF-RHF Final Energy:  -456.62800804641108

   => Energetics <=

    Nuclear Repulsion Energy =            413.5017034057996739
    One-Electron Energy =               -1443.3783229296839181
    Two-Electron Energy =                 573.2486114774732187
    Total Energy =                       -456.6280080464110824
  Basis Set: (AUG-CC-PVTZ AUX)
    Blend: AUG-CC-PVTZ-RI
    Molecular point group: c1

    Geometry (in Angstrom), charge = 0, multiplicity = 1:

       Center              X                  Y                   Z               Mass
    ------------   -----------------  -----------------  -----------------  -----------------
         O           -1.672081712183     1.359726520742    -0.082638457547    15.994914619570
         O            3.297149387817     0.872576320742    -0.039398157547    15.994914619570
         O            2.669825387817    -1.299569679258     0.082666842453    15.994914619570
         C           -2.578036012183    -0.853929679258     0.033146442453    12.000000000000
         C           -1.449230612183     0.150950320742    -0.009830157547    12.000000000000
         C           -3.950539612183    -0.230739679258    -0.021102157547    12.000000000000
         C           -0.059418612183    -0.390547679258     0.032438842453    12.000000000000
         C            1.000551387817     0.431094320742    -0.007815157547    12.000000000000
         C            2.372425387817    -0.117698679258     0.022004842453    12.000000000000
         H           -2.439820612183    -1.463479679258     0.944424842453     1.007825032230
         H           -2.416801612183    -1.564089679258    -0.800265157547     1.007825032230
         H           -4.098006612183     0.448098320742     0.821656842453     1.007825032230
         H           -4.726374612183    -0.999795679258     0.010305842453     1.007825032230
         H           -4.072798612183     0.350986320742    -0.937068157547     1.007825032230
         H            0.090357387817    -1.466488679258     0.096119842453     1.007825032230
         H            0.870291387817     1.506993320742    -0.068662157547     1.007825032230
         H            4.166486387817     0.420892320742    -0.023246157547     1.007825032230

  Basis Set: AUG-CC-PVTZ
    Blend: AUG-CC-PVTZ
  Basis Set: (AUG-CC-PVTZ AUX)
    Blend: AUG-CC-PVTZ-JKFIT
	 Reference Energy          =    -456.6280080464110824 [Eh]
	 Singles Energy            =      -0.0000000000000000 [Eh]
	 Same-Spin Energy          =      -0.4483701617084109 [Eh]
	 Opposite-Spin Energy      =      -1.4091700260498394 [Eh]
	 Correlation Energy        =      -1.8575401877582505 [Eh]
	 Total Energy              =    -458.4855482341693573 [Eh]

	 ================> DF-SCS-MP2 Energies <==================
	-----------------------------------------------------------
	 SCS Same-Spin Scale       =       0.3333333333333333 [-]
	 SCS Opposite-Spin Scale   =       1.2000000000000000 [-]
	 SCS Same-Spin Energy      =      -0.1494567205694703 [Eh]
	 SCS Opposite-Spin Energy  =      -1.6910040312598074 [Eh]
	 SCS Correlation Energy    =      -1.8404607518292777 [Eh]
	 SCS Total Energy          =    -458.4684687982403375 [Eh]
	-----------------------------------------------------------

  Dipole Moment: [D]
     X:    -0.1432      Y:    -1.1781      Z:     0.0616     Total:     1.1883

*** Psi4 exiting successfully. Buy a developer a beer!
