                               Psi4 1.3.2 release

  ==> Input File <==

--------------------------------------------------------------------------
#psi4
#
memory 32 gb

molecule  {
0 1
  O       -1.6636540     1.3623100    -0.0826750
  O        3.2950020     0.8732560    -0.0394660
  O        2.6676780    -1.2988900     0.0825990
  C       -2.5713650    -0.8630400     0.0337620
  C       -1.4330969     0.1320352     0.0355639
  C       -3.9526870    -0.2300600    -0.0211700
  C       -0.0615660    -0.3898680     0.0323710
  C        0.9984040     0.4317740    -0.0078830
  C        2.3702780    -0.1170190     0.0219370
  H       -2.4108203    -1.4421070     0.9527537
  H       -2.4189490    -1.5634100    -0.8003330
  H       -4.1001540     0.4487780     0.8215890
  H       -4.7285220    -0.9991160     0.0102380
  H       -4.0749460     0.3516660    -0.9371360
  H        0.0882100    -1.4658090     0.0960520
  H        0.8681440     1.5076730    -0.0687300
  H        4.1643390     0.4215720    -0.0233140
units angstrom
no_reorient  #important for SAPT in psi4, default
symmetry c1  #important for SAPT in psi4, default
}

set PROPERTIES_ORIGIN ["COM"]
properties('MP2/aug-cc-pvtz', properties = ['dipole'])
--------------------------------------------------------------------------

    Molecular point group: c1
  Charge       = 0
  Multiplicity = 1
  Basis Set: AUG-CC-PVTZ
    Blend: AUG-CC-PVTZ
  Basis Set: (AUG-CC-PVTZ AUX)
    Blend: AUG-CC-PVTZ-JKFIT

    Orbital Energies [Eh]
    ---------------------

    Doubly Occupied:

       1A    -20.629016     2A    -20.563206     3A    -20.557746
       4A    -11.407165     5A    -11.350343     6A    -11.279622
       7A    -11.276470     8A    -11.253267     9A    -11.225318
      10A     -1.473751    11A     -1.373077    12A     -1.369039
      13A     -1.112831    14A     -1.065474    15A     -0.962143
      16A     -0.889263    17A     -0.802397    18A     -0.748049
      19A     -0.716061    20A     -0.714422    21A     -0.660466
      22A     -0.644892    23A     -0.640322    24A     -0.636198
      25A     -0.606061    26A     -0.569243    27A     -0.539343
      28A     -0.535784    29A     -0.522727    30A     -0.501500
      31A     -0.493439    32A     -0.472895    33A     -0.436219
      34A     -0.403903

  @DF-RHF Final Energy:  -456.62246252132559

   => Energetics <=

    Nuclear Repulsion Energy =            413.4001609079062973
    One-Electron Energy =               -1443.1819410233806593
    Two-Electron Energy =                 573.1593175941486606
    Total Energy =                       -456.6224625213255877
  Basis Set: (AUG-CC-PVTZ AUX)
    Blend: AUG-CC-PVTZ-RI
    Molecular point group: c1

    Geometry (in Angstrom), charge = 0, multiplicity = 1:

       Center              X                  Y                   Z               Mass
    ------------   -----------------  -----------------  -----------------  -----------------
         O           -1.665612384599     1.363983446926    -0.087001677787    15.994914619570
         O            3.293043615401     0.874929446926    -0.043792677787    15.994914619570
         O            2.665719615401    -1.297216553074     0.078272322213    15.994914619570
         C           -2.573323384599    -0.861366553074     0.029435322213    12.000000000000
         C           -1.435055284599     0.133708646926     0.031237222213    12.000000000000
         C           -3.954645384599    -0.228386553074    -0.025496677787    12.000000000000
         C           -0.063524384599    -0.388194553074     0.028044322213    12.000000000000
         C            0.996445615401     0.433447446926    -0.012209677787    12.000000000000
         C            2.368319615401    -0.115345553074     0.017610322213    12.000000000000
         H           -2.412778684599    -1.440433553074     0.948427022213     1.007825032230
         H           -2.420907384599    -1.561736553074    -0.804659677787     1.007825032230
         H           -4.102112384599     0.450451446926     0.817262322213     1.007825032230
         H           -4.730480384599    -0.997442553074     0.005911322213     1.007825032230
         H           -4.076904384599     0.353339446926    -0.941462677787     1.007825032230
         H            0.086251615401    -1.464135553074     0.091725322213     1.007825032230
         H            0.866185615401     1.509346446926    -0.073056677787     1.007825032230
         H            4.162380615401     0.423245446926    -0.027640677787     1.007825032230

  Basis Set: AUG-CC-PVTZ
    Blend: AUG-CC-PVTZ
  Basis Set: (AUG-CC-PVTZ AUX)
    Blend: AUG-CC-PVTZ-JKFIT
	 Reference Energy          =    -456.6224625213255877 [Eh]
	 Singles Energy            =      -0.0000000000000000 [Eh]
	 Same-Spin Energy          =      -0.4492771912162554 [Eh]
	 Opposite-Spin Energy      =      -1.4111470542080689 [Eh]
	 Correlation Energy        =      -1.8604242454243243 [Eh]
	 Total Energy              =    -458.4828867667499139 [Eh]

	 ================> DF-SCS-MP2 Energies <==================
	-----------------------------------------------------------
	 SCS Same-Spin Scale       =       0.3333333333333333 [-]
	 SCS Opposite-Spin Scale   =       1.2000000000000000 [-]
	 SCS Same-Spin Energy      =      -0.1497590637387518 [Eh]
	 SCS Opposite-Spin Energy  =      -1.6933764650496825 [Eh]
	 SCS Correlation Energy    =      -1.8431355287884343 [Eh]
	 SCS Total Energy          =    -458.4655980501140107 [Eh]
	-----------------------------------------------------------

  Dipole Moment: [D]
     X:    -0.0535      Y:    -1.2321      Z:     0.0883     Total:     1.2364

*** Psi4 exiting successfully. Buy a developer a beer!
