                               Psi4 1.3.2 release

  ==> Input File <==

--------------------------------------------------------------------------
#psi4
#
memory 32 gb

molecule  {
0 1
  O       -1.6636540     1.3623100    -0.0826750
  O        3.2950020     0.8732560    -0.0394660
  O        2.6676780    -1.2988900     0.0825990
  C       -2.5713650    -0.8630400     0.0337620
  C       -1.4513780     0.1516300    -0.0098980
  C       -3.9526870    -0.2300600    -0.0211700
  C       -0.0615660    -0.3898680     0.0323710
  C        0.9690509     0.4681925    -0.0102117
  C        2.3702780    -0.1170190     0.0219370
  H       -2.4419680    -1.4628000     0.9443570
  H       -2.4189490    -1.5634100    -0.8003330
  H       -4.1001540     0.4487780     0.8215890
  H       -4.7285220    -0.9991160     0.0102380
  H       -4.0749460     0.3516660    -0.9371360
  H        0.0505042    -1.4703875     0.0960495
  H        0.8681440     1.5076730    -0.0687300
  H        4.1643390     0.4215720    -0.0233140
units angstrom
no_reorient  #important for SAPT in psi4, default
symmetry c1  #important for SAPT in psi4, default
}

set PROPERTIES_ORIGIN ["COM"]
properties('MP2/aug-cc-pvtz', properties = ['dipole'])
--------------------------------------------------------------------------

    Molecular point group: c1
  Charge       = 0
  Multiplicity = 1
  Basis Set: AUG-CC-PVTZ
    Blend: AUG-CC-PVTZ
  Basis Set: (AUG-CC-PVTZ AUX)
    Blend: AUG-CC-PVTZ-JKFIT

    Orbital Energies [Eh]
    ---------------------

    Doubly Occupied:

       1A    -20.627738     2A    -20.562594     3A    -20.558434
       4A    -11.407826     5A    -11.347327     6A    -11.278121
       7A    -11.275097     8A    -11.251581     9A    -11.224532
      10A     -1.471805    11A     -1.389005    12A     -1.367555
      13A     -1.107635    14A     -1.064494    15A     -0.953065
      16A     -0.884526    17A     -0.800181    18A     -0.751409
      19A     -0.714792    20A     -0.713684    21A     -0.657503
      22A     -0.645865    23A     -0.642881    24A     -0.638246
      25A     -0.605253    26A     -0.577350    27A     -0.539265
      28A     -0.538343    29A     -0.523612    30A     -0.500358
      31A     -0.495677    32A     -0.470055    33A     -0.432557
      34A     -0.404636

  @DF-RHF Final Energy:  -456.62607927447124

   => Energetics <=

    Nuclear Repulsion Energy =            413.1459020845165924
    One-Electron Energy =               -1442.6979619615415231
    Two-Electron Energy =                 572.9259806025536363
    Total Energy =                       -456.6260792744712944
  Basis Set: (AUG-CC-PVTZ AUX)
    Blend: AUG-CC-PVTZ-RI
    Molecular point group: c1

    Geometry (in Angstrom), charge = 0, multiplicity = 1:

       Center              X                  Y                   Z               Mass
    ------------   -----------------  -----------------  -----------------  -----------------
         O           -1.660606402746     1.358933046590    -0.082456857837    15.994914619570
         O            3.298049597254     0.869879046590    -0.039247857837    15.994914619570
         O            2.670725597254    -1.302266953410     0.082817142163    15.994914619570
         C           -2.568317402746    -0.866416953410     0.033980142163    12.000000000000
         C           -1.448330402746     0.148253046590    -0.009679857837    12.000000000000
         C           -3.949639402746    -0.233436953410    -0.020951857837    12.000000000000
         C           -0.058518402746    -0.393244953410     0.032589142163    12.000000000000
         C            0.972098497254     0.464815546590    -0.009993557837    12.000000000000
         C            2.373325597254    -0.120395953410     0.022155142163    12.000000000000
         H           -2.438920402746    -1.466176953410     0.944575142163     1.007825032230
         H           -2.415901402746    -1.566786953410    -0.800114857837     1.007825032230
         H           -4.097106402746     0.445401046590     0.821807142163     1.007825032230
         H           -4.725474402746    -1.002492953410     0.010456142163     1.007825032230
         H           -4.071898402746     0.348289046590    -0.936917857837     1.007825032230
         H            0.053551797254    -1.473764453410     0.096267642163     1.007825032230
         H            0.871191597254     1.504296046590    -0.068511857837     1.007825032230
         H            4.167386597254     0.418195046590    -0.023095857837     1.007825032230

  Basis Set: AUG-CC-PVTZ
    Blend: AUG-CC-PVTZ
  Basis Set: (AUG-CC-PVTZ AUX)
    Blend: AUG-CC-PVTZ-JKFIT
	 Reference Energy          =    -456.6260792744712376 [Eh]
	 Singles Energy            =      -0.0000000000000000 [Eh]
	 Same-Spin Energy          =      -0.4479278357574568 [Eh]
	 Opposite-Spin Energy      =      -1.4086888411787042 [Eh]
	 Correlation Energy        =      -1.8566166769361609 [Eh]
	 Total Energy              =    -458.4826959514073792 [Eh]

	 ================> DF-SCS-MP2 Energies <==================
	-----------------------------------------------------------
	 SCS Same-Spin Scale       =       0.3333333333333333 [-]
	 SCS Opposite-Spin Scale   =       1.2000000000000000 [-]
	 SCS Same-Spin Energy      =      -0.1493092785858189 [Eh]
	 SCS Opposite-Spin Energy  =      -1.6904266094144449 [Eh]
	 SCS Correlation Energy    =      -1.8397358880002639 [Eh]
	 SCS Total Energy          =    -458.4658151624715288 [Eh]
	-----------------------------------------------------------

  Dipole Moment: [D]
     X:    -0.1086      Y:    -1.1847      Z:     0.0621     Total:     1.1913

*** Psi4 exiting successfully. Buy a developer a beer!
