                               Psi4 1.3.2 release

  ==> Input File <==

--------------------------------------------------------------------------
#psi4
#
memory 32 gb

molecule  {
0 1
  O       -1.6636540     1.3623100    -0.0826750
  O        3.3036244     0.8651557    -0.0391095
  O        2.6779934    -1.2962583     0.0823650
  C       -2.5713650    -0.8630400     0.0337620
  C       -1.4513780     0.1516300    -0.0098980
  C       -3.9526870    -0.2300600    -0.0211700
  C       -0.0615660    -0.3898680     0.0323710
  C        0.9984040     0.4317740    -0.0078830
  C        2.3702780    -0.1170190     0.0219370
  H       -2.4419680    -1.4628000     0.9443570
  H       -2.4189490    -1.5634100    -0.8003330
  H       -4.1001540     0.4487780     0.8215890
  H       -4.7285220    -0.9991160     0.0102380
  H       -4.0749460     0.3516660    -0.9371360
  H        0.0882100    -1.4658090     0.0960520
  H        0.8681440     1.5076730    -0.0687300
  H        4.1643390     0.4215720    -0.0233140
units angstrom
no_reorient  #important for SAPT in psi4, default
symmetry c1  #important for SAPT in psi4, default
}

set PROPERTIES_ORIGIN ["COM"]
properties('MP2/aug-cc-pvtz', properties = ['dipole'])
--------------------------------------------------------------------------

    Molecular point group: c1
  Charge       = 0
  Multiplicity = 1
  Basis Set: AUG-CC-PVTZ
    Blend: AUG-CC-PVTZ
  Basis Set: (AUG-CC-PVTZ AUX)
    Blend: AUG-CC-PVTZ-JKFIT

    Orbital Energies [Eh]
    ---------------------

    Doubly Occupied:

       1A    -20.625099     2A    -20.561234     3A    -20.560633
       4A    -11.405347     5A    -11.350489     6A    -11.277893
       7A    -11.276228     8A    -11.252873     9A    -11.225457
      10A     -1.473232    11A     -1.391133    12A     -1.366671
      13A     -1.109930    14A     -1.066127    15A     -0.958154
      16A     -0.888564    17A     -0.800740    18A     -0.747524
      19A     -0.719307    20A     -0.712413    21A     -0.661737
      22A     -0.643966    23A     -0.641599    24A     -0.639035
      25A     -0.607073    26A     -0.570657    27A     -0.540444
      28A     -0.539674    29A     -0.524743    30A     -0.500809
      31A     -0.495686    32A     -0.470917    33A     -0.435892
      34A     -0.404924

  @DF-RHF Final Energy:  -456.62912365673873

   => Energetics <=

    Nuclear Repulsion Energy =            413.4165737804207765
    One-Electron Energy =               -1443.1989852418678311
    Two-Electron Energy =                 573.1532878047082704
    Total Energy =                       -456.6291236567387841
  Basis Set: (AUG-CC-PVTZ AUX)
    Blend: AUG-CC-PVTZ-RI
    Molecular point group: c1

    Geometry (in Angstrom), charge = 0, multiplicity = 1:

       Center              X                  Y                   Z               Mass
    ------------   -----------------  -----------------  -----------------  -----------------
         O           -1.666019607901     1.362993087560    -0.082690414392    15.994914619570
         O            3.301258792099     0.865838787560    -0.039124914392    15.994914619570
         O            2.675627792099    -1.295575212440     0.082349585608    15.994914619570
         C           -2.573730607901    -0.862356912440     0.033746585608    12.000000000000
         C           -1.453743607901     0.152313087560    -0.009913414392    12.000000000000
         C           -3.955052607901    -0.229376912440    -0.021185414392    12.000000000000
         C           -0.063931607901    -0.389184912440     0.032355585608    12.000000000000
         C            0.996038392099     0.432457087560    -0.007898414392    12.000000000000
         C            2.367912392099    -0.116335912440     0.021921585608    12.000000000000
         H           -2.444333607901    -1.462116912440     0.944341585608     1.007825032230
         H           -2.421314607901    -1.562726912440    -0.800348414392     1.007825032230
         H           -4.102519607901     0.449461087560     0.821573585608     1.007825032230
         H           -4.730887607901    -0.998432912440     0.010222585608     1.007825032230
         H           -4.077311607901     0.352349087560    -0.937151414392     1.007825032230
         H            0.085844392099    -1.465125912440     0.096036585608     1.007825032230
         H            0.865778392099     1.508356087560    -0.068745414392     1.007825032230
         H            4.161973392099     0.422255087560    -0.023329414392     1.007825032230

  Basis Set: AUG-CC-PVTZ
    Blend: AUG-CC-PVTZ
  Basis Set: (AUG-CC-PVTZ AUX)
    Blend: AUG-CC-PVTZ-JKFIT
	 Reference Energy          =    -456.6291236567387273 [Eh]
	 Singles Energy            =      -0.0000000000000000 [Eh]
	 Same-Spin Energy          =      -0.4480377294718666 [Eh]
	 Opposite-Spin Energy      =      -1.4085830936930142 [Eh]
	 Correlation Energy        =      -1.8566208231648806 [Eh]
	 Total Energy              =    -458.4857444799035875 [Eh]

	 ================> DF-SCS-MP2 Energies <==================
	-----------------------------------------------------------
	 SCS Same-Spin Scale       =       0.3333333333333333 [-]
	 SCS Opposite-Spin Scale   =       1.2000000000000000 [-]
	 SCS Same-Spin Energy      =      -0.1493459098239555 [Eh]
	 SCS Opposite-Spin Energy  =      -1.6902997124316170 [Eh]
	 SCS Correlation Energy    =      -1.8396456222555726 [Eh]
	 SCS Total Energy          =    -458.4687692789942730 [Eh]
	-----------------------------------------------------------

  Dipole Moment: [D]
     X:    -0.2434      Y:    -1.1805      Z:     0.0617     Total:     1.2069

*** Psi4 exiting successfully. Buy a developer a beer!
