                               Psi4 1.3.2 release

  ==> Input File <==

--------------------------------------------------------------------------
#psi4
#
memory 32 gb

molecule  {
0 1
  O       -1.6636540     1.3623100    -0.0826750
  O        3.2950020     0.8732560    -0.0394660
  O        2.6676780    -1.2988900     0.0825990
  C       -2.5801842    -0.8532458     0.0331532
  C       -1.4513780     0.1516300    -0.0098980
  C       -3.9526870    -0.2300600    -0.0211700
  C       -0.0568808    -0.3777335     0.0317658
  C        0.9984040     0.4317740    -0.0078830
  C        2.3702780    -0.1170190     0.0219370
  H       -2.4419680    -1.4628000     0.9443570
  H       -2.4189490    -1.5634100    -0.8003330
  H       -4.1001540     0.4487780     0.8215890
  H       -4.7285220    -0.9991160     0.0102380
  H       -4.0749460     0.3516660    -0.9371360
  H        0.0882100    -1.4658090     0.0960520
  H        0.8681440     1.5076730    -0.0687300
  H        4.1643390     0.4215720    -0.0233140
units angstrom
no_reorient  #important for SAPT in psi4, default
symmetry c1  #important for SAPT in psi4, default
}

set PROPERTIES_ORIGIN ["COM"]
properties('MP2/aug-cc-pvtz', properties = ['dipole'])
--------------------------------------------------------------------------

    Molecular point group: c1
  Charge       = 0
  Multiplicity = 1
  Basis Set: AUG-CC-PVTZ
    Blend: AUG-CC-PVTZ
  Basis Set: (AUG-CC-PVTZ AUX)
    Blend: AUG-CC-PVTZ-JKFIT

    Orbital Energies [Eh]
    ---------------------

    Doubly Occupied:

       1A    -20.627645     2A    -20.561406     3A    -20.560216
       4A    -11.405550     5A    -11.349768     6A    -11.276056
       7A    -11.273753     8A    -11.253636     9A    -11.224960
      10A     -1.472262    11A     -1.390690    12A     -1.367527
      13A     -1.110677    14A     -1.067489    15A     -0.957158
      16A     -0.888067    17A     -0.799147    18A     -0.745221
      19A     -0.718507    20A     -0.712628    21A     -0.662837
      22A     -0.643594    23A     -0.640718    24A     -0.638648
      25A     -0.607185    26A     -0.567293    27A     -0.542805
      28A     -0.540379    29A     -0.524908    30A     -0.499973
      31A     -0.494591    32A     -0.471272    33A     -0.435234
      34A     -0.406415

  @DF-RHF Final Energy:  -456.62829943173563

   => Energetics <=

    Nuclear Repulsion Energy =            413.6578546093857653
    One-Electron Energy =               -1443.6958701237163041
    Two-Electron Energy =                 573.4097160825948549
    Total Energy =                       -456.6282994317356270
  Basis Set: (AUG-CC-PVTZ AUX)
    Blend: AUG-CC-PVTZ-RI
    Molecular point group: c1

    Geometry (in Angstrom), charge = 0, multiplicity = 1:

       Center              X                  Y                   Z               Mass
    ------------   -----------------  -----------------  -----------------  -----------------
         O           -1.663266591066     1.360254926979    -0.082561342000    15.994914619570
         O            3.295389408934     0.871200926979    -0.039352342000    15.994914619570
         O            2.668065408934    -1.300945073021     0.082712658000    15.994914619570
         C           -2.579796791066    -0.855300873021     0.033266858000    12.000000000000
         C           -1.450990591066     0.149574926979    -0.009784342000    12.000000000000
         C           -3.952299591066    -0.232115073021    -0.021056342000    12.000000000000
         C           -0.056493391066    -0.379788573021     0.031879458000    12.000000000000
         C            0.998791408934     0.429718926979    -0.007769342000    12.000000000000
         C            2.370665408934    -0.119074073021     0.022050658000    12.000000000000
         H           -2.441580591066    -1.464855073021     0.944470658000     1.007825032230
         H           -2.418561591066    -1.565465073021    -0.800219342000     1.007825032230
         H           -4.099766591066     0.446722926979     0.821702658000     1.007825032230
         H           -4.728134591066    -1.001171073021     0.010351658000     1.007825032230
         H           -4.074558591066     0.349610926979    -0.937022342000     1.007825032230
         H            0.088597408934    -1.467864073021     0.096165658000     1.007825032230
         H            0.868531408934     1.505617926979    -0.068616342000     1.007825032230
         H            4.164726408934     0.419516926979    -0.023200342000     1.007825032230

  Basis Set: AUG-CC-PVTZ
    Blend: AUG-CC-PVTZ
  Basis Set: (AUG-CC-PVTZ AUX)
    Blend: AUG-CC-PVTZ-JKFIT
	 Reference Energy          =    -456.6282994317356270 [Eh]
	 Singles Energy            =      -0.0000000000000000 [Eh]
	 Same-Spin Energy          =      -0.4482466142117874 [Eh]
	 Opposite-Spin Energy      =      -1.4088911216565188 [Eh]
	 Correlation Energy        =      -1.8571377358683061 [Eh]
	 Total Energy              =    -458.4854371676039477 [Eh]

	 ================> DF-SCS-MP2 Energies <==================
	-----------------------------------------------------------
	 SCS Same-Spin Scale       =       0.3333333333333333 [-]
	 SCS Opposite-Spin Scale   =       1.2000000000000000 [-]
	 SCS Same-Spin Energy      =      -0.1494155380705958 [Eh]
	 SCS Opposite-Spin Energy  =      -1.6906693459878224 [Eh]
	 SCS Correlation Energy    =      -1.8400848840584181 [Eh]
	 SCS Total Energy          =    -458.4683843157940260 [Eh]
	-----------------------------------------------------------

  Dipole Moment: [D]
     X:    -0.1966      Y:    -1.1822      Z:     0.0613     Total:     1.2000

*** Psi4 exiting successfully. Buy a developer a beer!
