                               Psi4 1.3.2 release

  ==> Input File <==

--------------------------------------------------------------------------
#psi4
#
memory 32 gb

molecule  {
0 1
  O       -1.6636540     1.3623100    -0.0826750
  O        3.2950020     0.8732560    -0.0394660
  O        2.6676780    -1.2988900     0.0825990
  C       -2.5713650    -0.8630400     0.0337620
  C       -1.4513780     0.1516300    -0.0098980
  C       -3.9526870    -0.2300600    -0.0211700
  C       -0.0615660    -0.3898680     0.0323710
  C        0.9838867     0.4501112    -0.0090536
  C        2.3702780    -0.1170190     0.0219370
  H       -2.4419680    -1.4628000     0.9443570
  H       -2.4189490    -1.5634100    -0.8003330
  H       -4.1001540     0.4487780     0.8215890
  H       -4.7285220    -0.9991160     0.0102380
  H       -4.0749460     0.3516660    -0.9371360
  H        0.0693771    -1.4682625     0.0960605
  H        0.8681440     1.5076730    -0.0687300
  H        4.1643390     0.4215720    -0.0233140
units angstrom
no_reorient  #important for SAPT in psi4, default
symmetry c1  #important for SAPT in psi4, default
}

set PROPERTIES_ORIGIN ["COM"]
properties('MP2/aug-cc-pvtz', properties = ['dipole'])
--------------------------------------------------------------------------

    Molecular point group: c1
  Charge       = 0
  Multiplicity = 1
  Basis Set: AUG-CC-PVTZ
    Blend: AUG-CC-PVTZ
  Basis Set: (AUG-CC-PVTZ AUX)
    Blend: AUG-CC-PVTZ-JKFIT

    Orbital Energies [Eh]
    ---------------------

    Doubly Occupied:

       1A    -20.627689     2A    -20.561992     3A    -20.559543
       4A    -11.406695     5A    -11.348626     6A    -11.277332
       7A    -11.275272     8A    -11.252028     9A    -11.224845
      10A     -1.472034    11A     -1.389790    12A     -1.367538
      13A     -1.108297    14A     -1.065064    15A     -0.955068
      16A     -0.886041    17A     -0.799411    18A     -0.749302
      19A     -0.716558    20A     -0.713350    21A     -0.659372
      22A     -0.643429    23A     -0.643011    24A     -0.638680
      25A     -0.605943    26A     -0.574476    27A     -0.539638
      28A     -0.538857    29A     -0.524004    30A     -0.500633
      31A     -0.495860    32A     -0.470746    33A     -0.433950
      34A     -0.404427

  @DF-RHF Final Energy:  -456.62798026773936

   => Energetics <=

    Nuclear Repulsion Energy =            413.3030554689541418
    One-Electron Energy =               -1443.0030654053605303
    Two-Electron Energy =                 573.0720296686670281
    Total Energy =                       -456.6279802677393036
  Basis Set: (AUG-CC-PVTZ AUX)
    Blend: AUG-CC-PVTZ-RI
    Molecular point group: c1

    Geometry (in Angstrom), charge = 0, multiplicity = 1:

       Center              X                  Y                   Z               Mass
    ------------   -----------------  -----------------  -----------------  -----------------
         O           -1.662145288089     1.360610816428    -0.082565476147    15.994914619570
         O            3.296510711911     0.871556816428    -0.039356476147    15.994914619570
         O            2.669186711911    -1.300589183572     0.082708523853    15.994914619570
         C           -2.569856288089    -0.864739183572     0.033871523853    12.000000000000
         C           -1.449869288089     0.149930816428    -0.009788476147    12.000000000000
         C           -3.951178288089    -0.231759183572    -0.021060476147    12.000000000000
         C           -0.060057288089    -0.391567183572     0.032480523853    12.000000000000
         C            0.985395411911     0.448412016428    -0.008944076147    12.000000000000
         C            2.371786711911    -0.118718183572     0.022046523853    12.000000000000
         H           -2.440459288089    -1.464499183572     0.944466523853     1.007825032230
         H           -2.417440288089    -1.565109183572    -0.800223476147     1.007825032230
         H           -4.098645288089     0.447078816428     0.821698523853     1.007825032230
         H           -4.727013288089    -1.000815183572     0.010347523853     1.007825032230
         H           -4.073437288089     0.349966816428    -0.937026476147     1.007825032230
         H            0.070885811911    -1.469961683572     0.096170023853     1.007825032230
         H            0.869652711911     1.505973816428    -0.068620476147     1.007825032230
         H            4.165847711911     0.419872816428    -0.023204476147     1.007825032230

  Basis Set: AUG-CC-PVTZ
    Blend: AUG-CC-PVTZ
  Basis Set: (AUG-CC-PVTZ AUX)
    Blend: AUG-CC-PVTZ-JKFIT
	 Reference Energy          =    -456.6279802677393604 [Eh]
	 Singles Energy            =      -0.0000000000000000 [Eh]
	 Same-Spin Energy          =      -0.4480765155874458 [Eh]
	 Opposite-Spin Energy      =      -1.4088342434121695 [Eh]
	 Correlation Energy        =      -1.8569107589996152 [Eh]
	 Total Energy              =    -458.4848910267389783 [Eh]

	 ================> DF-SCS-MP2 Energies <==================
	-----------------------------------------------------------
	 SCS Same-Spin Scale       =       0.3333333333333333 [-]
	 SCS Opposite-Spin Scale   =       1.2000000000000000 [-]
	 SCS Same-Spin Energy      =      -0.1493588385291486 [Eh]
	 SCS Opposite-Spin Energy  =      -1.6906010920946033 [Eh]
	 SCS Correlation Energy    =      -1.8399599306237520 [Eh]
	 SCS Total Energy          =    -458.4679401983631237 [Eh]
	-----------------------------------------------------------

  Dipole Moment: [D]
     X:    -0.1402      Y:    -1.1829      Z:     0.0618     Total:     1.1928

*** Psi4 exiting successfully. Buy a developer a beer!
