                               Psi4 1.3.2 release

  ==> Input File <==

--------------------------------------------------------------------------
#psi4
#
memory 32 gb

molecule  {
0 1
  O       -1.6636540     1.3623100    -0.0826750
  O        3.2950020     0.8732560    -0.0394660
  O        2.6676780    -1.2988900     0.0825990
  C       -2.5713650    -0.8630400     0.0337620
  C       -1.4513780     0.1516300    -0.0098980
  C       -3.9526870    -0.2300600    -0.0211700
  C       -0.0615660    -0.3898680     0.0323710
  C        0.9984040     0.4317740    -0.0078830
  C        2.3702780    -0.1170190     0.0219370
  H       -2.4419680    -1.4628000     0.9443570
  H       -2.4189490    -1.5634100    -0.8003330
  H       -4.1001540     0.4487780     0.8215890
  H       -4.7285220    -0.9991160     0.0102380
  H       -4.0749460     0.3516660    -0.9371360
  H        0.0744461    -1.3669338     0.0901999
  H        0.8681440     1.5076730    -0.0687300
  H        4.1643390     0.4215720    -0.0233140
units angstrom
no_reorient  #important for SAPT in psi4, default
symmetry c1  #important for SAPT in psi4, default
}

set PROPERTIES_ORIGIN ["COM"]
properties('MP2/aug-cc-pvtz', properties = ['dipole'])
--------------------------------------------------------------------------

    Molecular point group: c1
  Charge       = 0
  Multiplicity = 1
  Basis Set: AUG-CC-PVTZ
    Blend: AUG-CC-PVTZ
  Basis Set: (AUG-CC-PVTZ AUX)
    Blend: AUG-CC-PVTZ-JKFIT

    Orbital Energies [Eh]
    ---------------------

    Doubly Occupied:

       1A    -20.627664     2A    -20.561613     3A    -20.560128
       4A    -11.405543     5A    -11.349226     6A    -11.275980
       7A    -11.265302     8A    -11.252737     9A    -11.225345
      10A     -1.472357    11A     -1.390117    12A     -1.367689
      13A     -1.113293    14A     -1.065868    15A     -0.959761
      16A     -0.888763    17A     -0.800365    18A     -0.761983
      19A     -0.718324    20A     -0.715293    21A     -0.662006
      22A     -0.644068    23A     -0.641194    24A     -0.639263
      25A     -0.608946    26A     -0.579658    27A     -0.539893
      28A     -0.539710    29A     -0.524525    30A     -0.501042
      31A     -0.496102    32A     -0.471284    33A     -0.435306
      34A     -0.404198

  @DF-RHF Final Energy:  -456.62261085394209

   => Energetics <=

    Nuclear Repulsion Energy =            413.9699265669483452
    One-Electron Energy =               -1444.2559870807599509
    Two-Electron Energy =                 573.6634496598695705
    Total Energy =                       -456.6226108539420920
  Basis Set: (AUG-CC-PVTZ AUX)
    Blend: AUG-CC-PVTZ-RI
    Molecular point group: c1

    Geometry (in Angstrom), charge = 0, multiplicity = 1:

       Center              X                  Y                   Z               Mass
    ------------   -----------------  -----------------  -----------------  -----------------
         O           -1.663545678440     1.361531763289    -0.082629052168    15.994914619570
         O            3.295110321560     0.872477763289    -0.039420052168    15.994914619570
         O            2.667786321560    -1.299668236711     0.082644947832    15.994914619570
         C           -2.571256678440    -0.863818236711     0.033807947832    12.000000000000
         C           -1.451269678440     0.150851763289    -0.009852052168    12.000000000000
         C           -3.952578678440    -0.230838236711    -0.021124052168    12.000000000000
         C           -0.061457678440    -0.390646236711     0.032416947832    12.000000000000
         C            0.998512321560     0.430995763289    -0.007837052168    12.000000000000
         C            2.370386321560    -0.117797236711     0.021982947832    12.000000000000
         H           -2.441859678440    -1.463578236711     0.944402947832     1.007825032230
         H           -2.418840678440    -1.564188236711    -0.800287052168     1.007825032230
         H           -4.100045678440     0.447999763289     0.821634947832     1.007825032230
         H           -4.728413678440    -0.999894236711     0.010283947832     1.007825032230
         H           -4.074837678440     0.350887763289    -0.937090052168     1.007825032230
         H            0.074554421560    -1.367712036711     0.090245847832     1.007825032230
         H            0.868252321560     1.506894763289    -0.068684052168     1.007825032230
         H            4.164447321560     0.420793763289    -0.023268052168     1.007825032230

  Basis Set: AUG-CC-PVTZ
    Blend: AUG-CC-PVTZ
  Basis Set: (AUG-CC-PVTZ AUX)
    Blend: AUG-CC-PVTZ-JKFIT
	 Reference Energy          =    -456.6226108539420920 [Eh]
	 Singles Energy            =      -0.0000000000000000 [Eh]
	 Same-Spin Energy          =      -0.4480077610034907 [Eh]
	 Opposite-Spin Energy      =      -1.4085341205095829 [Eh]
	 Correlation Energy        =      -1.8565418815130736 [Eh]
	 Total Energy              =    -458.4791527354551590 [Eh]

	 ================> DF-SCS-MP2 Energies <==================
	-----------------------------------------------------------
	 SCS Same-Spin Scale       =       0.3333333333333333 [-]
	 SCS Opposite-Spin Scale   =       1.2000000000000000 [-]
	 SCS Same-Spin Energy      =      -0.1493359203344969 [Eh]
	 SCS Opposite-Spin Energy  =      -1.6902409446114994 [Eh]
	 SCS Correlation Energy    =      -1.8395768649459963 [Eh]
	 SCS Total Energy          =    -458.4621877188880603 [Eh]
	-----------------------------------------------------------

  Dipole Moment: [D]
     X:    -0.1760      Y:    -1.1772      Z:     0.0612     Total:     1.1918

*** Psi4 exiting successfully. Buy a developer a beer!
