                               Psi4 1.3.2 release

  ==> Input File <==

--------------------------------------------------------------------------
#psi4
#
memory 32 gb

molecule  {
0 1
  O       -1.6847885     1.3584179    -0.0826048
  O        3.2950020     0.8732560    -0.0394660
  O        2.6676780    -1.2988900     0.0825990
  C       -2.5713650    -0.8630400     0.0337620
  C       -1.4513780     0.1516300    -0.0098980
  C       -3.9526870    -0.2300600    -0.0211700
  C       -0.0712549    -0.4140041     0.0337174
  C        0.9984040     0.4317740    -0.0078830
  C        2.3702780    -0.1170190     0.0219370
  H       -2.4419680    -1.4628000     0.9443570
  H       -2.4189490    -1.5634100    -0.8003330
  H       -4.1001540     0.4487780     0.8215890
  H       -4.7285220    -0.9991160     0.0102380
  H       -4.0749460     0.3516660    -0.9371360
  H        0.0882100    -1.4658090     0.0960520
  H        0.8681440     1.5076730    -0.0687300
  H        4.1643390     0.4215720    -0.0233140
units angstrom
no_reorient  #important for SAPT in psi4, default
symmetry c1  #important for SAPT in psi4, default
}

set PROPERTIES_ORIGIN ["COM"]
properties('MP2/aug-cc-pvtz', properties = ['dipole'])
--------------------------------------------------------------------------

    Molecular point group: c1
  Charge       = 0
  Multiplicity = 1
  Basis Set: AUG-CC-PVTZ
    Blend: AUG-CC-PVTZ
  Basis Set: (AUG-CC-PVTZ AUX)
    Blend: AUG-CC-PVTZ-JKFIT

    Orbital Energies [Eh]
    ---------------------

    Doubly Occupied:

       1A    -20.628151     2A    -20.562046     3A    -20.560686
       4A    -11.406041     5A    -11.350092     6A    -11.281242
       7A    -11.278751     8A    -11.250620     9A    -11.223931
      10A     -1.472852    11A     -1.390202    12A     -1.368164
      13A     -1.107008    14A     -1.063879    15A     -0.958868
      16A     -0.886391    17A     -0.798173    18A     -0.751483
      19A     -0.717716    20A     -0.714030    21A     -0.660198
      22A     -0.643785    23A     -0.640592    24A     -0.638892
      25A     -0.606869    26A     -0.576931    27A     -0.539029
      28A     -0.537451    29A     -0.523317    30A     -0.500554
      31A     -0.495989    32A     -0.471946    33A     -0.434738
      34A     -0.401045

  @DF-RHF Final Energy:  -456.62608123072914

   => Energetics <=

    Nuclear Repulsion Energy =            413.1625082386157715
    One-Electron Energy =               -1442.6938496151544769
    Two-Electron Energy =                 572.9052601458095069
    Total Energy =                       -456.6260812307291417
  Basis Set: (AUG-CC-PVTZ AUX)
    Blend: AUG-CC-PVTZ-RI
    Molecular point group: c1

    Geometry (in Angstrom), charge = 0, multiplicity = 1:

       Center              X                  Y                   Z               Mass
    ------------   -----------------  -----------------  -----------------  -----------------
         O           -1.681240515375     1.361165983276    -0.082739859716    15.994914619570
         O            3.298549984625     0.876004083276    -0.039601059716    15.994914619570
         O            2.671225984625    -1.296141916724     0.082463940284    15.994914619570
         C           -2.567817015375    -0.860291916724     0.033626940284    12.000000000000
         C           -1.447830015375     0.154378083276    -0.010033059716    12.000000000000
         C           -3.949139015375    -0.227311916724    -0.021305059716    12.000000000000
         C           -0.067706915375    -0.411256016724     0.033582340284    12.000000000000
         C            1.001951984625     0.434522083276    -0.008018059716    12.000000000000
         C            2.373825984625    -0.114270916724     0.021801940284    12.000000000000
         H           -2.438420015375    -1.460051916724     0.944221940284     1.007825032230
         H           -2.415401015375    -1.560661916724    -0.800468059716     1.007825032230
         H           -4.096606015375     0.451526083276     0.821453940284     1.007825032230
         H           -4.724974015375    -0.996367916724     0.010102940284     1.007825032230
         H           -4.071398015375     0.354414083276    -0.937271059716     1.007825032230
         H            0.091757984625    -1.463060916724     0.095916940284     1.007825032230
         H            0.871691984625     1.510421083276    -0.068865059716     1.007825032230
         H            4.167886984625     0.424320083276    -0.023449059716     1.007825032230

  Basis Set: AUG-CC-PVTZ
    Blend: AUG-CC-PVTZ
  Basis Set: (AUG-CC-PVTZ AUX)
    Blend: AUG-CC-PVTZ-JKFIT
	 Reference Energy          =    -456.6260812307291417 [Eh]
	 Singles Energy            =      -0.0000000000000000 [Eh]
	 Same-Spin Energy          =      -0.4485694568212120 [Eh]
	 Opposite-Spin Energy      =      -1.4097560424577700 [Eh]
	 Correlation Energy        =      -1.8583254992789819 [Eh]
	 Total Energy              =    -458.4844067300081178 [Eh]

	 ================> DF-SCS-MP2 Energies <==================
	-----------------------------------------------------------
	 SCS Same-Spin Scale       =       0.3333333333333333 [-]
	 SCS Opposite-Spin Scale   =       1.2000000000000000 [-]
	 SCS Same-Spin Energy      =      -0.1495231522737373 [Eh]
	 SCS Opposite-Spin Energy  =      -1.6917072509493238 [Eh]
	 SCS Correlation Energy    =      -1.8412304032230611 [Eh]
	 SCS Total Energy          =    -458.4673116339521926 [Eh]
	-----------------------------------------------------------

  Dipole Moment: [D]
     X:    -0.0675      Y:    -1.1718      Z:     0.0618     Total:     1.1753

*** Psi4 exiting successfully. Buy a developer a beer!
