                               Psi4 1.3.2 release

  ==> Input File <==

--------------------------------------------------------------------------
#psi4
#
memory 32 gb

molecule  {
0 1
  O       -1.6636540     1.3623100    -0.0826750
  O        3.2950020     0.8732560    -0.0394660
  O        2.6676780    -1.2988900     0.0825990
  C       -2.5713650    -0.8630400     0.0337620
  C       -1.4694828     0.1028701    -0.0071715
  C       -3.9526870    -0.2300600    -0.0211700
  C       -0.0615660    -0.3898680     0.0323710
  C        1.0264654     0.3943563    -0.0054745
  C        2.3702780    -0.1170190     0.0219370
  H       -2.4419680    -1.4628000     0.9443570
  H       -2.4189490    -1.5634100    -0.8003330
  H       -4.1001540     0.4487780     0.8215890
  H       -4.7285220    -0.9991160     0.0102380
  H       -4.0749460     0.3516660    -0.9371360
  H        0.0882100    -1.4658090     0.0960520
  H        0.8681440     1.5076730    -0.0687300
  H        4.1643390     0.4215720    -0.0233140
units angstrom
no_reorient  #important for SAPT in psi4, default
symmetry c1  #important for SAPT in psi4, default
}

set PROPERTIES_ORIGIN ["COM"]
properties('MP2/aug-cc-pvtz', properties = ['dipole'])
--------------------------------------------------------------------------

    Molecular point group: c1
  Charge       = 0
  Multiplicity = 1
  Basis Set: AUG-CC-PVTZ
    Blend: AUG-CC-PVTZ
  Basis Set: (AUG-CC-PVTZ AUX)
    Blend: AUG-CC-PVTZ-JKFIT

    Orbital Energies [Eh]
    ---------------------

    Doubly Occupied:

       1A    -20.627281     2A    -20.559830     3A    -20.559409
       4A    -11.402767     5A    -11.355726     6A    -11.279826
       7A    -11.275684     8A    -11.256030     9A    -11.228343
      10A     -1.472476    11A     -1.367339    12A     -1.363591
      13A     -1.111508    14A     -1.076446    15A     -0.965187
      16A     -0.896807    17A     -0.801008    18A     -0.740016
      19A     -0.722139    20A     -0.711640    21A     -0.665680
      22A     -0.648175    23A     -0.641524    24A     -0.631337
      25A     -0.607274    26A     -0.556446    27A     -0.542337
      28A     -0.534524    29A     -0.524612    30A     -0.500882
      31A     -0.490308    32A     -0.471269    33A     -0.442980
      34A     -0.401545

  @DF-RHF Final Energy:  -456.61544320799482

   => Energetics <=

    Nuclear Repulsion Energy =            413.5018011372495721
    One-Electron Energy =               -1443.3705965727785951
    Two-Electron Energy =                 573.2533522275342648
    Total Energy =                       -456.6154432079948720
  Basis Set: (AUG-CC-PVTZ AUX)
    Blend: AUG-CC-PVTZ-RI
    Molecular point group: c1

    Geometry (in Angstrom), charge = 0, multiplicity = 1:

       Center              X                  Y                   Z               Mass
    ------------   -----------------  -----------------  -----------------  -----------------
         O           -1.664587096392     1.370386145311    -0.083156340674    15.994914619570
         O            3.294068903608     0.881332145311    -0.039947340674    15.994914619570
         O            2.666744903608    -1.290813854689     0.082117659326    15.994914619570
         C           -2.572298096392    -0.854963854689     0.033280659326    12.000000000000
         C           -1.470415896392     0.110946245311    -0.007652840674    12.000000000000
         C           -3.953620096392    -0.221983854689    -0.021651340674    12.000000000000
         C           -0.062499096392    -0.381791854689     0.031889659326    12.000000000000
         C            1.025532303608     0.402432445311    -0.005955840674    12.000000000000
         C            2.369344903608    -0.108942854689     0.021455659326    12.000000000000
         H           -2.442901096392    -1.454723854689     0.943875659326     1.007825032230
         H           -2.419882096392    -1.555333854689    -0.800814340674     1.007825032230
         H           -4.101087096392     0.456854145311     0.821107659326     1.007825032230
         H           -4.729455096392    -0.991039854689     0.009756659326     1.007825032230
         H           -4.075879096392     0.359742145311    -0.937617340674     1.007825032230
         H            0.087276903608    -1.457732854689     0.095570659326     1.007825032230
         H            0.867210903608     1.515749145311    -0.069211340674     1.007825032230
         H            4.163405903608     0.429648145311    -0.023795340674     1.007825032230

  Basis Set: AUG-CC-PVTZ
    Blend: AUG-CC-PVTZ
  Basis Set: (AUG-CC-PVTZ AUX)
    Blend: AUG-CC-PVTZ-JKFIT
	 Reference Energy          =    -456.6154432079948151 [Eh]
	 Singles Energy            =      -0.0000000000000000 [Eh]
	 Same-Spin Energy          =      -0.4503382437561591 [Eh]
	 Opposite-Spin Energy      =      -1.4130680289203190 [Eh]
	 Correlation Energy        =      -1.8634062726764782 [Eh]
	 Total Energy              =    -458.4788494806712720 [Eh]

	 ================> DF-SCS-MP2 Energies <==================
	-----------------------------------------------------------
	 SCS Same-Spin Scale       =       0.3333333333333333 [-]
	 SCS Opposite-Spin Scale   =       1.2000000000000000 [-]
	 SCS Same-Spin Energy      =      -0.1501127479187197 [Eh]
	 SCS Opposite-Spin Energy  =      -1.6956816347043828 [Eh]
	 SCS Correlation Energy    =      -1.8457943826231025 [Eh]
	 SCS Total Energy          =    -458.4612375906179409 [Eh]
	-----------------------------------------------------------

  Dipole Moment: [D]
     X:    -0.4039      Y:    -1.3627      Z:     0.0695     Total:     1.4230

*** Psi4 exiting successfully. Buy a developer a beer!
