                               Psi4 1.3.2 release

  ==> Input File <==

--------------------------------------------------------------------------
#psi4
#
memory 32 gb

molecule  {
0 1
  O       -1.6636540     1.3623100    -0.0826750
  O        3.2950020     0.8732560    -0.0394660
  O        2.6676780    -1.2988900     0.0825990
  C       -2.5713650    -0.8630400     0.0337620
  C       -1.4858579     0.3482804    -0.0217191
  C       -3.9526870    -0.2300600    -0.0211700
  C       -0.0615660    -0.3898680     0.0323710
  C        0.9984040     0.4317740    -0.0078830
  C        2.3702780    -0.1170190     0.0219370
  H       -2.4419680    -1.4628000     0.9443570
  H       -2.4189490    -1.5634100    -0.8003330
  H       -4.1001540     0.4487780     0.8215890
  H       -4.7285220    -0.9991160     0.0102380
  H       -4.0749460     0.3516660    -0.9371360
  H        0.0882100    -1.4658090     0.0960520
  H        0.8681440     1.5076730    -0.0687300
  H        4.1643390     0.4215720    -0.0233140
units angstrom
no_reorient  #important for SAPT in psi4, default
symmetry c1  #important for SAPT in psi4, default
}

set PROPERTIES_ORIGIN ["COM"]
properties('MP2/aug-cc-pvtz', properties = ['dipole'])
--------------------------------------------------------------------------

    Molecular point group: c1
  Charge       = 0
  Multiplicity = 1
  Basis Set: AUG-CC-PVTZ
    Blend: AUG-CC-PVTZ
  Basis Set: (AUG-CC-PVTZ AUX)
    Blend: AUG-CC-PVTZ-JKFIT

    Orbital Energies [Eh]
    ---------------------

    Doubly Occupied:

       1A    -20.620951     2A    -20.581825     3A    -20.553027
       4A    -11.396736     5A    -11.339834     6A    -11.266016
       7A    -11.260246     8A    -11.241680     9A    -11.221025
      10A     -1.552827    11A     -1.465179    12A     -1.360117
      13A     -1.092275    14A     -1.047661    15A     -0.930556
      16A     -0.869182    17A     -0.783542    18A     -0.753514
      19A     -0.741272    20A     -0.707786    21A     -0.686957
      22A     -0.668051    23A     -0.662865    24A     -0.634174
      25A     -0.602360    26A     -0.600222    27A     -0.575811
      28A     -0.548101    29A     -0.522837    30A     -0.502991
      31A     -0.492686    32A     -0.464375    33A     -0.401053
      34A     -0.386043

  @DF-RHF Final Energy:  -456.56056085708462

   => Energetics <=

    Nuclear Repulsion Energy =            415.1558801893011719
    One-Electron Energy =               -1446.3653280672212986
    Two-Electron Energy =                 574.6488870208355593
    Total Energy =                       -456.5605608570846243
  Basis Set: (AUG-CC-PVTZ AUX)
    Blend: AUG-CC-PVTZ-RI
    Molecular point group: c1

    Geometry (in Angstrom), charge = 0, multiplicity = 1:

       Center              X                  Y                   Z               Mass
    ------------   -----------------  -----------------  -----------------  -----------------
         O           -1.660422714822     1.343880823991    -0.081567294049    15.994914619570
         O            3.298233285178     0.854826823991    -0.038358294049    15.994914619570
         O            2.670909285178    -1.317319176009     0.083706705951    15.994914619570
         C           -2.568133714822    -0.881469176009     0.034869705951    12.000000000000
         C           -1.482626614822     0.329851223991    -0.020611394049    12.000000000000
         C           -3.949455714822    -0.248489176009    -0.020062294049    12.000000000000
         C           -0.058334714822    -0.408297176009     0.033478705951    12.000000000000
         C            1.001635285178     0.413344823991    -0.006775294049    12.000000000000
         C            2.373509285178    -0.135448176009     0.023044705951    12.000000000000
         H           -2.438736714822    -1.481229176009     0.945464705951     1.007825032230
         H           -2.415717714822    -1.581839176009    -0.799225294049     1.007825032230
         H           -4.096922714822     0.430348823991     0.822696705951     1.007825032230
         H           -4.725290714822    -1.017545176009     0.011345705951     1.007825032230
         H           -4.071714714822     0.333236823991    -0.936028294049     1.007825032230
         H            0.091441285178    -1.484238176009     0.097159705951     1.007825032230
         H            0.871375285178     1.489243823991    -0.067622294049     1.007825032230
         H            4.167570285178     0.403142823991    -0.022206294049     1.007825032230

  Basis Set: AUG-CC-PVTZ
    Blend: AUG-CC-PVTZ
  Basis Set: (AUG-CC-PVTZ AUX)
    Blend: AUG-CC-PVTZ-JKFIT
	 Reference Energy          =    -456.5605608570846243 [Eh]
	 Singles Energy            =      -0.0000000000000000 [Eh]
	 Same-Spin Energy          =      -0.4435849977221863 [Eh]
	 Opposite-Spin Energy      =      -1.3988646078666434 [Eh]
	 Correlation Energy        =      -1.8424496055888295 [Eh]
	 Total Energy              =    -458.4030104626734783 [Eh]

	 ================> DF-SCS-MP2 Energies <==================
	-----------------------------------------------------------
	 SCS Same-Spin Scale       =       0.3333333333333333 [-]
	 SCS Opposite-Spin Scale   =       1.2000000000000000 [-]
	 SCS Same-Spin Energy      =      -0.1478616659073954 [Eh]
	 SCS Opposite-Spin Energy  =      -1.6786375294399720 [Eh]
	 SCS Correlation Energy    =      -1.8264991953473675 [Eh]
	 SCS Total Energy          =    -458.3870600524319912 [Eh]
	-----------------------------------------------------------

  Dipole Moment: [D]
     X:    -0.5512      Y:    -0.2237      Z:     0.0062     Total:     0.5949

*** Psi4 exiting successfully. Buy a developer a beer!
