                               Psi4 1.3.2 release

  ==> Input File <==

--------------------------------------------------------------------------
#psi4
#
memory 32 gb

molecule  {
0 1
  O       -1.6636540     1.3623100    -0.0826750
  O        3.2950020     0.8732560    -0.0394660
  O        2.6676780    -1.2988900     0.0825990
  C       -2.5713650    -0.8630400     0.0337620
  C       -1.4513780     0.1516300    -0.0098980
  C       -3.9526870    -0.2300600    -0.0211700
  C       -0.0615660    -0.3898680     0.0323710
  C        0.9984040     0.4317740    -0.0078830
  C        2.3971618    -0.0445850     0.0178073
  H       -2.4419680    -1.4628000     0.9443570
  H       -2.4189490    -1.5634100    -0.8003330
  H       -4.1001540     0.4487780     0.8215890
  H       -4.7285220    -0.9991160     0.0102380
  H       -4.0749460     0.3516660    -0.9371360
  H        0.0882100    -1.4658090     0.0960520
  H        0.9247207     1.5130019    -0.0690847
  H        4.1643390     0.4215720    -0.0233140
units angstrom
no_reorient  #important for SAPT in psi4, default
symmetry c1  #important for SAPT in psi4, default
}

set PROPERTIES_ORIGIN ["COM"]
properties('MP2/aug-cc-pvtz', properties = ['dipole'])
--------------------------------------------------------------------------

    Molecular point group: c1
  Charge       = 0
  Multiplicity = 1
  Basis Set: AUG-CC-PVTZ
    Blend: AUG-CC-PVTZ
  Basis Set: (AUG-CC-PVTZ AUX)
    Blend: AUG-CC-PVTZ-JKFIT

    Orbital Energies [Eh]
    ---------------------

    Doubly Occupied:

       1A    -20.648009     2A    -20.559836     3A    -20.545571
       4A    -11.407289     5A    -11.349409     6A    -11.277654
       7A    -11.275798     8A    -11.251855     9A    -11.224662
      10A     -1.502962    11A     -1.389704    12A     -1.332500
      13A     -1.106616    14A     -1.064908    15A     -0.963491
      16A     -0.895905    17A     -0.814635    18A     -0.745778
      19A     -0.721226    20A     -0.718646    21A     -0.662567
      22A     -0.659082    23A     -0.642976    24A     -0.640729
      25A     -0.598591    26A     -0.557425    27A     -0.539511
      28A     -0.538469    29A     -0.523693    30A     -0.498535
      31A     -0.479824    32A     -0.458901    33A     -0.434742
      34A     -0.400239

  @DF-RHF Final Energy:  -456.61596921082264

   => Energetics <=

    Nuclear Repulsion Energy =            413.2655171773156439
    One-Electron Energy =               -1442.8994963454254048
    Two-Electron Energy =                 573.0180099572871768
    Total Energy =                       -456.6159692108226409
  Basis Set: (AUG-CC-PVTZ AUX)
    Blend: AUG-CC-PVTZ-RI
    Molecular point group: c1

    Geometry (in Angstrom), charge = 0, multiplicity = 1:

       Center              X                  Y                   Z               Mass
    ------------   -----------------  -----------------  -----------------  -----------------
         O           -1.666618734114     1.355479863482    -0.082285304447    15.994914619570
         O            3.292037265886     0.866425863482    -0.039076304447    15.994914619570
         O            2.664713265886    -1.305720136518     0.082988695553    15.994914619570
         C           -2.574329734114    -0.869870136518     0.034151695553    12.000000000000
         C           -1.454342734114     0.144799863482    -0.009508304447    12.000000000000
         C           -3.955651734114    -0.236890136518    -0.020780304447    12.000000000000
         C           -0.064530734114    -0.396698136518     0.032760695553    12.000000000000
         C            0.995439265886     0.424943863482    -0.007493304447    12.000000000000
         C            2.394197065886    -0.051415136518     0.018196995553    12.000000000000
         H           -2.444932734114    -1.469630136518     0.944746695553     1.007825032230
         H           -2.421913734114    -1.570240136518    -0.799943304447     1.007825032230
         H           -4.103118734114     0.441947863482     0.821978695553     1.007825032230
         H           -4.731486734114    -1.005946136518     0.010627695553     1.007825032230
         H           -4.077910734114     0.344835863482    -0.936746304447     1.007825032230
         H            0.085245265886    -1.472639136518     0.096441695553     1.007825032230
         H            0.921755965886     1.506171763482    -0.068695004447     1.007825032230
         H            4.161374265886     0.414741863482    -0.022924304447     1.007825032230

  Basis Set: AUG-CC-PVTZ
    Blend: AUG-CC-PVTZ
  Basis Set: (AUG-CC-PVTZ AUX)
    Blend: AUG-CC-PVTZ-JKFIT
	 Reference Energy          =    -456.6159692108226409 [Eh]
	 Singles Energy            =      -0.0000000000000000 [Eh]
	 Same-Spin Energy          =      -0.4490777518840239 [Eh]
	 Opposite-Spin Energy      =      -1.4104019768465852 [Eh]
	 Correlation Energy        =      -1.8594797287306091 [Eh]
	 Total Energy              =    -458.4754489395532460 [Eh]

	 ================> DF-SCS-MP2 Energies <==================
	-----------------------------------------------------------
	 SCS Same-Spin Scale       =       0.3333333333333333 [-]
	 SCS Opposite-Spin Scale   =       1.2000000000000000 [-]
	 SCS Same-Spin Energy      =      -0.1496925839613413 [Eh]
	 SCS Opposite-Spin Energy  =      -1.6924823722159021 [Eh]
	 SCS Correlation Energy    =      -1.8421749561772434 [Eh]
	 SCS Total Energy          =    -458.4581441669998867 [Eh]
	-----------------------------------------------------------

  Dipole Moment: [D]
     X:     0.1628      Y:    -0.6349      Z:     0.0297     Total:     0.6561

*** Psi4 exiting successfully. Buy a developer a beer!
