                               Psi4 1.3.2 release

  ==> Input File <==

--------------------------------------------------------------------------
#psi4
#
memory 32 gb

molecule  {
0 1
  O       -1.6211975     1.3689869    -0.0827489
  O        3.2950020     0.8732560    -0.0394660
  O        2.6676780    -1.2988900     0.0825990
  C       -2.5713650    -0.8630400     0.0337620
  C       -1.4513780     0.1516300    -0.0098980
  C       -3.9526870    -0.2300600    -0.0211700
  C       -0.0434612    -0.3411083     0.0296400
  C        0.9984040     0.4317740    -0.0078830
  C        2.3702780    -0.1170190     0.0219370
  H       -2.4419680    -1.4628000     0.9443570
  H       -2.4189490    -1.5634100    -0.8003330
  H       -4.1001540     0.4487780     0.8215890
  H       -4.7285220    -0.9991160     0.0102380
  H       -4.0749460     0.3516660    -0.9371360
  H        0.0882100    -1.4658090     0.0960520
  H        0.8681440     1.5076730    -0.0687300
  H        4.1643390     0.4215720    -0.0233140
units angstrom
no_reorient  #important for SAPT in psi4, default
symmetry c1  #important for SAPT in psi4, default
}

set PROPERTIES_ORIGIN ["COM"]
properties('MP2/aug-cc-pvtz', properties = ['dipole'])
--------------------------------------------------------------------------

    Molecular point group: c1
  Charge       = 0
  Multiplicity = 1
  Basis Set: AUG-CC-PVTZ
    Blend: AUG-CC-PVTZ
  Basis Set: (AUG-CC-PVTZ AUX)
    Blend: AUG-CC-PVTZ-JKFIT

    Orbital Energies [Eh]
    ---------------------

    Doubly Occupied:

       1A    -20.626593     2A    -20.560786     3A    -20.560116
       4A    -11.404379     5A    -11.350058     6A    -11.270917
       7A    -11.265868     8A    -11.256239     9A    -11.227660
      10A     -1.471085    11A     -1.391828    12A     -1.366268
      13A     -1.114024    14A     -1.069184    15A     -0.954189
      16A     -0.890078    17A     -0.801107    18A     -0.739138
      19A     -0.720287    20A     -0.710057    21A     -0.665000
      22A     -0.644875    23A     -0.640944    24A     -0.639117
      25A     -0.606590    26A     -0.556155    27A     -0.542691
      28A     -0.542262    29A     -0.526265    30A     -0.502368
      31A     -0.495729    32A     -0.469839    33A     -0.435516
      34A     -0.410827

  @DF-RHF Final Energy:  -456.62554738446181

   => Energetics <=

    Nuclear Repulsion Energy =            414.1239349970176136
    One-Electron Energy =               -1444.6428862017924075
    Two-Electron Energy =                 573.8934038203129830
    Total Energy =                       -456.6255473844618109
  Basis Set: (AUG-CC-PVTZ AUX)
    Blend: AUG-CC-PVTZ-RI
    Molecular point group: c1

    Geometry (in Angstrom), charge = 0, multiplicity = 1:

       Center              X                  Y                   Z               Mass
    ------------   -----------------  -----------------  -----------------  -----------------
         O           -1.628197621819     1.363583312035    -0.082483844684    15.994914619570
         O            3.288001878181     0.867852412035    -0.039200944684    15.994914619570
         O            2.660677878181    -1.304293587965     0.082864055316    15.994914619570
         C           -2.578365121819    -0.868443587965     0.034027055316    12.000000000000
         C           -1.458378121819     0.146226412035    -0.009632944684    12.000000000000
         C           -3.959687121819    -0.235463587965    -0.020904944684    12.000000000000
         C           -0.050461321819    -0.346511887965     0.029905055316    12.000000000000
         C            0.991403878181     0.426370412035    -0.007617944684    12.000000000000
         C            2.363277878181    -0.122422587965     0.022202055316    12.000000000000
         H           -2.448968121819    -1.468203587965     0.944622055316     1.007825032230
         H           -2.425949121819    -1.568813587965    -0.800067944684     1.007825032230
         H           -4.107154121819     0.443374412035     0.821854055316     1.007825032230
         H           -4.735522121819    -1.004519587965     0.010503055316     1.007825032230
         H           -4.081946121819     0.346262412035    -0.936870944684     1.007825032230
         H            0.081209878181    -1.471212587965     0.096317055316     1.007825032230
         H            0.861143878181     1.502269412035    -0.068464944684     1.007825032230
         H            4.157338878181     0.416168412035    -0.023048944684     1.007825032230

  Basis Set: AUG-CC-PVTZ
    Blend: AUG-CC-PVTZ
  Basis Set: (AUG-CC-PVTZ AUX)
    Blend: AUG-CC-PVTZ-JKFIT
	 Reference Energy          =    -456.6255473844618109 [Eh]
	 Singles Energy            =      -0.0000000000000000 [Eh]
	 Same-Spin Energy          =      -0.4478917505117784 [Eh]
	 Opposite-Spin Energy      =      -1.4082264766474761 [Eh]
	 Correlation Energy        =      -1.8561182271592545 [Eh]
	 Total Energy              =    -458.4816656116210538 [Eh]

	 ================> DF-SCS-MP2 Energies <==================
	-----------------------------------------------------------
	 SCS Same-Spin Scale       =       0.3333333333333333 [-]
	 SCS Opposite-Spin Scale   =       1.2000000000000000 [-]
	 SCS Same-Spin Energy      =      -0.1492972501705928 [Eh]
	 SCS Opposite-Spin Energy  =      -1.6898717719769714 [Eh]
	 SCS Correlation Energy    =      -1.8391690221475641 [Eh]
	 SCS Total Energy          =    -458.4647164066093978 [Eh]
	-----------------------------------------------------------

  Dipole Moment: [D]
     X:    -0.3904      Y:    -1.1903      Z:     0.0601     Total:     1.2542

*** Psi4 exiting successfully. Buy a developer a beer!
