                               Psi4 1.3.2 release

  ==> Input File <==

--------------------------------------------------------------------------
#psi4
#
memory 32 gb

molecule  {
0 1
  O       -1.6636540     1.3623100    -0.0826750
  O        3.2418121     0.9202528    -0.0415056
  O        2.6053373    -1.3127835     0.0839052
  C       -2.5713650    -0.8630400     0.0337620
  C       -1.4513780     0.1516300    -0.0098980
  C       -3.9526870    -0.2300600    -0.0211700
  C       -0.0615660    -0.3898680     0.0323710
  C        0.9984040     0.4317740    -0.0078830
  C        2.3702780    -0.1170190     0.0219370
  H       -2.4419680    -1.4628000     0.9443570
  H       -2.4189490    -1.5634100    -0.8003330
  H       -4.1001540     0.4487780     0.8215890
  H       -4.7285220    -0.9991160     0.0102380
  H       -4.0749460     0.3516660    -0.9371360
  H        0.0882100    -1.4658090     0.0960520
  H        0.8681440     1.5076730    -0.0687300
  H        4.1643390     0.4215720    -0.0233140
units angstrom
no_reorient  #important for SAPT in psi4, default
symmetry c1  #important for SAPT in psi4, default
}

set PROPERTIES_ORIGIN ["COM"]
properties('MP2/aug-cc-pvtz', properties = ['dipole'])
--------------------------------------------------------------------------

    Molecular point group: c1
  Charge       = 0
  Multiplicity = 1
  Basis Set: AUG-CC-PVTZ
    Blend: AUG-CC-PVTZ
  Basis Set: (AUG-CC-PVTZ AUX)
    Blend: AUG-CC-PVTZ-JKFIT

    Orbital Energies [Eh]
    ---------------------

    Doubly Occupied:

       1A    -20.641680     2A    -20.565616     3A    -20.557444
       4A    -11.406491     5A    -11.346843     6A    -11.271306
       7A    -11.269327     8A    -11.250313     9A    -11.223521
      10A     -1.467348    11A     -1.387570    12A     -1.372715
      13A     -1.104080    14A     -1.063056    15A     -0.952252
      16A     -0.882232    17A     -0.789920    18A     -0.744233
      19A     -0.716149    20A     -0.712191    21A     -0.660553
      22A     -0.645103    23A     -0.638525    24A     -0.636328
      25A     -0.603766    26A     -0.567964    27A     -0.537705
      28A     -0.537272    29A     -0.522480    30A     -0.503991
      31A     -0.495793    32A     -0.471686    33A     -0.432099
      34A     -0.400096

  @DF-RHF Final Energy:  -456.61619533519104

   => Energetics <=

    Nuclear Repulsion Energy =            413.8792414257033556
    One-Electron Energy =               -1444.2355700526670716
    Two-Electron Energy =                 573.7401332917726222
    Total Energy =                       -456.6161953351910370
  Basis Set: (AUG-CC-PVTZ AUX)
    Blend: AUG-CC-PVTZ-RI
    Molecular point group: c1

    Geometry (in Angstrom), charge = 0, multiplicity = 1:

       Center              X                  Y                   Z               Mass
    ------------   -----------------  -----------------  -----------------  -----------------
         O           -1.649222613072     1.358174914630    -0.082583500442    15.994914619570
         O            3.256243486928     0.916117714630    -0.041414100442    15.994914619570
         O            2.619768686928    -1.316918585370     0.083996699558    15.994914619570
         C           -2.556933613072    -0.867175085370     0.033853499558    12.000000000000
         C           -1.436946613072     0.147494914630    -0.009806500442    12.000000000000
         C           -3.938255613072    -0.234195085370    -0.021078500442    12.000000000000
         C           -0.047134613072    -0.394003085370     0.032462499558    12.000000000000
         C            1.012835386928     0.427638914630    -0.007791500442    12.000000000000
         C            2.384709386928    -0.121154085370     0.022028499558    12.000000000000
         H           -2.427536613072    -1.466935085370     0.944448499558     1.007825032230
         H           -2.404517613072    -1.567545085370    -0.800241500442     1.007825032230
         H           -4.085722613072     0.444642914630     0.821680499558     1.007825032230
         H           -4.714090613072    -1.003251085370     0.010329499558     1.007825032230
         H           -4.060514613072     0.347530914630    -0.937044500442     1.007825032230
         H            0.102641386928    -1.469944085370     0.096143499558     1.007825032230
         H            0.882575386928     1.503537914630    -0.068638500442     1.007825032230
         H            4.178770386928     0.417436914630    -0.023222500442     1.007825032230

  Basis Set: AUG-CC-PVTZ
    Blend: AUG-CC-PVTZ
  Basis Set: (AUG-CC-PVTZ AUX)
    Blend: AUG-CC-PVTZ-JKFIT
	 Reference Energy          =    -456.6161953351910370 [Eh]
	 Singles Energy            =      -0.0000000000000000 [Eh]
	 Same-Spin Energy          =      -0.4498587243512753 [Eh]
	 Opposite-Spin Energy      =      -1.4125092135857753 [Eh]
	 Correlation Energy        =      -1.8623679379370506 [Eh]
	 Total Energy              =    -458.4785632731280884 [Eh]

	 ================> DF-SCS-MP2 Energies <==================
	-----------------------------------------------------------
	 SCS Same-Spin Scale       =       0.3333333333333333 [-]
	 SCS Opposite-Spin Scale   =       1.2000000000000000 [-]
	 SCS Same-Spin Energy      =      -0.1499529081170917 [Eh]
	 SCS Opposite-Spin Energy  =      -1.6950110563029304 [Eh]
	 SCS Correlation Energy    =      -1.8449639644200222 [Eh]
	 SCS Total Energy          =    -458.4611592996110403 [Eh]
	-----------------------------------------------------------

  Dipole Moment: [D]
     X:     0.2327      Y:    -1.1953      Z:     0.0609     Total:     1.2192

*** Psi4 exiting successfully. Buy a developer a beer!
