                               Psi4 1.3.2 release

  ==> Input File <==

--------------------------------------------------------------------------
#psi4
#
memory 32 gb

molecule  {
0 1
  O       -1.6636540     1.3623100    -0.0826750
  O        3.2950020     0.8732560    -0.0394660
  O        2.6676780    -1.2988900     0.0825990
  C       -2.5713650    -0.8630400     0.0337620
  C       -1.4513780     0.1516300    -0.0098980
  C       -3.9526870    -0.2300600    -0.0211700
  C       -0.0615660    -0.3898680     0.0323710
  C        0.8404041     0.3092994    -0.0018827
  C        2.3702780    -0.1170190     0.0219370
  H       -2.4419680    -1.4628000     0.9443570
  H       -2.4189490    -1.5634100    -0.8003330
  H       -4.1001540     0.4487780     0.8215890
  H       -4.7285220    -0.9991160     0.0102380
  H       -4.0749460     0.3516660    -0.9371360
  H        0.0882100    -1.4658090     0.0960520
  H        0.8681440     1.5076730    -0.0687300
  H        4.1643390     0.4215720    -0.0233140
units angstrom
no_reorient  #important for SAPT in psi4, default
symmetry c1  #important for SAPT in psi4, default
}

set PROPERTIES_ORIGIN ["COM"]
properties('MP2/aug-cc-pvtz', properties = ['dipole'])
--------------------------------------------------------------------------

    Molecular point group: c1
  Charge       = 0
  Multiplicity = 1
  Basis Set: AUG-CC-PVTZ
    Blend: AUG-CC-PVTZ
  Basis Set: (AUG-CC-PVTZ AUX)
    Blend: AUG-CC-PVTZ-JKFIT

    Orbital Energies [Eh]
    ---------------------

    Doubly Occupied:

       1A    -20.634529     2A    -20.562172     3A    -20.558182
       4A    -11.409505     5A    -11.347811     6A    -11.262124
       7A    -11.250881     8A    -11.235665     9A    -11.223807
      10A     -1.473208    11A     -1.388952    12A     -1.369055
      13A     -1.150981    14A     -1.065828    15A     -0.936424
      16A     -0.887217    17A     -0.798878    18A     -0.737400
      19A     -0.719500    20A     -0.714274    21A     -0.677649
      22A     -0.644005    23A     -0.638188    24A     -0.636423
      25A     -0.611204    26A     -0.546006    27A     -0.541072
      28A     -0.534968    29A     -0.522187    30A     -0.504341
      31A     -0.495444    32A     -0.455198    33A     -0.447115
      34A     -0.428066

  @DF-RHF Final Energy:  -456.55742944572035

   => Energetics <=

    Nuclear Repulsion Energy =            415.4076237365188149
    One-Electron Energy =               -1447.1135902184000770
    Two-Electron Energy =                 575.1485370361608602
    Total Energy =                       -456.5574294457203450
  Basis Set: (AUG-CC-PVTZ AUX)
    Blend: AUG-CC-PVTZ-RI
    Molecular point group: c1

    Geometry (in Angstrom), charge = 0, multiplicity = 1:

       Center              X                  Y                   Z               Mass
    ------------   -----------------  -----------------  -----------------  -----------------
         O           -1.648846996401     1.373787730896    -0.083237432555    15.994914619570
         O            3.309809003599     0.884733730896    -0.040028432555    15.994914619570
         O            2.682485003599    -1.287412269104     0.082036567445    15.994914619570
         C           -2.556557996401    -0.851562269104     0.033199567445    12.000000000000
         C           -1.436570996401     0.163107730896    -0.010460432555    12.000000000000
         C           -3.937879996401    -0.218582269104    -0.021732432555    12.000000000000
         C           -0.046758996401    -0.378390269104     0.031808567445    12.000000000000
         C            0.855211103599     0.320777130896    -0.002445132555    12.000000000000
         C            2.385085003599    -0.105541269104     0.021374567445    12.000000000000
         H           -2.427160996401    -1.451322269104     0.943794567445     1.007825032230
         H           -2.404141996401    -1.551932269104    -0.800895432555     1.007825032230
         H           -4.085346996401     0.460255730896     0.821026567445     1.007825032230
         H           -4.713714996401    -0.987638269104     0.009675567445     1.007825032230
         H           -4.060138996401     0.363143730896    -0.937698432555     1.007825032230
         H            0.103017003599    -1.454331269104     0.095489567445     1.007825032230
         H            0.882951003599     1.519150730896    -0.069292432555     1.007825032230
         H            4.179146003599     0.433049730896    -0.023876432555     1.007825032230

  Basis Set: AUG-CC-PVTZ
    Blend: AUG-CC-PVTZ
  Basis Set: (AUG-CC-PVTZ AUX)
    Blend: AUG-CC-PVTZ-JKFIT
	 Reference Energy          =    -456.5574294457203450 [Eh]
	 Singles Energy            =      -0.0000000000000000 [Eh]
	 Same-Spin Energy          =      -0.4473411018211978 [Eh]
	 Opposite-Spin Energy      =      -1.4061410850155711 [Eh]
	 Correlation Energy        =      -1.8534821868367688 [Eh]
	 Total Energy              =    -458.4109116325570881 [Eh]

	 ================> DF-SCS-MP2 Energies <==================
	-----------------------------------------------------------
	 SCS Same-Spin Scale       =       0.3333333333333333 [-]
	 SCS Opposite-Spin Scale   =       1.2000000000000000 [-]
	 SCS Same-Spin Energy      =      -0.1491137006070659 [Eh]
	 SCS Opposite-Spin Energy  =      -1.6873693020186853 [Eh]
	 SCS Correlation Energy    =      -1.8364830026257513 [Eh]
	 SCS Total Energy          =    -458.3939124483461001 [Eh]
	-----------------------------------------------------------

  Dipole Moment: [D]
     X:     0.0214      Y:    -1.2455      Z:     0.0657     Total:     1.2474

*** Psi4 exiting successfully. Buy a developer a beer!
