                               Psi4 1.4a3.dev225

  ==> Input File <==

--------------------------------------------------------------------------
#psi4
#
memory 32 gb

molecule  {
0 1
  O       -1.5457390    -1.4151030    -0.0000120
  O        3.4055420    -0.8324430     0.0000000
  O        2.7346890     1.3362110     0.0000030
  C       -2.4962220     0.7973420     0.0000070
  C       -1.3569730    -0.1975560    -0.0000120
  C       -3.8659970     0.1363490     0.0000100
  C        0.0231420     0.3709680    -0.0000240
  C        1.1002740    -0.4324720     0.0000170
  C        2.4486265     0.1596621     0.0000071
  H       -2.3684100     1.4519690    -0.8733630
  H       -2.3683970     1.4519470     0.8733920
  H       -3.9887950    -0.4970190    -0.8807080
  H       -4.6559460     0.8916380     0.0000190
  H       -3.9887860    -0.4970320     0.8807180
  H        0.1589340     1.4510060    -0.0000590
  H        0.9863010    -1.5124980     0.0000520
  H        4.2687480    -0.3687180    -0.0000090
units angstrom
no_reorient  #important for SAPT in psi4, default
symmetry c1  #important for SAPT in psi4, default
}

set PROPERTIES_ORIGIN ["COM"]
properties('MP2/aug-cc-pvtz', properties = ['dipole'])
--------------------------------------------------------------------------

    Molecular point group: c1
  Charge       = 0
  Multiplicity = 1
  Basis Set: AUG-CC-PVTZ
    Blend: AUG-CC-PVTZ
  Basis Set: (AUG-CC-PVTZ AUX)
    Blend: AUG-CC-PVTZ-JKFIT

    Orbital Energies [Eh]
    ---------------------

    Doubly Occupied:

       1A    -20.621950     2A    -20.564815     3A    -20.561704
       4A    -11.405692     5A    -11.351080     6A    -11.278093
       7A    -11.276265     8A    -11.253249     9A    -11.225621
      10A     -1.465950    11A     -1.390960    12A     -1.369043
      13A     -1.110376    14A     -1.066292    15A     -0.957294
      16A     -0.886264    17A     -0.795552    18A     -0.748457
      19A     -0.717839    20A     -0.710648    21A     -0.660670
      22A     -0.643022    23A     -0.640546    24A     -0.635829
      25A     -0.607988    26A     -0.572335    27A     -0.540446
      28A     -0.539799    29A     -0.524961    30A     -0.502059
      31A     -0.497451    32A     -0.472733    33A     -0.436249
      34A     -0.405113

  @DF-RHF Final Energy:  -456.62747046008298

   => Energetics <=

    Nuclear Repulsion Energy =            413.2278600009038314
    One-Electron Energy =               -1442.8379736203069115
    Two-Electron Energy =                 572.9826431593202187
    Total Energy =                       -456.6274704600829182
  Basis Set: (AUG-CC-PVTZ AUX)
    Blend: AUG-CC-PVTZ-RI
    Molecular point group: c1

    Geometry (in Angstrom), charge = 0, multiplicity = 1:

       Center              X                  Y                   Z               Mass
    ------------   -----------------  -----------------  -----------------  -----------------
         O           -1.636899058874    -1.398114284727    -0.000011684292    15.994914619570
         O            3.314381941126    -0.815454284727     0.000000315708    15.994914619570
         O            2.643528941126     1.353199715273     0.000003315708    15.994914619570
         C           -2.587382058874     0.814330715273     0.000007315708    12.000000000000
         C           -1.448133058874    -0.180567284727    -0.000011684292    12.000000000000
         C           -3.957157058874     0.153337715273     0.000010315708    12.000000000000
         C           -0.068018058874     0.387956715273    -0.000023684292    12.000000000000
         C            1.009113941126    -0.415483284727     0.000017315708    12.000000000000
         C            2.357466441126     0.176650815273     0.000007415708    12.000000000000
         H           -2.459570058874     1.468957715273    -0.873362684292     1.007825032230
         H           -2.459557058874     1.468935715273     0.873392315708     1.007825032230
         H           -4.079955058874    -0.480030284727    -0.880707684292     1.007825032230
         H           -4.747106058874     0.908626715273     0.000019315708     1.007825032230
         H           -4.079946058874    -0.480043284727     0.880718315708     1.007825032230
         H            0.067773941126     1.467994715273    -0.000058684292     1.007825032230
         H            0.895140941126    -1.495509284727     0.000052315708     1.007825032230
         H            4.177587941126    -0.351729284727    -0.000008684292     1.007825032230

  Basis Set: AUG-CC-PVTZ
    Blend: AUG-CC-PVTZ
  Basis Set: (AUG-CC-PVTZ AUX)
    Blend: AUG-CC-PVTZ-JKFIT
	 Reference Energy          =    -456.6274704600829750 [Eh]
	 Singles Energy            =      -0.0000000000000000 [Eh]
	 Same-Spin Energy          =      -0.4483488521827268 [Eh]
	 Opposite-Spin Energy      =      -1.4094489294015502 [Eh]
	 Correlation Energy        =      -1.8577977815842770 [Eh]
	 Total Energy              =    -458.4852682416672565 [Eh]

	 ================> DF-SCS-MP2 Energies <==================
	-----------------------------------------------------------
	 SCS Same-Spin Scale       =       0.3333333333333333 [-]
	 SCS Opposite-Spin Scale   =       1.2000000000000000 [-]
	 SCS Same-Spin Energy      =      -0.1494496173942423 [Eh]
	 SCS Opposite-Spin Energy  =      -1.6913387152818602 [Eh]
	 SCS Correlation Energy    =      -1.8407883326761025 [Eh]
	 SCS Total Energy          =    -458.4682587927590589 [Eh]
	-----------------------------------------------------------

  Dipole Moment: [D]
     X:    -0.3307      Y:     1.3013      Z:     0.0000     Total:     1.3426

*** Psi4 exiting successfully. Buy a developer a beer!
