                               Psi4 1.3.2 release

  ==> Input File <==

--------------------------------------------------------------------------
#psi4
#
memory 32 gb

molecule  {
0 1
  O       -1.6636540     1.3623100    -0.0826750
  O        3.2950020     0.8732560    -0.0394660
  O        2.6676780    -1.2988900     0.0825990
  C       -2.5713650    -0.8630400     0.0337620
  C       -1.4513780     0.1516300    -0.0098980
  C       -3.9526870    -0.2300600    -0.0211700
  C       -0.0615660    -0.3898680     0.0323710
  C        0.9984040     0.4317740    -0.0078830
  C        2.3702780    -0.1170190     0.0219370
  H       -2.4419680    -1.4628000     0.9443570
  H       -2.4189490    -1.5634100    -0.8003330
  H       -4.1001540     0.4487780     0.8215890
  H       -4.7285220    -0.9991160     0.0102380
  H       -4.0749460     0.3516660    -0.9371360
  H        0.0882100    -1.4658090     0.0960520
  H        0.8921448     1.3094351    -0.0575187
  H        4.1643390     0.4215720    -0.0233140
units angstrom
no_reorient  #important for SAPT in psi4, default
symmetry c1  #important for SAPT in psi4, default
}

set PROPERTIES_ORIGIN ["COM"]
properties('MP2/aug-cc-pvtz', properties = ['dipole'])
--------------------------------------------------------------------------

    Molecular point group: c1
  Charge       = 0
  Multiplicity = 1
  Basis Set: AUG-CC-PVTZ
    Blend: AUG-CC-PVTZ
  Basis Set: (AUG-CC-PVTZ AUX)
    Blend: AUG-CC-PVTZ-JKFIT

    Orbital Energies [Eh]
    ---------------------

    Doubly Occupied:

       1A    -20.628058     2A    -20.561486     3A    -20.560706
       4A    -11.404527     5A    -11.350385     6A    -11.276890
       7A    -11.255364     8A    -11.252761     9A    -11.225394
      10A     -1.472445    11A     -1.391293    12A     -1.367260
      13A     -1.118628    14A     -1.067894    15A     -0.962258
      16A     -0.887812    17A     -0.812016    18A     -0.774389
      19A     -0.720082    20A     -0.713453    21A     -0.661413
      22A     -0.652587    23A     -0.644189    24A     -0.639364
      25A     -0.607300    26A     -0.584771    27A     -0.540435
      28A     -0.539503    29A     -0.524681    30A     -0.501095
      31A     -0.496156    32A     -0.472723    33A     -0.435643
      34A     -0.404944

  @DF-RHF Final Energy:  -456.59316276511544

   => Energetics <=

    Nuclear Repulsion Energy =            414.5472179869596516
    One-Electron Energy =               -1445.2649492444757016
    Two-Electron Energy =                 574.1245684924006127
    Total Energy =                       -456.5931627651154940
  Basis Set: (AUG-CC-PVTZ AUX)
    Blend: AUG-CC-PVTZ-RI
    Molecular point group: c1

    Geometry (in Angstrom), charge = 0, multiplicity = 1:

       Center              X                  Y                   Z               Mass
    ------------   -----------------  -----------------  -----------------  -----------------
         O           -1.663842913890     1.363870257865    -0.082763353443    15.994914619570
         O            3.294813086110     0.874816257865    -0.039554353443    15.994914619570
         O            2.667489086110    -1.297329742135     0.082510646557    15.994914619570
         C           -2.571553913890    -0.861479742135     0.033673646557    12.000000000000
         C           -1.451566913890     0.153190257865    -0.009986353443    12.000000000000
         C           -3.952875913890    -0.228499742135    -0.021258353443    12.000000000000
         C           -0.061754913890    -0.388307742135     0.032282646557    12.000000000000
         C            0.998215086110     0.433334257865    -0.007971353443    12.000000000000
         C            2.370089086110    -0.115458742135     0.021848646557    12.000000000000
         H           -2.442156913890    -1.461239742135     0.944268646557     1.007825032230
         H           -2.419137913890    -1.561849742135    -0.800421353443     1.007825032230
         H           -4.100342913890     0.450338257865     0.821500646557     1.007825032230
         H           -4.728710913890    -0.997555742135     0.010149646557     1.007825032230
         H           -4.075134913890     0.353226257865    -0.937224353443     1.007825032230
         H            0.088021086110    -1.464248742135     0.095963646557     1.007825032230
         H            0.891955886110     1.310995357865    -0.057607053443     1.007825032230
         H            4.164150086110     0.423132257865    -0.023402353443     1.007825032230

  Basis Set: AUG-CC-PVTZ
    Blend: AUG-CC-PVTZ
  Basis Set: (AUG-CC-PVTZ AUX)
    Blend: AUG-CC-PVTZ-JKFIT
	 Reference Energy          =    -456.5931627651154372 [Eh]
	 Singles Energy            =      -0.0000000000000000 [Eh]
	 Same-Spin Energy          =      -0.4478189184289896 [Eh]
	 Opposite-Spin Energy      =      -1.4083723871468727 [Eh]
	 Correlation Energy        =      -1.8561913055758623 [Eh]
	 Total Energy              =    -458.4493540706912995 [Eh]

	 ================> DF-SCS-MP2 Energies <==================
	-----------------------------------------------------------
	 SCS Same-Spin Scale       =       0.3333333333333333 [-]
	 SCS Opposite-Spin Scale   =       1.2000000000000000 [-]
	 SCS Same-Spin Energy      =      -0.1492729728096632 [Eh]
	 SCS Opposite-Spin Energy  =      -1.6900468645762472 [Eh]
	 SCS Correlation Energy    =      -1.8393198373859103 [Eh]
	 SCS Total Energy          =    -458.4324826025013522 [Eh]
	-----------------------------------------------------------

  Dipole Moment: [D]
     X:    -0.1862      Y:    -1.2368      Z:     0.0647     Total:     1.2524

*** Psi4 exiting successfully. Buy a developer a beer!
