                               Psi4 1.4a3.dev225

  ==> Input File <==

--------------------------------------------------------------------------
#psi4
#
memory 32 gb

molecule  {
0 1
  O       -1.5457390    -1.4151030    -0.0000120
  O        3.4055420    -0.8324430     0.0000000
  O        2.7346890     1.3362110     0.0000030
  C       -2.4962220     0.7973420     0.0000070
  C       -1.3569730    -0.1975560    -0.0000120
  C       -3.8659970     0.1363490     0.0000100
  C        0.0231420     0.3709680    -0.0000240
  C        1.0842426    -0.4205140     0.0000164
  C        2.4625110     0.1452670     0.0000070
  H       -2.3684100     1.4519690    -0.8733630
  H       -2.3683970     1.4519470     0.8733920
  H       -3.9887950    -0.4970190    -0.8807080
  H       -4.6559460     0.8916380     0.0000190
  H       -3.9887860    -0.4970320     0.8807180
  H        0.1589340     1.4510060    -0.0000590
  H        0.9863010    -1.5124980     0.0000520
  H        4.2687480    -0.3687180    -0.0000090
units angstrom
no_reorient  #important for SAPT in psi4, default
symmetry c1  #important for SAPT in psi4, default
}

set PROPERTIES_ORIGIN ["COM"]
properties('MP2/aug-cc-pvtz', properties = ['dipole'])
--------------------------------------------------------------------------

    Molecular point group: c1
  Charge       = 0
  Multiplicity = 1
  Basis Set: AUG-CC-PVTZ
    Blend: AUG-CC-PVTZ
  Basis Set: (AUG-CC-PVTZ AUX)
    Blend: AUG-CC-PVTZ-JKFIT

    Orbital Energies [Eh]
    ---------------------

    Doubly Occupied:

       1A    -20.628849     2A    -20.562201     3A    -20.560336
       4A    -11.407033     5A    -11.349964     6A    -11.275511
       7A    -11.272199     8A    -11.252373     9A    -11.224949
      10A     -1.471285    11A     -1.389799    12A     -1.367664
      13A     -1.111209    14A     -1.065408    15A     -0.954742
      16A     -0.887743    17A     -0.798938    18A     -0.745680
      19A     -0.717961    20A     -0.712893    21A     -0.662486
      22A     -0.643449    23A     -0.640572    24A     -0.638610
      25A     -0.607152    26A     -0.566949    27A     -0.540063
      28A     -0.539245    29A     -0.524155    30A     -0.501172
      31A     -0.496039    32A     -0.470461    33A     -0.435032
      34A     -0.407572

  @DF-RHF Final Energy:  -456.62829538107275

   => Energetics <=

    Nuclear Repulsion Energy =            413.3133377731486462
    One-Electron Energy =               -1443.0238779593166782
    Two-Electron Energy =                 573.0822448050954563
    Total Energy =                       -456.6282953810726895
  Basis Set: (AUG-CC-PVTZ AUX)
    Blend: AUG-CC-PVTZ-RI
    Molecular point group: c1

    Geometry (in Angstrom), charge = 0, multiplicity = 1:

       Center              X                  Y                   Z               Mass
    ------------   -----------------  -----------------  -----------------  -----------------
         O           -1.636697861417    -1.397885891079    -0.000011618691    15.994914619570
         O            3.314583138583    -0.815225891079     0.000000381309    15.994914619570
         O            2.643730138583     1.353428108921     0.000003381309    15.994914619570
         C           -2.587180861417     0.814559108921     0.000007381309    12.000000000000
         C           -1.447931861417    -0.180338891079    -0.000011618691    12.000000000000
         C           -3.956955861417     0.153566108921     0.000010381309    12.000000000000
         C           -0.067816861417     0.388185108921    -0.000023618691    12.000000000000
         C            0.993283738583    -0.403296891079     0.000016781309    12.000000000000
         C            2.371552138583     0.162484108921     0.000007381309    12.000000000000
         H           -2.459368861417     1.469186108921    -0.873362618691     1.007825032230
         H           -2.459355861417     1.469164108921     0.873392381309     1.007825032230
         H           -4.079753861417    -0.479801891079    -0.880707618691     1.007825032230
         H           -4.746904861417     0.908855108921     0.000019381309     1.007825032230
         H           -4.079744861417    -0.479814891079     0.880718381309     1.007825032230
         H            0.067975138583     1.468223108921    -0.000058618691     1.007825032230
         H            0.895342138583    -1.495280891079     0.000052381309     1.007825032230
         H            4.177789138583    -0.351500891079    -0.000008618691     1.007825032230

  Basis Set: AUG-CC-PVTZ
    Blend: AUG-CC-PVTZ
  Basis Set: (AUG-CC-PVTZ AUX)
    Blend: AUG-CC-PVTZ-JKFIT
	 Reference Energy          =    -456.6282953810727463 [Eh]
	 Singles Energy            =      -0.0000000000000000 [Eh]
	 Same-Spin Energy          =      -0.4480779376082171 [Eh]
	 Opposite-Spin Energy      =      -1.4087842381287659 [Eh]
	 Correlation Energy        =      -1.8568621757369830 [Eh]
	 Total Energy              =    -458.4851575568097246 [Eh]

	 ================> DF-SCS-MP2 Energies <==================
	-----------------------------------------------------------
	 SCS Same-Spin Scale       =       0.3333333333333333 [-]
	 SCS Opposite-Spin Scale   =       1.2000000000000000 [-]
	 SCS Same-Spin Energy      =      -0.1493593125360723 [Eh]
	 SCS Opposite-Spin Energy  =      -1.6905410857545189 [Eh]
	 SCS Correlation Energy    =      -1.8399003982905913 [Eh]
	 SCS Total Energy          =    -458.4681957793633273 [Eh]
	-----------------------------------------------------------

  Dipole Moment: [D]
     X:    -0.1564      Y:     1.1823      Z:     0.0000     Total:     1.1926

*** Psi4 exiting successfully. Buy a developer a beer!
