                               Psi4 1.4a3.dev225

  ==> Input File <==

--------------------------------------------------------------------------
#psi4
#
memory 32 gb

molecule  {
0 1
  O       -1.5457390    -1.4151030    -0.0000120
  O        3.4055420    -0.8324430     0.0000000
  O        2.7346890     1.3362110     0.0000030
  C       -2.4962220     0.7973420     0.0000070
  C       -1.3946337    -0.1646672    -0.0000114
  C       -3.8659970     0.1363490     0.0000100
  C        0.0231420     0.3709680    -0.0000240
  C        1.1002740    -0.4324720     0.0000170
  C        2.4625110     0.1452670     0.0000070
  H       -2.3684100     1.4519690    -0.8733630
  H       -2.3683970     1.4519470     0.8733920
  H       -3.9887950    -0.4970190    -0.8807080
  H       -4.6559460     0.8916380     0.0000190
  H       -3.9887860    -0.4970320     0.8807180
  H        0.1589340     1.4510060    -0.0000590
  H        0.9863010    -1.5124980     0.0000520
  H        4.2687480    -0.3687180    -0.0000090
units angstrom
no_reorient  #important for SAPT in psi4, default
symmetry c1  #important for SAPT in psi4, default
}

set PROPERTIES_ORIGIN ["COM"]
properties('MP2/aug-cc-pvtz', properties = ['dipole'])
--------------------------------------------------------------------------

    Molecular point group: c1
  Charge       = 0
  Multiplicity = 1
  Basis Set: AUG-CC-PVTZ
    Blend: AUG-CC-PVTZ
  Basis Set: (AUG-CC-PVTZ AUX)
    Blend: AUG-CC-PVTZ-JKFIT

    Orbital Energies [Eh]
    ---------------------

    Doubly Occupied:

       1A    -20.626725     2A    -20.560280     3A    -20.559579
       4A    -11.405126     5A    -11.354013     6A    -11.277796
       7A    -11.274089     8A    -11.255036     9A    -11.228016
      10A     -1.469729    11A     -1.373375    12A     -1.365876
      13A     -1.106173    14A     -1.075638    15A     -0.956116
      16A     -0.892611    17A     -0.797471    18A     -0.743978
      19A     -0.719381    20A     -0.710891    21A     -0.661618
      22A     -0.648030    23A     -0.638911    24A     -0.636420
      25A     -0.605097    26A     -0.566105    27A     -0.540844
      28A     -0.535906    29A     -0.525862    30A     -0.500011
      31A     -0.492641    32A     -0.469768    33A     -0.440065
      34A     -0.400983

  @DF-RHF Final Energy:  -456.62161264628708

   => Energetics <=

    Nuclear Repulsion Energy =            412.8998862721483079
    One-Electron Energy =               -1442.2146798498649787
    Two-Electron Energy =                 572.6931809314296515
    Total Energy =                       -456.6216126462870761
  Basis Set: (AUG-CC-PVTZ AUX)
    Blend: AUG-CC-PVTZ-RI
    Molecular point group: c1

    Geometry (in Angstrom), charge = 0, multiplicity = 1:

       Center              X                  Y                   Z               Mass
    ------------   -----------------  -----------------  -----------------  -----------------
         O           -1.634670864280    -1.399847428054    -0.000011731150    15.994914619570
         O            3.316610135720    -0.817187428054     0.000000268850    15.994914619570
         O            2.645757135720     1.351466571946     0.000003268850    15.994914619570
         C           -2.585153864280     0.812597571946     0.000007268850    12.000000000000
         C           -1.483565564280    -0.149411628054    -0.000011131150    12.000000000000
         C           -3.954928864280     0.151604571946     0.000010268850    12.000000000000
         C           -0.065789864280     0.386223571946    -0.000023731150    12.000000000000
         C            1.011342135720    -0.417216428054     0.000017268850    12.000000000000
         C            2.373579135720     0.160522571946     0.000007268850    12.000000000000
         H           -2.457341864280     1.467224571946    -0.873362731150     1.007825032230
         H           -2.457328864280     1.467202571946     0.873392268850     1.007825032230
         H           -4.077726864280    -0.481763428054    -0.880707731150     1.007825032230
         H           -4.744877864280     0.906893571946     0.000019268850     1.007825032230
         H           -4.077717864280    -0.481776428054     0.880718268850     1.007825032230
         H            0.070002135720     1.466261571946    -0.000058731150     1.007825032230
         H            0.897369135720    -1.497242428054     0.000052268850     1.007825032230
         H            4.179816135720    -0.353462428054    -0.000008731150     1.007825032230

  Basis Set: AUG-CC-PVTZ
    Blend: AUG-CC-PVTZ
  Basis Set: (AUG-CC-PVTZ AUX)
    Blend: AUG-CC-PVTZ-JKFIT
	 Reference Energy          =    -456.6216126462870761 [Eh]
	 Singles Energy            =      -0.0000000000000000 [Eh]
	 Same-Spin Energy          =      -0.4492867968397982 [Eh]
	 Opposite-Spin Energy      =      -1.4112538679807753 [Eh]
	 Correlation Energy        =      -1.8605406648205736 [Eh]
	 Total Energy              =    -458.4821533111076519 [Eh]

	 ================> DF-SCS-MP2 Energies <==================
	-----------------------------------------------------------
	 SCS Same-Spin Scale       =       0.3333333333333333 [-]
	 SCS Opposite-Spin Scale   =       1.2000000000000000 [-]
	 SCS Same-Spin Energy      =      -0.1497622656132661 [Eh]
	 SCS Opposite-Spin Energy  =      -1.6935046415769304 [Eh]
	 SCS Correlation Energy    =      -1.8432669071901964 [Eh]
	 SCS Total Energy          =    -458.4648795534772603 [Eh]
	-----------------------------------------------------------

  Dipole Moment: [D]
     X:    -0.4585      Y:     1.3173      Z:     0.0000     Total:     1.3948

*** Psi4 exiting successfully. Buy a developer a beer!
