                               Psi4 1.3.2 release

  ==> Input File <==

--------------------------------------------------------------------------
#psi4
#
memory 32 gb

molecule  {
0 1
  O       -1.6636540     1.3623100    -0.0826750
  O        3.2950020     0.8732560    -0.0394660
  O        2.6676780    -1.2988900     0.0825990
  C       -2.6229776    -0.8031422     0.0300611
  C       -1.4513780     0.1516300    -0.0098980
  C       -3.9526870    -0.2300600    -0.0211700
  C       -0.0350544    -0.3164751     0.0286928
  C        0.9984040     0.4317740    -0.0078830
  C        2.3702780    -0.1170190     0.0219370
  H       -2.4419680    -1.4628000     0.9443570
  H       -2.4189490    -1.5634100    -0.8003330
  H       -4.1001540     0.4487780     0.8215890
  H       -4.7285220    -0.9991160     0.0102380
  H       -4.0749460     0.3516660    -0.9371360
  H        0.0882100    -1.4658090     0.0960520
  H        0.8681440     1.5076730    -0.0687300
  H        4.1643390     0.4215720    -0.0233140
units angstrom
no_reorient  #important for SAPT in psi4, default
symmetry c1  #important for SAPT in psi4, default
}

set PROPERTIES_ORIGIN ["COM"]
properties('MP2/aug-cc-pvtz', properties = ['dipole'])
--------------------------------------------------------------------------

    Molecular point group: c1
  Charge       = 0
  Multiplicity = 1
  Basis Set: AUG-CC-PVTZ
    Blend: AUG-CC-PVTZ
  Basis Set: (AUG-CC-PVTZ AUX)
    Blend: AUG-CC-PVTZ-JKFIT

    Orbital Energies [Eh]
    ---------------------

    Doubly Occupied:

       1A    -20.627969     2A    -20.561806     3A    -20.557859
       4A    -11.406247     5A    -11.349348     6A    -11.273388
       7A    -11.264883     8A    -11.259946     9A    -11.223820
      10A     -1.472503    11A     -1.391282    12A     -1.367723
      13A     -1.120105    14A     -1.077599    15A     -0.956375
      16A     -0.890849    17A     -0.800204    18A     -0.738250
      19A     -0.719277    20A     -0.710396    21A     -0.670505
      22A     -0.643332    23A     -0.639865    24A     -0.636694
      25A     -0.608605    26A     -0.563740    27A     -0.551693
      28A     -0.542429    29A     -0.521520    30A     -0.499194
      31A     -0.482147    32A     -0.471568    33A     -0.433352
      34A     -0.417484

  @DF-RHF Final Energy:  -456.61354029846609

   => Energetics <=

    Nuclear Repulsion Energy =            414.6576885883003456
    One-Electron Energy =               -1445.6385403828410290
    Two-Electron Energy =                 574.3673114960746489
    Total Energy =                       -456.6135402984660914
  Basis Set: (AUG-CC-PVTZ AUX)
    Blend: AUG-CC-PVTZ-RI
    Molecular point group: c1

    Geometry (in Angstrom), charge = 0, multiplicity = 1:

       Center              X                  Y                   Z               Mass
    ------------   -----------------  -----------------  -----------------  -----------------
         O           -1.661301661596     1.349818599626    -0.081983577576    15.994914619570
         O            3.297354338404     0.860764599626    -0.038774577576    15.994914619570
         O            2.670030338404    -1.311381400374     0.083290422424    15.994914619570
         C           -2.620625261596    -0.815633600374     0.030752522424    12.000000000000
         C           -1.449025661596     0.139138599626    -0.009206577576    12.000000000000
         C           -3.950334661596    -0.242551400374    -0.020478577576    12.000000000000
         C           -0.032702061596    -0.328966500374     0.029384222424    12.000000000000
         C            1.000756338404     0.419282599626    -0.007191577576    12.000000000000
         C            2.372630338404    -0.129510400374     0.022628422424    12.000000000000
         H           -2.439615661596    -1.475291400374     0.945048422424     1.007825032230
         H           -2.416596661596    -1.575901400374    -0.799641577576     1.007825032230
         H           -4.097801661596     0.436286599626     0.822280422424     1.007825032230
         H           -4.726169661596    -1.011607400374     0.010929422424     1.007825032230
         H           -4.072593661596     0.339174599626    -0.936444577576     1.007825032230
         H            0.090562338404    -1.478300400374     0.096743422424     1.007825032230
         H            0.870496338404     1.495181599626    -0.068038577576     1.007825032230
         H            4.166691338404     0.409080599626    -0.022622577576     1.007825032230

  Basis Set: AUG-CC-PVTZ
    Blend: AUG-CC-PVTZ
  Basis Set: (AUG-CC-PVTZ AUX)
    Blend: AUG-CC-PVTZ-JKFIT
	 Reference Energy          =    -456.6135402984660914 [Eh]
	 Singles Energy            =      -0.0000000000000000 [Eh]
	 Same-Spin Energy          =      -0.4485287182160434 [Eh]
	 Opposite-Spin Energy      =      -1.4088005731846018 [Eh]
	 Correlation Energy        =      -1.8573292914006452 [Eh]
	 Total Energy              =    -458.4708695898667088 [Eh]

	 ================> DF-SCS-MP2 Energies <==================
	-----------------------------------------------------------
	 SCS Same-Spin Scale       =       0.3333333333333333 [-]
	 SCS Opposite-Spin Scale   =       1.2000000000000000 [-]
	 SCS Same-Spin Energy      =      -0.1495095727386811 [Eh]
	 SCS Opposite-Spin Energy  =      -1.6905606878215222 [Eh]
	 SCS Correlation Energy    =      -1.8400702605602033 [Eh]
	 SCS Total Energy          =    -458.4536105590262878 [Eh]
	-----------------------------------------------------------

  Dipole Moment: [D]
     X:    -0.3124      Y:    -1.1671      Z:     0.0591     Total:     1.2097

*** Psi4 exiting successfully. Buy a developer a beer!
