                               Psi4 1.4a3.dev225

  ==> Input File <==

--------------------------------------------------------------------------
#psi4
#
memory 32 gb

molecule  {
0 1
  O       -1.5457390    -1.4151030    -0.0000120
  O        3.4055420    -0.8324430     0.0000000
  O        2.7346890     1.3362110     0.0000030
  C       -2.4962220     0.7973420     0.0000070
  C       -1.3569730    -0.1975560    -0.0000120
  C       -3.8659970     0.1363490     0.0000100
  C        0.0231420     0.3709680    -0.0000240
  C        1.1002740    -0.4324720     0.0000170
  C        2.4809235     0.1530759     0.0000069
  H       -2.3684100     1.4519690    -0.8733630
  H       -2.3683970     1.4519470     0.8733920
  H       -3.9887950    -0.4970190    -0.8807080
  H       -4.6559460     0.8916380     0.0000190
  H       -3.9887860    -0.4970320     0.8807180
  H        0.1589340     1.4510060    -0.0000590
  H        0.9863010    -1.5124980     0.0000520
  H        4.2687480    -0.3687180    -0.0000090
units angstrom
no_reorient  #important for SAPT in psi4, default
symmetry c1  #important for SAPT in psi4, default
}

set PROPERTIES_ORIGIN ["COM"]
properties('MP2/aug-cc-pvtz', properties = ['dipole'])
--------------------------------------------------------------------------

    Molecular point group: c1
  Charge       = 0
  Multiplicity = 1
  Basis Set: AUG-CC-PVTZ
    Blend: AUG-CC-PVTZ
  Basis Set: (AUG-CC-PVTZ AUX)
    Blend: AUG-CC-PVTZ-JKFIT

    Orbital Energies [Eh]
    ---------------------

    Doubly Occupied:

       1A    -20.630428     2A    -20.563744     3A    -20.558972
       4A    -11.406147     5A    -11.348865     6A    -11.276410
       7A    -11.273125     8A    -11.251561     9A    -11.224334
      10A     -1.477188    11A     -1.388515    12A     -1.375745
      13A     -1.104712    14A     -1.063772    15A     -0.953298
      16A     -0.886149    17A     -0.799049    18A     -0.745288
      19A     -0.717261    20A     -0.716316    21A     -0.662321
      22A     -0.645990    23A     -0.639456    24A     -0.639002
      25A     -0.606866    26A     -0.569308    27A     -0.538774
      28A     -0.538258    29A     -0.523454    30A     -0.503143
      31A     -0.496642    32A     -0.471956    33A     -0.433760
      34A     -0.402315

  @DF-RHF Final Energy:  -456.62880790348822

   => Energetics <=

    Nuclear Repulsion Energy =            413.1440064130830478
    One-Electron Energy =               -1442.6813769195380246
    Two-Electron Energy =                 572.9085626029666400
    Total Energy =                       -456.6288079034882230
  Basis Set: (AUG-CC-PVTZ AUX)
    Blend: AUG-CC-PVTZ-RI
    Molecular point group: c1

    Geometry (in Angstrom), charge = 0, multiplicity = 1:

       Center              X                  Y                   Z               Mass
    ------------   -----------------  -----------------  -----------------  -----------------
         O           -1.639925783112    -1.397497056775    -0.000011665549    15.994914619570
         O            3.311355216888    -0.814837056775     0.000000334451    15.994914619570
         O            2.640502216888     1.353816943225     0.000003334451    15.994914619570
         C           -2.590408783112     0.814947943225     0.000007334451    12.000000000000
         C           -1.451159783112    -0.179950056775    -0.000011665549    12.000000000000
         C           -3.960183783112     0.153954943225     0.000010334451    12.000000000000
         C           -0.071044783112     0.388573943225    -0.000023665549    12.000000000000
         C            1.006087216888    -0.414866056775     0.000017334451    12.000000000000
         C            2.386736716888     0.170681843225     0.000007234451    12.000000000000
         H           -2.462596783112     1.469574943225    -0.873362665549     1.007825032230
         H           -2.462583783112     1.469552943225     0.873392334451     1.007825032230
         H           -4.082981783112    -0.479413056775    -0.880707665549     1.007825032230
         H           -4.750132783112     0.909243943225     0.000019334451     1.007825032230
         H           -4.082972783112    -0.479426056775     0.880718334451     1.007825032230
         H            0.064747216888     1.468611943225    -0.000058665549     1.007825032230
         H            0.892114216888    -1.494892056775     0.000052334451     1.007825032230
         H            4.174561216888    -0.351112056775    -0.000008665549     1.007825032230

  Basis Set: AUG-CC-PVTZ
    Blend: AUG-CC-PVTZ
  Basis Set: (AUG-CC-PVTZ AUX)
    Blend: AUG-CC-PVTZ-JKFIT
	 Reference Energy          =    -456.6288079034882230 [Eh]
	 Singles Energy            =      -0.0000000000000000 [Eh]
	 Same-Spin Energy          =      -0.4479640897557317 [Eh]
	 Opposite-Spin Energy      =      -1.4085805555758726 [Eh]
	 Correlation Energy        =      -1.8565446453316041 [Eh]
	 Total Energy              =    -458.4853525488198329 [Eh]

	 ================> DF-SCS-MP2 Energies <==================
	-----------------------------------------------------------
	 SCS Same-Spin Scale       =       0.3333333333333333 [-]
	 SCS Opposite-Spin Scale   =       1.2000000000000000 [-]
	 SCS Same-Spin Energy      =      -0.1493213632519105 [Eh]
	 SCS Opposite-Spin Energy  =      -1.6902966666910471 [Eh]
	 SCS Correlation Energy    =      -1.8396180299429576 [Eh]
	 SCS Total Energy          =    -458.4684259334312060 [Eh]
	-----------------------------------------------------------

  Dipole Moment: [D]
     X:    -0.0194      Y:     1.2037      Z:     0.0000     Total:     1.2038

*** Psi4 exiting successfully. Buy a developer a beer!
