                               Psi4 1.3.2 release

  ==> Input File <==

--------------------------------------------------------------------------
#psi4
#
memory 32 gb

molecule  {
0 1
  O       -1.6636540     1.3623100    -0.0826750
  O        3.2950020     0.8732560    -0.0394660
  O        2.6676780    -1.2988900     0.0825990
  C       -2.5713650    -0.8630400     0.0337620
  C       -1.3032215     0.2858548    -0.0156735
  C       -3.9526870    -0.2300600    -0.0211700
  C       -0.0615660    -0.3898680     0.0323710
  C        0.9984040     0.4317740    -0.0078830
  C        2.3702780    -0.1170190     0.0219370
  H       -2.4419680    -1.4628000     0.9443570
  H       -2.4189490    -1.5634100    -0.8003330
  H       -4.1001540     0.4487780     0.8215890
  H       -4.7285220    -0.9991160     0.0102380
  H       -4.0749460     0.3516660    -0.9371360
  H        0.0882100    -1.4658090     0.0960520
  H        0.8681440     1.5076730    -0.0687300
  H        4.1643390     0.4215720    -0.0233140
units angstrom
no_reorient  #important for SAPT in psi4, default
symmetry c1  #important for SAPT in psi4, default
}

set PROPERTIES_ORIGIN ["COM"]
properties('MP2/aug-cc-pvtz', properties = ['dipole'])
--------------------------------------------------------------------------

    Molecular point group: c1
  Charge       = 0
  Multiplicity = 1
  Basis Set: AUG-CC-PVTZ
    Blend: AUG-CC-PVTZ
  Basis Set: (AUG-CC-PVTZ AUX)
    Blend: AUG-CC-PVTZ-JKFIT

    Orbital Energies [Eh]
    ---------------------

    Doubly Occupied:

       1A    -20.633511     2A    -20.569378     3A    -20.567779
       4A    -11.411688     5A    -11.342393     6A    -11.287025
       7A    -11.276905     8A    -11.233265     9A    -11.212881
      10A     -1.478698    11A     -1.457819    12A     -1.374413
      13A     -1.129636    14A     -1.029485    15A     -0.966701
      16A     -0.864092    17A     -0.802123    18A     -0.763957
      19A     -0.720976    20A     -0.720260    21A     -0.670680
      22A     -0.652311    23A     -0.648473    24A     -0.625244
      25A     -0.612793    26A     -0.588985    27A     -0.570966
      28A     -0.536901    29A     -0.512242    30A     -0.504940
      31A     -0.489912    32A     -0.478920    33A     -0.417396
      34A     -0.386917

  @DF-RHF Final Energy:  -456.59426449673680

   => Energetics <=

    Nuclear Repulsion Energy =            414.6911075784450986
    One-Electron Energy =               -1445.4914096471061384
    Two-Electron Energy =                 574.2060375719241847
    Total Energy =                       -456.5942644967368551
  Basis Set: (AUG-CC-PVTZ AUX)
    Blend: AUG-CC-PVTZ-RI
    Molecular point group: c1

    Geometry (in Angstrom), charge = 0, multiplicity = 1:

       Center              X                  Y                   Z               Mass
    ------------   -----------------  -----------------  -----------------  -----------------
         O           -1.677538546588     1.349731060129    -0.082133859491    15.994914619570
         O            3.281117453412     0.860677060129    -0.038924859491    15.994914619570
         O            2.653793453412    -1.311468939871     0.083140140509    15.994914619570
         C           -2.585249546588    -0.875618939871     0.034303140509    12.000000000000
         C           -1.317106046588     0.273275860129    -0.015132359491    12.000000000000
         C           -3.966571546588    -0.242638939871    -0.020628859491    12.000000000000
         C           -0.075450546588    -0.402446939871     0.032912140509    12.000000000000
         C            0.984519453412     0.419195060129    -0.007341859491    12.000000000000
         C            2.356393453412    -0.129597939871     0.022478140509    12.000000000000
         H           -2.455852546588    -1.475378939871     0.944898140509     1.007825032230
         H           -2.432833546588    -1.575988939871    -0.799791859491     1.007825032230
         H           -4.114038546588     0.436199060129     0.822130140509     1.007825032230
         H           -4.742406546588    -1.011694939871     0.010779140509     1.007825032230
         H           -4.088830546588     0.339087060129    -0.936594859491     1.007825032230
         H            0.074325453412    -1.478387939871     0.096593140509     1.007825032230
         H            0.854259453412     1.495094060129    -0.068188859491     1.007825032230
         H            4.150454453412     0.408993060129    -0.022772859491     1.007825032230

  Basis Set: AUG-CC-PVTZ
    Blend: AUG-CC-PVTZ
  Basis Set: (AUG-CC-PVTZ AUX)
    Blend: AUG-CC-PVTZ-JKFIT
	 Reference Energy          =    -456.5942644967367983 [Eh]
	 Singles Energy            =      -0.0000000000000000 [Eh]
	 Same-Spin Energy          =      -0.4473918555500348 [Eh]
	 Opposite-Spin Energy      =      -1.4067400016920044 [Eh]
	 Correlation Energy        =      -1.8541318572420393 [Eh]
	 Total Energy              =    -458.4483963539788647 [Eh]

	 ================> DF-SCS-MP2 Energies <==================
	-----------------------------------------------------------
	 SCS Same-Spin Scale       =       0.3333333333333333 [-]
	 SCS Opposite-Spin Scale   =       1.2000000000000000 [-]
	 SCS Same-Spin Energy      =      -0.1491306185166782 [Eh]
	 SCS Opposite-Spin Energy  =      -1.6880880020304052 [Eh]
	 SCS Correlation Energy    =      -1.8372186205470835 [Eh]
	 SCS Total Energy          =    -458.4314831172839035 [Eh]
	-----------------------------------------------------------

  Dipole Moment: [D]
     X:     1.0740      Y:    -0.4848      Z:     0.0346     Total:     1.1789

*** Psi4 exiting successfully. Buy a developer a beer!
