                               Psi4 1.4a3.dev225

  ==> Input File <==

--------------------------------------------------------------------------
#psi4
#
memory 32 gb

molecule  {
0 1
  O       -1.5457390    -1.4151030    -0.0000120
  O        3.4055420    -0.8324430     0.0000000
  O        2.7346890     1.3362110     0.0000030
  C       -2.4962220     0.7973420     0.0000070
  C       -1.3569730    -0.1975560    -0.0000120
  C       -3.8659970     0.1363490     0.0000100
  C        0.0231420     0.3709680    -0.0000240
  C        1.1002740    -0.4324720     0.0000170
  C        2.4625110     0.1452670     0.0000070
  H       -2.3684100     1.4519690    -0.8733630
  H       -2.3683970     1.4519470     0.8733920
  H       -3.9887950    -0.4970190    -0.8807080
  H       -4.6559460     0.8916380     0.0000190
  H       -3.9887860    -0.4970320     0.8807180
  H        0.1564391     1.4311622    -0.0000584
  H        0.9863010    -1.5124980     0.0000520
  H        4.2687480    -0.3687180    -0.0000090
units angstrom
no_reorient  #important for SAPT in psi4, default
symmetry c1  #important for SAPT in psi4, default
}

set PROPERTIES_ORIGIN ["COM"]
properties('MP2/aug-cc-pvtz', properties = ['dipole'])
--------------------------------------------------------------------------

    Molecular point group: c1
  Charge       = 0
  Multiplicity = 1
  Basis Set: AUG-CC-PVTZ
    Blend: AUG-CC-PVTZ
  Basis Set: (AUG-CC-PVTZ AUX)
    Blend: AUG-CC-PVTZ-JKFIT

    Orbital Energies [Eh]
    ---------------------

    Doubly Occupied:

       1A    -20.627949     2A    -20.562007     3A    -20.560706
       4A    -11.406407     5A    -11.350227     6A    -11.276686
       7A    -11.273997     8A    -11.252722     9A    -11.225214
      10A     -1.471084    11A     -1.390065    12A     -1.367371
      13A     -1.109037    14A     -1.065498    15A     -0.957289
      16A     -0.887647    17A     -0.799121    18A     -0.749567
      19A     -0.718232    20A     -0.713160    21A     -0.661301
      22A     -0.643536    23A     -0.640497    24A     -0.638727
      25A     -0.606841    26A     -0.572081    27A     -0.539895
      28A     -0.539356    29A     -0.524454    30A     -0.500980
      31A     -0.496102    32A     -0.471398    33A     -0.435523
      34A     -0.403668

  @DF-RHF Final Energy:  -456.62793383585614

   => Energetics <=

    Nuclear Repulsion Energy =            413.2543935056362443
    One-Electron Energy =               -1442.8879670718692978
    Two-Electron Energy =                 573.0056397303769700
    Total Energy =                       -456.6279338358560835
  Basis Set: (AUG-CC-PVTZ AUX)
    Blend: AUG-CC-PVTZ-RI
    Molecular point group: c1

    Geometry (in Angstrom), charge = 0, multiplicity = 1:

       Center              X                  Y                   Z               Mass
    ------------   -----------------  -----------------  -----------------  -----------------
         O           -1.638180612806    -1.396609058049    -0.000011679643    15.994914619570
         O            3.313100387194    -0.813949058049     0.000000320357    15.994914619570
         O            2.642247387194     1.354704941951     0.000003320357    15.994914619570
         C           -2.588663612806     0.815835941951     0.000007320357    12.000000000000
         C           -1.449414612806    -0.179062058049    -0.000011679643    12.000000000000
         C           -3.958438612806     0.154842941951     0.000010320357    12.000000000000
         C           -0.069299612806     0.389461941951    -0.000023679643    12.000000000000
         C            1.007832387194    -0.413978058049     0.000017320357    12.000000000000
         C            2.370069387194     0.163760941951     0.000007320357    12.000000000000
         H           -2.460851612806     1.470462941951    -0.873362679643     1.007825032230
         H           -2.460838612806     1.470440941951     0.873392320357     1.007825032230
         H           -4.081236612806    -0.478525058049    -0.880707679643     1.007825032230
         H           -4.748387612806     0.910131941951     0.000019320357     1.007825032230
         H           -4.081227612806    -0.478538058049     0.880718320357     1.007825032230
         H            0.063997487194     1.449656141951    -0.000058079643     1.007825032230
         H            0.893859387194    -1.494004058049     0.000052320357     1.007825032230
         H            4.176306387194    -0.350224058049    -0.000008679643     1.007825032230

  Basis Set: AUG-CC-PVTZ
    Blend: AUG-CC-PVTZ
  Basis Set: (AUG-CC-PVTZ AUX)
    Blend: AUG-CC-PVTZ-JKFIT
	 Reference Energy          =    -456.6279338358561404 [Eh]
	 Singles Energy            =      -0.0000000000000000 [Eh]
	 Same-Spin Energy          =      -0.4483046449340868 [Eh]
	 Opposite-Spin Energy      =      -1.4092513658589472 [Eh]
	 Correlation Energy        =      -1.8575560107930340 [Eh]
	 Total Energy              =    -458.4854898466491591 [Eh]

	 ================> DF-SCS-MP2 Energies <==================
	-----------------------------------------------------------
	 SCS Same-Spin Scale       =       0.3333333333333333 [-]
	 SCS Opposite-Spin Scale   =       1.2000000000000000 [-]
	 SCS Same-Spin Energy      =      -0.1494348816446956 [Eh]
	 SCS Opposite-Spin Energy  =      -1.6911016390307365 [Eh]
	 SCS Correlation Energy    =      -1.8405365206754321 [Eh]
	 SCS Total Energy          =    -458.4684703565315544 [Eh]
	-----------------------------------------------------------

  Dipole Moment: [D]
     X:    -0.1852      Y:     1.1778      Z:     0.0000     Total:     1.1922

*** Psi4 exiting successfully. Buy a developer a beer!
