                               Psi4 1.3.2 release

  ==> Input File <==

--------------------------------------------------------------------------
#psi4
#
memory 32 gb

molecule  {
0 1
  O       -1.6636540     1.3623100    -0.0826750
  O        3.2950020     0.8732560    -0.0394660
  O        2.6676780    -1.2988900     0.0825990
  C       -2.5713650    -0.8630400     0.0337620
  C       -1.4513780     0.1516300    -0.0098980
  C       -3.9526870    -0.2300600    -0.0211700
  C       -0.0615660    -0.3898680     0.0323710
  C        1.0055418     0.4225112    -0.0072931
  C        2.3702780    -0.1170190     0.0219370
  H       -2.4419680    -1.4628000     0.9443570
  H       -2.4189490    -1.5634100    -0.8003330
  H       -4.1001540     0.4487780     0.8215890
  H       -4.7285220    -0.9991160     0.0102380
  H       -4.0749460     0.3516660    -0.9371360
  H        0.0976097    -1.4644593     0.0960405
  H        0.8681440     1.5076730    -0.0687300
  H        4.1643390     0.4215720    -0.0233140
units angstrom
no_reorient  #important for SAPT in psi4, default
symmetry c1  #important for SAPT in psi4, default
}

set PROPERTIES_ORIGIN ["COM"]
properties('MP2/aug-cc-pvtz', properties = ['dipole'])
--------------------------------------------------------------------------

    Molecular point group: c1
  Charge       = 0
  Multiplicity = 1
  Basis Set: AUG-CC-PVTZ
    Blend: AUG-CC-PVTZ
  Basis Set: (AUG-CC-PVTZ AUX)
    Blend: AUG-CC-PVTZ-JKFIT

    Orbital Energies [Eh]
    ---------------------

    Doubly Occupied:

       1A    -20.627553     2A    -20.561288     3A    -20.561047
       4A    -11.404786     5A    -11.350658     6A    -11.276977
       7A    -11.275104     8A    -11.252759     9A    -11.225357
      10A     -1.472336    11A     -1.391061    12A     -1.367500
      13A     -1.109542    14A     -1.066026    15A     -0.958437
      16A     -0.888367    17A     -0.798925    18A     -0.745819
      19A     -0.719354    20A     -0.712717    21A     -0.662551
      22A     -0.644224    23A     -0.639988    24A     -0.639349
      25A     -0.607331    26A     -0.567813    27A     -0.540272
      28A     -0.539551    29A     -0.524638    30A     -0.501094
      31A     -0.496172    32A     -0.471389    33A     -0.436062
      34A     -0.404169

  @DF-RHF Final Energy:  -456.62799427118603

   => Energetics <=

    Nuclear Repulsion Energy =            413.5536116410592058
    One-Electron Energy =               -1443.4827772094376996
    Two-Electron Energy =                 573.3011712971924680
    Total Energy =                       -456.6279942711860258
  Basis Set: (AUG-CC-PVTZ AUX)
    Blend: AUG-CC-PVTZ-RI
    Molecular point group: c1

    Geometry (in Angstrom), charge = 0, multiplicity = 1:

       Center              X                  Y                   Z               Mass
    ------------   -----------------  -----------------  -----------------  -----------------
         O           -1.664396914025     1.363167425799    -0.082730304583    15.994914619570
         O            3.294259085975     0.874113425799    -0.039521304583    15.994914619570
         O            2.666935085975    -1.298032574201     0.082543695417    15.994914619570
         C           -2.572107914025    -0.862182574201     0.033706695417    12.000000000000
         C           -1.452120914025     0.152487425799    -0.009953304583    12.000000000000
         C           -3.953429914025    -0.229202574201    -0.021225304583    12.000000000000
         C           -0.062308914025    -0.389010574201     0.032315695417    12.000000000000
         C            1.004798885975     0.423368625799    -0.007348404583    12.000000000000
         C            2.369535085975    -0.116161574201     0.021881695417    12.000000000000
         H           -2.442710914025    -1.461942574201     0.944301695417     1.007825032230
         H           -2.419691914025    -1.562552574201    -0.800388304583     1.007825032230
         H           -4.100896914025     0.449635425799     0.821533695417     1.007825032230
         H           -4.729264914025    -0.998258574201     0.010182695417     1.007825032230
         H           -4.075688914025     0.352523425799    -0.937191304583     1.007825032230
         H            0.096866785975    -1.463601874201     0.095985195417     1.007825032230
         H            0.867401085975     1.508530425799    -0.068785304583     1.007825032230
         H            4.163596085975     0.422429425799    -0.023369304583     1.007825032230

  Basis Set: AUG-CC-PVTZ
    Blend: AUG-CC-PVTZ
  Basis Set: (AUG-CC-PVTZ AUX)
    Blend: AUG-CC-PVTZ-JKFIT
	 Reference Energy          =    -456.6279942711860258 [Eh]
	 Singles Energy            =      -0.0000000000000000 [Eh]
	 Same-Spin Energy          =      -0.4483934471162753 [Eh]
	 Opposite-Spin Energy      =      -1.4092539750904987 [Eh]
	 Correlation Energy        =      -1.8576474222067740 [Eh]
	 Total Energy              =    -458.4856416933927790 [Eh]

	 ================> DF-SCS-MP2 Energies <==================
	-----------------------------------------------------------
	 SCS Same-Spin Scale       =       0.3333333333333333 [-]
	 SCS Opposite-Spin Scale   =       1.2000000000000000 [-]
	 SCS Same-Spin Energy      =      -0.1494644823720918 [Eh]
	 SCS Opposite-Spin Energy  =      -1.6911047701085984 [Eh]
	 SCS Correlation Energy    =      -1.8405692524806900 [Eh]
	 SCS Total Energy          =    -458.4685635236667167 [Eh]
	-----------------------------------------------------------

  Dipole Moment: [D]
     X:    -0.1915      Y:    -1.1823      Z:     0.0614     Total:     1.1993

*** Psi4 exiting successfully. Buy a developer a beer!
