                               Psi4 1.4a3.dev225

  ==> Input File <==

--------------------------------------------------------------------------
#psi4
#
memory 32 gb

molecule  {
0 1
  O       -1.5457390    -1.4151030    -0.0000120
  O        3.4055420    -0.8324430     0.0000000
  O        2.7346890     1.3362110     0.0000030
  C       -2.4962220     0.7973420     0.0000070
  C       -1.3569730    -0.1975560    -0.0000120
  C       -3.8659970     0.1363490     0.0000100
  C        0.0231420     0.3709680    -0.0000240
  C        1.1002740    -0.4324720     0.0000170
  C        2.4736508     0.1940103     0.0000068
  H       -2.3684100     1.4519690    -0.8733630
  H       -2.3683970     1.4519470     0.8733920
  H       -3.9887950    -0.4970190    -0.8807080
  H       -4.6559460     0.8916380     0.0000190
  H       -3.9887860    -0.4970320     0.8807180
  H        0.1589340     1.4510060    -0.0000590
  H        0.9863010    -1.5124980     0.0000520
  H        4.2687480    -0.3687180    -0.0000090
units angstrom
no_reorient  #important for SAPT in psi4, default
symmetry c1  #important for SAPT in psi4, default
}

set PROPERTIES_ORIGIN ["COM"]
properties('MP2/aug-cc-pvtz', properties = ['dipole'])
--------------------------------------------------------------------------

    Molecular point group: c1
  Charge       = 0
  Multiplicity = 1
  Basis Set: AUG-CC-PVTZ
    Blend: AUG-CC-PVTZ
  Basis Set: (AUG-CC-PVTZ AUX)
    Blend: AUG-CC-PVTZ-JKFIT

    Orbital Energies [Eh]
    ---------------------

    Doubly Occupied:

       1A    -20.620289     2A    -20.572111     3A    -20.558546
       4A    -11.403912     5A    -11.348449     6A    -11.276736
       7A    -11.271993     8A    -11.251420     9A    -11.224233
      10A     -1.479253    11A     -1.388132    12A     -1.385322
      13A     -1.104432    14A     -1.063476    15A     -0.949707
      16A     -0.881352    17A     -0.792151    18A     -0.746907
      19A     -0.717486    20A     -0.715899    21A     -0.663658
      22A     -0.644789    23A     -0.639037    24A     -0.637754
      25A     -0.609831    26A     -0.572666    27A     -0.538425
      28A     -0.538288    29A     -0.523404    30A     -0.510723
      31A     -0.497258    32A     -0.474833    33A     -0.433039
      34A     -0.403329

  @DF-RHF Final Energy:  -456.62728714675166

   => Energetics <=

    Nuclear Repulsion Energy =            413.2971248261050050
    One-Electron Energy =               -1442.9711442443272063
    Two-Electron Energy =                 573.0467322714704324
    Total Energy =                       -456.6272871467516552
  Basis Set: (AUG-CC-PVTZ AUX)
    Blend: AUG-CC-PVTZ-RI
    Molecular point group: c1

    Geometry (in Angstrom), charge = 0, multiplicity = 1:

       Center              X                  Y                   Z               Mass
    ------------   -----------------  -----------------  -----------------  -----------------
         O           -1.639244219581    -1.401333237864    -0.000011656177    15.994914619570
         O            3.312036780419    -0.818673237864     0.000000343823    15.994914619570
         O            2.641183780419     1.349980762136     0.000003343823    15.994914619570
         C           -2.589727219581     0.811111762136     0.000007343823    12.000000000000
         C           -1.450478219581    -0.183786237864    -0.000011656177    12.000000000000
         C           -3.959502219581     0.150118762136     0.000010343823    12.000000000000
         C           -0.070363219581     0.384737762136    -0.000023656177    12.000000000000
         C            1.006768780419    -0.418702237864     0.000017343823    12.000000000000
         C            2.380145580419     0.207780062136     0.000007143823    12.000000000000
         H           -2.461915219581     1.465738762136    -0.873362656177     1.007825032230
         H           -2.461902219581     1.465716762136     0.873392343823     1.007825032230
         H           -4.082300219581    -0.483249237864    -0.880707656177     1.007825032230
         H           -4.749451219581     0.905407762136     0.000019343823     1.007825032230
         H           -4.082291219581    -0.483262237864     0.880718343823     1.007825032230
         H            0.065428780419     1.464775762136    -0.000058656177     1.007825032230
         H            0.892795780419    -1.498728237864     0.000052343823     1.007825032230
         H            4.175242780419    -0.354948237864    -0.000008656177     1.007825032230

  Basis Set: AUG-CC-PVTZ
    Blend: AUG-CC-PVTZ
  Basis Set: (AUG-CC-PVTZ AUX)
    Blend: AUG-CC-PVTZ-JKFIT
	 Reference Energy          =    -456.6272871467516552 [Eh]
	 Singles Energy            =      -0.0000000000000000 [Eh]
	 Same-Spin Energy          =      -0.4474083990288806 [Eh]
	 Opposite-Spin Energy      =      -1.4076415098185655 [Eh]
	 Correlation Energy        =      -1.8550499088474461 [Eh]
	 Total Energy              =    -458.4823370555990891 [Eh]

	 ================> DF-SCS-MP2 Energies <==================
	-----------------------------------------------------------
	 SCS Same-Spin Scale       =       0.3333333333333333 [-]
	 SCS Opposite-Spin Scale   =       1.2000000000000000 [-]
	 SCS Same-Spin Energy      =      -0.1491361330096269 [Eh]
	 SCS Opposite-Spin Energy  =      -1.6891698117822787 [Eh]
	 SCS Correlation Energy    =      -1.8383059447919055 [Eh]
	 SCS Total Energy          =    -458.4655930915435533 [Eh]
	-----------------------------------------------------------

  Dipole Moment: [D]
     X:    -0.1246      Y:     1.5134      Z:     0.0000     Total:     1.5185

*** Psi4 exiting successfully. Buy a developer a beer!
