                               Psi4 1.3.2 release

  ==> Input File <==

--------------------------------------------------------------------------
#psi4
#
memory 32 gb

molecule  {
0 1
  O       -1.6636540     1.3623100    -0.0826750
  O        3.2950020     0.8732560    -0.0394660
  O        2.6676780    -1.2988900     0.0825990
  C       -2.5713650    -0.8630400     0.0337620
  C       -1.4513780     0.1516300    -0.0098980
  C       -3.9526870    -0.2300600    -0.0211700
  C       -0.0615660    -0.3898680     0.0323710
  C        0.9984040     0.4317740    -0.0078830
  C        2.3750219    -0.1050458     0.0212541
  H       -2.4419680    -1.4628000     0.9443570
  H       -2.4189490    -1.5634100    -0.8003330
  H       -4.1001540     0.4487780     0.8215890
  H       -4.7285220    -0.9991160     0.0102380
  H       -4.0749460     0.3516660    -0.9371360
  H        0.0882100    -1.4658090     0.0960520
  H        0.8775528     1.5087664    -0.0688007
  H        4.1643390     0.4215720    -0.0233140
units angstrom
no_reorient  #important for SAPT in psi4, default
symmetry c1  #important for SAPT in psi4, default
}

set PROPERTIES_ORIGIN ["COM"]
properties('MP2/aug-cc-pvtz', properties = ['dipole'])
--------------------------------------------------------------------------

    Molecular point group: c1
  Charge       = 0
  Multiplicity = 1
  Basis Set: AUG-CC-PVTZ
    Blend: AUG-CC-PVTZ
  Basis Set: (AUG-CC-PVTZ AUX)
    Blend: AUG-CC-PVTZ-JKFIT

    Orbital Energies [Eh]
    ---------------------

    Doubly Occupied:

       1A    -20.631096     2A    -20.560518     3A    -20.558818
       4A    -11.405798     5A    -11.349850     6A    -11.276984
       7A    -11.275295     8A    -11.252379     9A    -11.225079
      10A     -1.475543    11A     -1.390441    12A     -1.363103
      13A     -1.108615    14A     -1.065530    15A     -0.958086
      16A     -0.888846    17A     -0.801407    18A     -0.746420
      19A     -0.718691    20A     -0.713693    21A     -0.661520
      22A     -0.645078    23A     -0.641319    24A     -0.639963
      25A     -0.605534    26A     -0.568860    27A     -0.539953
      28A     -0.539186    29A     -0.524287    30A     -0.500088
      31A     -0.494185    32A     -0.469623    33A     -0.435241
      34A     -0.403620

  @DF-RHF Final Energy:  -456.62761246864250

   => Energetics <=

    Nuclear Repulsion Energy =            413.4232741306823868
    One-Electron Energy =               -1443.2324739428249813
    Two-Electron Energy =                 573.1815873435001549
    Total Energy =                       -456.6276124686424964
  Basis Set: (AUG-CC-PVTZ AUX)
    Blend: AUG-CC-PVTZ-RI
    Molecular point group: c1

    Geometry (in Angstrom), charge = 0, multiplicity = 1:

       Center              X                  Y                   Z               Mass
    ------------   -----------------  -----------------  -----------------  -----------------
         O           -1.664172640503     1.361179304169    -0.082610557755    15.994914619570
         O            3.294483359497     0.872125304169    -0.039401557755    15.994914619570
         O            2.667159359497    -1.300020695831     0.082663442245    15.994914619570
         C           -2.571883640503    -0.864170695831     0.033826442245    12.000000000000
         C           -1.451896640503     0.150499304169    -0.009833557755    12.000000000000
         C           -3.953205640503    -0.231190695831    -0.021105557755    12.000000000000
         C           -0.062084640503    -0.390998695831     0.032435442245    12.000000000000
         C            0.997885359497     0.430643304169    -0.007818557755    12.000000000000
         C            2.374503259497    -0.106176495831     0.021318542245    12.000000000000
         H           -2.442486640503    -1.463930695831     0.944421442245     1.007825032230
         H           -2.419467640503    -1.564540695831    -0.800268557755     1.007825032230
         H           -4.100672640503     0.447647304169     0.821653442245     1.007825032230
         H           -4.729040640503    -1.000246695831     0.010302442245     1.007825032230
         H           -4.075464640503     0.350535304169    -0.937071557755     1.007825032230
         H            0.087691359497    -1.466939695831     0.096116442245     1.007825032230
         H            0.877034159497     1.507635704169    -0.068736257755     1.007825032230
         H            4.163820359497     0.420441304169    -0.023249557755     1.007825032230

  Basis Set: AUG-CC-PVTZ
    Blend: AUG-CC-PVTZ
  Basis Set: (AUG-CC-PVTZ AUX)
    Blend: AUG-CC-PVTZ-JKFIT
	 Reference Energy          =    -456.6276124686424964 [Eh]
	 Singles Energy            =      -0.0000000000000000 [Eh]
	 Same-Spin Energy          =      -0.4483881179741829 [Eh]
	 Opposite-Spin Energy      =      -1.4092700857137404 [Eh]
	 Correlation Energy        =      -1.8576582036879232 [Eh]
	 Total Energy              =    -458.4852706723304436 [Eh]

	 ================> DF-SCS-MP2 Energies <==================
	-----------------------------------------------------------
	 SCS Same-Spin Scale       =       0.3333333333333333 [-]
	 SCS Opposite-Spin Scale   =       1.2000000000000000 [-]
	 SCS Same-Spin Energy      =      -0.1494627059913943 [Eh]
	 SCS Opposite-Spin Energy  =      -1.6911241028564883 [Eh]
	 SCS Correlation Energy    =      -1.8405868088478825 [Eh]
	 SCS Total Energy          =    -458.4681992774903847 [Eh]
	-----------------------------------------------------------

  Dipole Moment: [D]
     X:    -0.1143      Y:    -1.0892      Z:     0.0561     Total:     1.0966

*** Psi4 exiting successfully. Buy a developer a beer!
