                               Psi4 1.3.2 release

  ==> Input File <==

--------------------------------------------------------------------------
#psi4
#
memory 32 gb

molecule  {
0 1
  O       -1.6636540     1.3623100    -0.0826750
  O        3.2950020     0.8732560    -0.0394660
  O        2.6676780    -1.2988900     0.0825990
  C       -2.5713650    -0.8630400     0.0337620
  C       -1.4710237     0.1699885    -0.0553067
  C       -3.9526870    -0.2300600    -0.0211700
  C       -0.0615660    -0.3898680     0.0323710
  C        0.9984040     0.4317740    -0.0078830
  C        2.3702780    -0.1170190     0.0219370
  H       -2.4732734    -1.4827623     0.9348509
  H       -2.4189490    -1.5634100    -0.8003330
  H       -4.1001540     0.4487780     0.8215890
  H       -4.7285220    -0.9991160     0.0102380
  H       -4.0749460     0.3516660    -0.9371360
  H        0.0882100    -1.4658090     0.0960520
  H        0.8681440     1.5076730    -0.0687300
  H        4.1643390     0.4215720    -0.0233140
units angstrom
no_reorient  #important for SAPT in psi4, default
symmetry c1  #important for SAPT in psi4, default
}

set PROPERTIES_ORIGIN ["COM"]
properties('MP2/aug-cc-pvtz', properties = ['dipole'])
--------------------------------------------------------------------------

    Molecular point group: c1
  Charge       = 0
  Multiplicity = 1
  Basis Set: AUG-CC-PVTZ
    Blend: AUG-CC-PVTZ
  Basis Set: (AUG-CC-PVTZ AUX)
    Blend: AUG-CC-PVTZ-JKFIT

    Orbital Energies [Eh]
    ---------------------

    Doubly Occupied:

       1A    -20.626101     2A    -20.564050     3A    -20.559408
       4A    -11.403622     5A    -11.350293     6A    -11.275750
       7A    -11.272334     8A    -11.252127     9A    -11.225174
      10A     -1.470628    11A     -1.407680    12A     -1.365817
      13A     -1.105174    14A     -1.066197    15A     -0.952276
      16A     -0.886042    17A     -0.795622    18A     -0.746110
      19A     -0.720937    20A     -0.711324    21A     -0.662715
      22A     -0.646396    23A     -0.642562    24A     -0.638155
      25A     -0.606735    26A     -0.570652    27A     -0.545404
      28A     -0.540096    29A     -0.525457    30A     -0.501290
      31A     -0.496502    32A     -0.469510    33A     -0.433272
      34A     -0.403581

  @DF-RHF Final Energy:  -456.62890622705265

   => Energetics <=

    Nuclear Repulsion Energy =            413.4895012988275198
    One-Electron Energy =               -1443.3588235533245552
    Two-Electron Energy =                 573.2404160274444394
    Total Energy =                       -456.6289062270526529
  Basis Set: (AUG-CC-PVTZ AUX)
    Blend: AUG-CC-PVTZ-RI
    Molecular point group: c1

    Geometry (in Angstrom), charge = 0, multiplicity = 1:

       Center              X                  Y                   Z               Mass
    ------------   -----------------  -----------------  -----------------  -----------------
         O           -1.661566510777     1.360746627187    -0.078344800929    15.994914619570
         O            3.297089489223     0.871692627187    -0.035135800929    15.994914619570
         O            2.669765489223    -1.300453372813     0.086929199071    15.994914619570
         C           -2.569277510777    -0.864603372813     0.038092199071    12.000000000000
         C           -1.468936210777     0.168425127187    -0.050976500929    12.000000000000
         C           -3.950599510777    -0.231623372813    -0.016839800929    12.000000000000
         C           -0.059478510777    -0.391431372813     0.036701199071    12.000000000000
         C            1.000491489223     0.430210627187    -0.003552800929    12.000000000000
         C            2.372365489223    -0.118582372813     0.026267199071    12.000000000000
         H           -2.471185910777    -1.484325672813     0.939181099071     1.007825032230
         H           -2.416861510777    -1.564973372813    -0.796002800929     1.007825032230
         H           -4.098066510777     0.447214627187     0.825919199071     1.007825032230
         H           -4.726434510777    -1.000679372813     0.014568199071     1.007825032230
         H           -4.072858510777     0.350102627187    -0.932805800929     1.007825032230
         H            0.090297489223    -1.467372372813     0.100382199071     1.007825032230
         H            0.870231489223     1.506109627187    -0.064399800929     1.007825032230
         H            4.166426489223     0.420008627187    -0.018983800929     1.007825032230

  Basis Set: AUG-CC-PVTZ
    Blend: AUG-CC-PVTZ
  Basis Set: (AUG-CC-PVTZ AUX)
    Blend: AUG-CC-PVTZ-JKFIT
	 Reference Energy          =    -456.6289062270526529 [Eh]
	 Singles Energy            =      -0.0000000000000000 [Eh]
	 Same-Spin Energy          =      -0.4475419321568458 [Eh]
	 Opposite-Spin Energy      =      -1.4076115505743578 [Eh]
	 Correlation Energy        =      -1.8551534827312035 [Eh]
	 Total Energy              =    -458.4840597097838781 [Eh]

	 ================> DF-SCS-MP2 Energies <==================
	-----------------------------------------------------------
	 SCS Same-Spin Scale       =       0.3333333333333333 [-]
	 SCS Opposite-Spin Scale   =       1.2000000000000000 [-]
	 SCS Same-Spin Energy      =      -0.1491806440522819 [Eh]
	 SCS Opposite-Spin Energy  =      -1.6891338606892294 [Eh]
	 SCS Correlation Energy    =      -1.8383145047415113 [Eh]
	 SCS Total Energy          =    -458.4672207317941570 [Eh]
	-----------------------------------------------------------

  Dipole Moment: [D]
     X:    -0.3200      Y:    -1.1235      Z:     0.0280     Total:     1.1686

*** Psi4 exiting successfully. Buy a developer a beer!
