                               Psi4 1.3.2 release

  ==> Input File <==

--------------------------------------------------------------------------
#psi4
#
memory 32 gb

molecule  {
0 1
  O       -1.6636540     1.3623100    -0.0826750
  O        3.2950020     0.8732560    -0.0394660
  O        2.6676780    -1.2988900     0.0825990
  C       -2.5713650    -0.8630400     0.0337620
  C       -1.4513780     0.1516300    -0.0098980
  C       -3.9526870    -0.2300600    -0.0211700
  C       -0.0615660    -0.3898680     0.0323710
  C        0.9539013     0.4860124    -0.0113567
  C        2.3702780    -0.1170190     0.0219370
  H       -2.4419680    -1.4628000     0.9443570
  H       -2.4189490    -1.5634100    -0.8003330
  H       -4.1001540     0.4487780     0.8215890
  H       -4.7285220    -0.9991160     0.0102380
  H       -4.0749460     0.3516660    -0.9371360
  H        0.0315973    -1.4721834     0.0960192
  H        0.8681440     1.5076730    -0.0687300
  H        4.1643390     0.4215720    -0.0233140
units angstrom
no_reorient  #important for SAPT in psi4, default
symmetry c1  #important for SAPT in psi4, default
}

set PROPERTIES_ORIGIN ["COM"]
properties('MP2/aug-cc-pvtz', properties = ['dipole'])
--------------------------------------------------------------------------

    Molecular point group: c1
  Charge       = 0
  Multiplicity = 1
  Basis Set: AUG-CC-PVTZ
    Blend: AUG-CC-PVTZ
  Basis Set: (AUG-CC-PVTZ AUX)
    Blend: AUG-CC-PVTZ-JKFIT

    Orbital Energies [Eh]
    ---------------------

    Doubly Occupied:

       1A    -20.627749     2A    -20.563162     3A    -20.557373
       4A    -11.408827     5A    -11.346079     6A    -11.279094
       7A    -11.274956     8A    -11.251168     9A    -11.224244
      10A     -1.471549    11A     -1.388277    12A     -1.367556
      13A     -1.107107    14A     -1.063985    15A     -0.951274
      16A     -0.883047    17A     -0.801348    18A     -0.753275
      19A     -0.714002    20A     -0.713065    21A     -0.655874
      22A     -0.649271    23A     -0.642398    24A     -0.637814
      25A     -0.604878    26A     -0.578815    27A     -0.538938
      28A     -0.537811    29A     -0.523246    30A     -0.500105
      31A     -0.495511    32A     -0.469143    33A     -0.431176
      34A     -0.404877

  @DF-RHF Final Energy:  -456.62267591081877

   => Energetics <=

    Nuclear Repulsion Energy =            412.9968997577685172
    One-Electron Energy =               -1442.4051639800966313
    Two-Electron Energy =                 572.7855883115094002
    Total Energy =                       -456.6226759108187707
  Basis Set: (AUG-CC-PVTZ AUX)
    Blend: AUG-CC-PVTZ-RI
    Molecular point group: c1

    Geometry (in Angstrom), charge = 0, multiplicity = 1:

       Center              X                  Y                   Z               Mass
    ------------   -----------------  -----------------  -----------------  -----------------
         O           -1.659037841926     1.357277183687    -0.082349315293    15.994914619570
         O            3.299618158074     0.868223183687    -0.039140315293    15.994914619570
         O            2.672294158074    -1.303922816313     0.082924684707    15.994914619570
         C           -2.566748841926    -0.868072816313     0.034087684707    12.000000000000
         C           -1.446761841926     0.146597183687    -0.009572315293    12.000000000000
         C           -3.948070841926    -0.235092816313    -0.020844315293    12.000000000000
         C           -0.056949841926    -0.394900816313     0.032696684707    12.000000000000
         C            0.958517458074     0.480979583687    -0.011031015293    12.000000000000
         C            2.374894158074    -0.122051816313     0.022262684707    12.000000000000
         H           -2.437351841926    -1.467832816313     0.944682684707     1.007825032230
         H           -2.414332841926    -1.568442816313    -0.800007315293     1.007825032230
         H           -4.095537841926     0.443745183687     0.821914684707     1.007825032230
         H           -4.723905841926    -1.004148816313     0.010563684707     1.007825032230
         H           -4.070329841926     0.346633183687    -0.936810315293     1.007825032230
         H            0.036213458074    -1.477216216313     0.096344884707     1.007825032230
         H            0.872760158074     1.502640183687    -0.068404315293     1.007825032230
         H            4.168955158074     0.416539183687    -0.022988315293     1.007825032230

  Basis Set: AUG-CC-PVTZ
    Blend: AUG-CC-PVTZ
  Basis Set: (AUG-CC-PVTZ AUX)
    Blend: AUG-CC-PVTZ-JKFIT
	 Reference Energy          =    -456.6226759108187707 [Eh]
	 Singles Energy            =      -0.0000000000000000 [Eh]
	 Same-Spin Energy          =      -0.4478287655749669 [Eh]
	 Opposite-Spin Energy      =      -1.4086516369675042 [Eh]
	 Correlation Energy        =      -1.8564804025424710 [Eh]
	 Total Energy              =    -458.4791563133612158 [Eh]

	 ================> DF-SCS-MP2 Energies <==================
	-----------------------------------------------------------
	 SCS Same-Spin Scale       =       0.3333333333333333 [-]
	 SCS Opposite-Spin Scale   =       1.2000000000000000 [-]
	 SCS Same-Spin Energy      =      -0.1492762551916556 [Eh]
	 SCS Opposite-Spin Energy  =      -1.6903819643610050 [Eh]
	 SCS Correlation Energy    =      -1.8396582195526605 [Eh]
	 SCS Total Energy          =    -458.4623341303714597 [Eh]
	-----------------------------------------------------------

  Dipole Moment: [D]
     X:    -0.0796      Y:    -1.1874      Z:     0.0624     Total:     1.1917

*** Psi4 exiting successfully. Buy a developer a beer!
