                               Psi4 1.4a3.dev225

  ==> Input File <==

--------------------------------------------------------------------------
#psi4
#
memory 32 gb

molecule  {
0 1
  O       -1.5457390    -1.4151030    -0.0000120
  O        3.4055420    -0.8324430     0.0000000
  O        2.7346890     1.3362110     0.0000030
  C       -2.4962220     0.7973420     0.0000070
  C       -1.3569730    -0.1975560    -0.0000120
  C       -3.8659970     0.1363490     0.0000100
  C        0.0693731     0.3900124    -0.0000244
  C        1.1002740    -0.4324720     0.0000170
  C        2.4625110     0.1452670     0.0000070
  H       -2.3684100     1.4519690    -0.8733630
  H       -2.3683970     1.4519470     0.8733920
  H       -3.9887950    -0.4970190    -0.8807080
  H       -4.6559460     0.8916380     0.0000190
  H       -3.9887860    -0.4970320     0.8807180
  H        0.1589340     1.4510060    -0.0000590
  H        0.9863010    -1.5124980     0.0000520
  H        4.2687480    -0.3687180    -0.0000090
units angstrom
no_reorient  #important for SAPT in psi4, default
symmetry c1  #important for SAPT in psi4, default
}

set PROPERTIES_ORIGIN ["COM"]
properties('MP2/aug-cc-pvtz', properties = ['dipole'])
--------------------------------------------------------------------------

    Molecular point group: c1
  Charge       = 0
  Multiplicity = 1
  Basis Set: AUG-CC-PVTZ
    Blend: AUG-CC-PVTZ
  Basis Set: (AUG-CC-PVTZ AUX)
    Blend: AUG-CC-PVTZ-JKFIT

    Orbital Energies [Eh]
    ---------------------

    Doubly Occupied:

       1A    -20.626383     2A    -20.561996     3A    -20.559978
       4A    -11.404019     5A    -11.353514     6A    -11.274320
       7A    -11.270444     8A    -11.253605     9A    -11.225776
      10A     -1.469548    11A     -1.389751    12A     -1.365857
      13A     -1.110804    14A     -1.066284    15A     -0.950147
      16A     -0.887750    17A     -0.794805    18A     -0.749815
      19A     -0.717708    20A     -0.712597    21A     -0.657010
      22A     -0.642981    23A     -0.640822    24A     -0.638022
      25A     -0.608260    26A     -0.574386    27A     -0.540097
      28A     -0.538856    29A     -0.524278    30A     -0.500922
      31A     -0.495646    32A     -0.469614    33A     -0.431822
      34A     -0.409219

  @DF-RHF Final Energy:  -456.62699339582610

   => Energetics <=

    Nuclear Repulsion Energy =            413.0316773064494100
    One-Electron Energy =               -1442.4832732588588442
    Two-Electron Energy =                 572.8246025565833861
    Total Energy =                       -456.6269933958260481
  Basis Set: (AUG-CC-PVTZ AUX)
    Blend: AUG-CC-PVTZ-RI
    Molecular point group: c1

    Geometry (in Angstrom), charge = 0, multiplicity = 1:

       Center              X                  Y                   Z               Mass
    ------------   -----------------  -----------------  -----------------  -----------------
         O           -1.642532812585    -1.398549995443    -0.000011637434    15.994914619570
         O            3.308748187415    -0.815889995443     0.000000362566    15.994914619570
         O            2.637895187415     1.352764004557     0.000003362566    15.994914619570
         C           -2.593015812585     0.813895004557     0.000007362566    12.000000000000
         C           -1.453766812585    -0.181002995443    -0.000011637434    12.000000000000
         C           -3.962790812585     0.152902004557     0.000010362566    12.000000000000
         C           -0.027420712585     0.406565404557    -0.000024037434    12.000000000000
         C            1.003480187415    -0.415918995443     0.000017362566    12.000000000000
         C            2.365717187415     0.161820004557     0.000007362566    12.000000000000
         H           -2.465203812585     1.468522004557    -0.873362637434     1.007825032230
         H           -2.465190812585     1.468500004557     0.873392362566     1.007825032230
         H           -4.085588812585    -0.480465995443    -0.880707637434     1.007825032230
         H           -4.752739812585     0.908191004557     0.000019362566     1.007825032230
         H           -4.085579812585    -0.480478995443     0.880718362566     1.007825032230
         H            0.062140187415     1.467559004557    -0.000058637434     1.007825032230
         H            0.889507187415    -1.495944995443     0.000052362566     1.007825032230
         H            4.171954187415    -0.352164995443    -0.000008637434     1.007825032230

  Basis Set: AUG-CC-PVTZ
    Blend: AUG-CC-PVTZ
  Basis Set: (AUG-CC-PVTZ AUX)
    Blend: AUG-CC-PVTZ-JKFIT
	 Reference Energy          =    -456.6269933958261049 [Eh]
	 Singles Energy            =      -0.0000000000000000 [Eh]
	 Same-Spin Energy          =      -0.4477704587561033 [Eh]
	 Opposite-Spin Energy      =      -1.4083008146549378 [Eh]
	 Correlation Energy        =      -1.8560712734110412 [Eh]
	 Total Energy              =    -458.4830646692371374 [Eh]

	 ================> DF-SCS-MP2 Energies <==================
	-----------------------------------------------------------
	 SCS Same-Spin Scale       =       0.3333333333333333 [-]
	 SCS Opposite-Spin Scale   =       1.2000000000000000 [-]
	 SCS Same-Spin Energy      =      -0.1492568195853677 [Eh]
	 SCS Opposite-Spin Energy  =      -1.6899609775859255 [Eh]
	 SCS Correlation Energy    =      -1.8392177971712933 [Eh]
	 SCS Total Energy          =    -458.4662111929973776 [Eh]
	-----------------------------------------------------------

  Dipole Moment: [D]
     X:    -0.3097      Y:     1.1777      Z:     0.0000     Total:     1.2177

*** Psi4 exiting successfully. Buy a developer a beer!
