                               Psi4 1.3.2 release

  ==> Input File <==

--------------------------------------------------------------------------
#psi4
#
memory 32 gb

molecule  {
0 1
  O       -1.6636540     1.3623100    -0.0826750
  O        3.2950020     0.8732560    -0.0394660
  O        2.6676780    -1.2988900     0.0825990
  C       -2.5713650    -0.8630400     0.0337620
  C       -1.4513780     0.1516300    -0.0098980
  C       -3.9526870    -0.2300600    -0.0211700
  C       -0.0615660    -0.3898680     0.0323710
  C        0.9984040     0.4317740    -0.0078830
  C        2.3702780    -0.1170190     0.0219370
  H       -2.4419680    -1.4628000     0.9443570
  H       -2.4189490    -1.5634100    -0.8003330
  H       -4.1001540     0.4487780     0.8215890
  H       -4.7285220    -0.9991160     0.0102380
  H       -4.0749460     0.3516660    -0.9371360
  H        0.0882100    -1.4658090     0.0960520
  H        0.8441432     1.7059109    -0.0799413
  H        4.1643390     0.4215720    -0.0233140
units angstrom
no_reorient  #important for SAPT in psi4, default
symmetry c1  #important for SAPT in psi4, default
}

set PROPERTIES_ORIGIN ["COM"]
properties('MP2/aug-cc-pvtz', properties = ['dipole'])
--------------------------------------------------------------------------

    Molecular point group: c1
  Charge       = 0
  Multiplicity = 1
  Basis Set: AUG-CC-PVTZ
    Blend: AUG-CC-PVTZ
  Basis Set: (AUG-CC-PVTZ AUX)
    Blend: AUG-CC-PVTZ-JKFIT

    Orbital Energies [Eh]
    ---------------------

    Doubly Occupied:

       1A    -20.627003     2A    -20.562241     3A    -20.560089
       4A    -11.406858     5A    -11.349735     6A    -11.293582
       7A    -11.276377     8A    -11.252424     9A    -11.225075
      10A     -1.472025    11A     -1.390037    12A     -1.367832
      13A     -1.105033    14A     -1.064386    15A     -0.954919
      16A     -0.887542    17A     -0.796410    18A     -0.730824
      19A     -0.715365    20A     -0.710461    21A     -0.661793
      22A     -0.643766    23A     -0.638929    24A     -0.630307
      25A     -0.606679    26A     -0.545650    27A     -0.539734
      28A     -0.539156    29A     -0.524258    30A     -0.500874
      31A     -0.496013    32A     -0.468016    33A     -0.435132
      34A     -0.404219

  @DF-RHF Final Energy:  -456.60541303942466

   => Energetics <=

    Nuclear Repulsion Energy =            412.6065372524602708
    One-Electron Energy =               -1441.6584147328369454
    Two-Electron Energy =                 572.4464644409521270
    Total Energy =                       -456.6054130394246613
  Basis Set: (AUG-CC-PVTZ AUX)
    Blend: AUG-CC-PVTZ-RI
    Molecular point group: c1

    Geometry (in Angstrom), charge = 0, multiplicity = 1:

       Center              X                  Y                   Z               Mass
    ------------   -----------------  -----------------  -----------------  -----------------
         O           -1.663465106647     1.360749707113    -0.082586871395    15.994914619570
         O            3.295190893353     0.871695707113    -0.039377871395    15.994914619570
         O            2.667866893353    -1.300450292887     0.082687128605    15.994914619570
         C           -2.571176106647    -0.864600292887     0.033850128605    12.000000000000
         C           -1.451189106647     0.150069707113    -0.009809871395    12.000000000000
         C           -3.952498106647    -0.231620292887    -0.021081871395    12.000000000000
         C           -0.061377106647    -0.391428292887     0.032459128605    12.000000000000
         C            0.998592893353     0.430213707113    -0.007794871395    12.000000000000
         C            2.370466893353    -0.118579292887     0.022025128605    12.000000000000
         H           -2.441779106647    -1.464360292887     0.944445128605     1.007825032230
         H           -2.418760106647    -1.564970292887    -0.800244871395     1.007825032230
         H           -4.099965106647     0.447217707113     0.821677128605     1.007825032230
         H           -4.728333106647    -1.000676292887     0.010326128605     1.007825032230
         H           -4.074757106647     0.350105707113    -0.937047871395     1.007825032230
         H            0.088398893353    -1.467369292887     0.096140128605     1.007825032230
         H            0.844332093353     1.704350607113    -0.079853171395     1.007825032230
         H            4.164527893353     0.420011707113    -0.023225871395     1.007825032230

  Basis Set: AUG-CC-PVTZ
    Blend: AUG-CC-PVTZ
  Basis Set: (AUG-CC-PVTZ AUX)
    Blend: AUG-CC-PVTZ-JKFIT
	 Reference Energy          =    -456.6054130394246613 [Eh]
	 Singles Energy            =      -0.0000000000000000 [Eh]
	 Same-Spin Energy          =      -0.4491356930403646 [Eh]
	 Opposite-Spin Energy      =      -1.4114528389043581 [Eh]
	 Correlation Energy        =      -1.8605885319447228 [Eh]
	 Total Energy              =    -458.4660015713693610 [Eh]

	 ================> DF-SCS-MP2 Energies <==================
	-----------------------------------------------------------
	 SCS Same-Spin Scale       =       0.3333333333333333 [-]
	 SCS Opposite-Spin Scale   =       1.2000000000000000 [-]
	 SCS Same-Spin Energy      =      -0.1497118976801215 [Eh]
	 SCS Opposite-Spin Energy  =      -1.6937434066852297 [Eh]
	 SCS Correlation Energy    =      -1.8434553043653512 [Eh]
	 SCS Total Energy          =    -458.4488683437900249 [Eh]
	-----------------------------------------------------------

  Dipole Moment: [D]
     X:    -0.1719      Y:    -1.1475      Z:     0.0593     Total:     1.1618

*** Psi4 exiting successfully. Buy a developer a beer!
