                               Psi4 1.4a3.dev225

  ==> Input File <==

--------------------------------------------------------------------------
#psi4
#
memory 32 gb

molecule  {
0 1
  O       -1.5457390    -1.4151030    -0.0000120
  O        3.4055420    -0.8324430     0.0000000
  O        2.7346890     1.3362110     0.0000030
  C       -2.4962220     0.7973420     0.0000070
  C       -1.3569730    -0.1975560    -0.0000120
  C       -3.8659970     0.1363490     0.0000100
  C        0.0231420     0.3709680    -0.0000240
  C        1.1002740    -0.4324720     0.0000170
  C        2.4625110     0.1452670     0.0000070
  H       -2.3684100     1.4519690    -0.8733630
  H       -2.3683970     1.4519470     0.8733920
  H       -3.9887950    -0.4970190    -0.8807080
  H       -4.6559460     0.8916380     0.0000190
  H       -3.9887860    -0.4970320     0.8807180
  H        0.1651713     1.5006154    -0.0000606
  H        0.9863010    -1.5124980     0.0000520
  H        4.2687480    -0.3687180    -0.0000090
units angstrom
no_reorient  #important for SAPT in psi4, default
symmetry c1  #important for SAPT in psi4, default
}

set PROPERTIES_ORIGIN ["COM"]
properties('MP2/aug-cc-pvtz', properties = ['dipole'])
--------------------------------------------------------------------------

    Molecular point group: c1
  Charge       = 0
  Multiplicity = 1
  Basis Set: AUG-CC-PVTZ
    Blend: AUG-CC-PVTZ
  Basis Set: (AUG-CC-PVTZ AUX)
    Blend: AUG-CC-PVTZ-JKFIT

    Orbital Energies [Eh]
    ---------------------

    Doubly Occupied:

       1A    -20.627938     2A    -20.561860     3A    -20.561140
       4A    -11.406376     5A    -11.350817     6A    -11.281615
       7A    -11.276472     8A    -11.252537     9A    -11.225085
      10A     -1.471029    11A     -1.390458    12A     -1.367268
      13A     -1.106788    14A     -1.065372    15A     -0.955986
      16A     -0.887028    17A     -0.798685    18A     -0.740996
      19A     -0.718301    20A     -0.710919    21A     -0.660939
      22A     -0.643452    23A     -0.640333    24A     -0.638636
      25A     -0.605709    26A     -0.564266    27A     -0.540051
      28A     -0.538838    29A     -0.524354    30A     -0.500906
      31A     -0.496079    32A     -0.471370    33A     -0.435527
      34A     -0.403793

  @DF-RHF Final Energy:  -456.62522849726946

   => Energetics <=

    Nuclear Repulsion Energy =            412.9290485416536285
    One-Electron Energy =               -1442.2667123284538775
    Two-Electron Energy =                 572.7124352895307311
    Total Energy =                       -456.6252284972695179
  Basis Set: (AUG-CC-PVTZ AUX)
    Blend: AUG-CC-PVTZ-RI
    Molecular point group: c1

    Geometry (in Angstrom), charge = 0, multiplicity = 1:

       Center              X                  Y                   Z               Mass
    ------------   -----------------  -----------------  -----------------  -----------------
         O           -1.638249341524    -1.397155704870    -0.000011662327    15.994914619570
         O            3.313031658476    -0.814495704870     0.000000337673    15.994914619570
         O            2.642178658476     1.354158295130     0.000003337673    15.994914619570
         C           -2.588732341524     0.815289295130     0.000007337673    12.000000000000
         C           -1.449483341524    -0.179608704870    -0.000011662327    12.000000000000
         C           -3.958507341524     0.154296295130     0.000010337673    12.000000000000
         C           -0.069368341524     0.388915295130    -0.000023662327    12.000000000000
         C            1.007763658476    -0.414524704870     0.000017337673    12.000000000000
         C            2.370000658476     0.163214295130     0.000007337673    12.000000000000
         H           -2.460920341524     1.469916295130    -0.873362662327     1.007825032230
         H           -2.460907341524     1.469894295130     0.873392337673     1.007825032230
         H           -4.081305341524    -0.479071704870    -0.880707662327     1.007825032230
         H           -4.748456341524     0.909585295130     0.000019337673     1.007825032230
         H           -4.081296341524    -0.479084704870     0.880718337673     1.007825032230
         H            0.072660958476     1.518562695130    -0.000060262327     1.007825032230
         H            0.893790658476    -1.494550704870     0.000052337673     1.007825032230
         H            4.176237658476    -0.350770704870    -0.000008662327     1.007825032230

  Basis Set: AUG-CC-PVTZ
    Blend: AUG-CC-PVTZ
  Basis Set: (AUG-CC-PVTZ AUX)
    Blend: AUG-CC-PVTZ-JKFIT
	 Reference Energy          =    -456.6252284972694611 [Eh]
	 Singles Energy            =      -0.0000000000000000 [Eh]
	 Same-Spin Energy          =      -0.4485396110313125 [Eh]
	 Opposite-Spin Energy      =      -1.4098443339540188 [Eh]
	 Correlation Energy        =      -1.8583839449853312 [Eh]
	 Total Energy              =    -458.4836124422548096 [Eh]

	 ================> DF-SCS-MP2 Energies <==================
	-----------------------------------------------------------
	 SCS Same-Spin Scale       =       0.3333333333333333 [-]
	 SCS Opposite-Spin Scale   =       1.2000000000000000 [-]
	 SCS Same-Spin Energy      =      -0.1495132036771041 [Eh]
	 SCS Opposite-Spin Energy  =      -1.6918132007448226 [Eh]
	 SCS Correlation Energy    =      -1.8413264044219266 [Eh]
	 SCS Total Energy          =    -458.4665549016913815 [Eh]
	-----------------------------------------------------------

  Dipole Moment: [D]
     X:    -0.1822      Y:     1.1781      Z:     0.0000     Total:     1.1921

*** Psi4 exiting successfully. Buy a developer a beer!
