                               Psi4 1.3.2 release

  ==> Input File <==

--------------------------------------------------------------------------
#psi4
#
memory 32 gb

molecule  {
0 1
  O       -1.6636540     1.3623100    -0.0826750
  O        3.2950020     0.8732560    -0.0394660
  O        2.6676780    -1.2988900     0.0825990
  C       -2.5713650    -0.8630400     0.0337620
  C       -1.4513780     0.1516300    -0.0098980
  C       -3.9526870    -0.2300600    -0.0211700
  C       -0.0170605    -0.4441420     0.0351915
  C        0.9984040     0.4317740    -0.0078830
  C        2.3396341    -0.1879749     0.0254992
  H       -2.4419680    -1.4628000     0.9443570
  H       -2.4189490    -1.5634100    -0.8003330
  H       -4.1001540     0.4487780     0.8215890
  H       -4.7285220    -0.9991160     0.0102380
  H       -4.0749460     0.3516660    -0.9371360
  H        0.0882100    -1.4658090     0.0960520
  H        0.8681440     1.5076730    -0.0687300
  H        4.1643390     0.4215720    -0.0233140
units angstrom
no_reorient  #important for SAPT in psi4, default
symmetry c1  #important for SAPT in psi4, default
}

set PROPERTIES_ORIGIN ["COM"]
properties('MP2/aug-cc-pvtz', properties = ['dipole'])
--------------------------------------------------------------------------

    Molecular point group: c1
  Charge       = 0
  Multiplicity = 1
  Basis Set: AUG-CC-PVTZ
    Blend: AUG-CC-PVTZ
  Basis Set: (AUG-CC-PVTZ AUX)
    Blend: AUG-CC-PVTZ-JKFIT

    Orbital Energies [Eh]
    ---------------------

    Doubly Occupied:

       1A    -20.603586     2A    -20.573233     3A    -20.563511
       4A    -11.399226     5A    -11.355001     6A    -11.277578
       7A    -11.275867     8A    -11.253516     9A    -11.225960
      10A     -1.476587    11A     -1.390972    12A     -1.368460
      13A     -1.111315    14A     -1.066694    15A     -0.947851
      16A     -0.880563    17A     -0.780799    18A     -0.760205
      19A     -0.715006    20A     -0.714835    21A     -0.655504
      22A     -0.643056    23A     -0.639516    24A     -0.635279
      25A     -0.609522    26A     -0.592103    27A     -0.540270
      28A     -0.538846    29A     -0.524779    30A     -0.505773
      31A     -0.499316    32A     -0.472610    33A     -0.430691
      34A     -0.409444

  @DF-RHF Final Energy:  -456.61735236366218

   => Energetics <=

    Nuclear Repulsion Energy =            413.2853631365296110
    One-Electron Energy =               -1442.9304790288149434
    Two-Electron Energy =                 573.0277635286231543
    Total Energy =                       -456.6173523636621212
  Basis Set: (AUG-CC-PVTZ AUX)
    Blend: AUG-CC-PVTZ-RI
    Molecular point group: c1

    Geometry (in Angstrom), charge = 0, multiplicity = 1:

       Center              X                  Y                   Z               Mass
    ------------   -----------------  -----------------  -----------------  -----------------
         O           -1.664953054783     1.374045944764    -0.083273269300    15.994914619570
         O            3.293702945217     0.884991944764    -0.040064269300    15.994914619570
         O            2.666378945217    -1.287154055236     0.082000730700    15.994914619570
         C           -2.572664054783    -0.851304055236     0.033163730700    12.000000000000
         C           -1.452677054783     0.163365944764    -0.010496269300    12.000000000000
         C           -3.953986054783    -0.218324055236    -0.021768269300    12.000000000000
         C           -0.018359554783    -0.432406055236     0.034593230700    12.000000000000
         C            0.997104945217     0.443509944764    -0.008481269300    12.000000000000
         C            2.338335045217    -0.176238955236     0.024900930700    12.000000000000
         H           -2.443267054783    -1.451064055236     0.943758730700     1.007825032230
         H           -2.420248054783    -1.551674055236    -0.800931269300     1.007825032230
         H           -4.101453054783     0.460513944764     0.820990730700     1.007825032230
         H           -4.729821054783    -0.987380055236     0.009639730700     1.007825032230
         H           -4.076245054783     0.363401944764    -0.937734269300     1.007825032230
         H            0.086910945217    -1.454073055236     0.095453730700     1.007825032230
         H            0.866844945217     1.519408944764    -0.069328269300     1.007825032230
         H            4.163039945217     0.433307944764    -0.023912269300     1.007825032230

  Basis Set: AUG-CC-PVTZ
    Blend: AUG-CC-PVTZ
  Basis Set: (AUG-CC-PVTZ AUX)
    Blend: AUG-CC-PVTZ-JKFIT
	 Reference Energy          =    -456.6173523636621780 [Eh]
	 Singles Energy            =      -0.0000000000000000 [Eh]
	 Same-Spin Energy          =      -0.4473716604448785 [Eh]
	 Opposite-Spin Energy      =      -1.4079042149595895 [Eh]
	 Correlation Energy        =      -1.8552758754044680 [Eh]
	 Total Energy              =    -458.4726282390666370 [Eh]

	 ================> DF-SCS-MP2 Energies <==================
	-----------------------------------------------------------
	 SCS Same-Spin Scale       =       0.3333333333333333 [-]
	 SCS Opposite-Spin Scale   =       1.2000000000000000 [-]
	 SCS Same-Spin Energy      =      -0.1491238868149595 [Eh]
	 SCS Opposite-Spin Energy  =      -1.6894850579515073 [Eh]
	 SCS Correlation Energy    =      -1.8386089447664666 [Eh]
	 SCS Total Energy          =    -458.4559613084286411 [Eh]
	-----------------------------------------------------------

  Dipole Moment: [D]
     X:    -0.6589      Y:    -1.7504      Z:     0.0936     Total:     1.8726

*** Psi4 exiting successfully. Buy a developer a beer!
