                               Psi4 1.4a3.dev225

  ==> Input File <==

--------------------------------------------------------------------------
#psi4
#
memory 32 gb

molecule  {
0 1
  O       -1.5457390    -1.4151030    -0.0000120
  O        3.4055420    -0.8324430     0.0000000
  O        2.7346890     1.3362110     0.0000030
  C       -2.4962220     0.7973420     0.0000070
  C       -1.3493126    -0.1481463    -0.0000120
  C       -3.8659970     0.1363490     0.0000100
  C        0.0231420     0.3709680    -0.0000240
  C        1.1002740    -0.4324720     0.0000170
  C        2.4625110     0.1452670     0.0000070
  H       -2.3684100     1.4519690    -0.8733630
  H       -2.3683970     1.4519470     0.8733920
  H       -3.9887950    -0.4970190    -0.8807080
  H       -4.6559460     0.8916380     0.0000190
  H       -3.9887860    -0.4970320     0.8807180
  H        0.1589340     1.4510060    -0.0000590
  H        0.9863010    -1.5124980     0.0000520
  H        4.2687480    -0.3687180    -0.0000090
units angstrom
no_reorient  #important for SAPT in psi4, default
symmetry c1  #important for SAPT in psi4, default
}

set PROPERTIES_ORIGIN ["COM"]
properties('MP2/aug-cc-pvtz', properties = ['dipole'])
--------------------------------------------------------------------------

    Molecular point group: c1
  Charge       = 0
  Multiplicity = 1
  Basis Set: AUG-CC-PVTZ
    Blend: AUG-CC-PVTZ
  Basis Set: (AUG-CC-PVTZ AUX)
    Blend: AUG-CC-PVTZ-JKFIT

    Orbital Energies [Eh]
    ---------------------

    Doubly Occupied:

       1A    -20.629402     2A    -20.563812     3A    -20.556278
       4A    -11.408274     5A    -11.352956     6A    -11.280543
       7A    -11.277316     8A    -11.254519     9A    -11.226276
      10A     -1.472610    11A     -1.368995    12A     -1.358177
      13A     -1.112062    14A     -1.070232    15A     -0.963213
      16A     -0.892015    17A     -0.803716    18A     -0.746881
      19A     -0.716895    20A     -0.713988    21A     -0.660941
      22A     -0.644974    23A     -0.640211    24A     -0.634295
      25A     -0.604905    26A     -0.566087    27A     -0.540196
      28A     -0.532787    29A     -0.521898    30A     -0.501422
      31A     -0.489372    32A     -0.473113    33A     -0.440281
      34A     -0.401806

  @DF-RHF Final Energy:  -456.61782398676178

   => Energetics <=

    Nuclear Repulsion Energy =            412.9080937825651176
    One-Electron Energy =               -1442.2109390200043890
    Two-Electron Energy =                 572.6850212506774369
    Total Energy =                       -456.6178239867617776
  Basis Set: (AUG-CC-PVTZ AUX)
    Blend: AUG-CC-PVTZ-RI
    Molecular point group: c1

    Geometry (in Angstrom), charge = 0, multiplicity = 1:

       Center              X                  Y                   Z               Mass
    ------------   -----------------  -----------------  -----------------  -----------------
         O           -1.638918146438    -1.401395689764    -0.000011674920    15.994914619570
         O            3.312362853562    -0.818735689764     0.000000325080    15.994914619570
         O            2.641509853562     1.349918310236     0.000003325080    15.994914619570
         C           -2.589401146438     0.811049310236     0.000007325080    12.000000000000
         C           -1.442491746438    -0.134438989764    -0.000011674920    12.000000000000
         C           -3.959176146438     0.150056310236     0.000010325080    12.000000000000
         C           -0.070037146438     0.384675310236    -0.000023674920    12.000000000000
         C            1.007094853562    -0.418764689764     0.000017325080    12.000000000000
         C            2.369331853562     0.158974310236     0.000007325080    12.000000000000
         H           -2.461589146438     1.465676310236    -0.873362674920     1.007825032230
         H           -2.461576146438     1.465654310236     0.873392325080     1.007825032230
         H           -4.081974146438    -0.483311689764    -0.880707674920     1.007825032230
         H           -4.749125146438     0.905345310236     0.000019325080     1.007825032230
         H           -4.081965146438    -0.483324689764     0.880718325080     1.007825032230
         H            0.065754853562     1.464713310236    -0.000058674920     1.007825032230
         H            0.893121853562    -1.498790689764     0.000052325080     1.007825032230
         H            4.175568853562    -0.355010689764    -0.000008674920     1.007825032230

  Basis Set: AUG-CC-PVTZ
    Blend: AUG-CC-PVTZ
  Basis Set: (AUG-CC-PVTZ AUX)
    Blend: AUG-CC-PVTZ-JKFIT
	 Reference Energy          =    -456.6178239867617776 [Eh]
	 Singles Energy            =      -0.0000000000000000 [Eh]
	 Same-Spin Energy          =      -0.4501430676180010 [Eh]
	 Opposite-Spin Energy      =      -1.4130284519587206 [Eh]
	 Correlation Energy        =      -1.8631715195767216 [Eh]
	 Total Energy              =    -458.4809955063385019 [Eh]

	 ================> DF-SCS-MP2 Energies <==================
	-----------------------------------------------------------
	 SCS Same-Spin Scale       =       0.3333333333333333 [-]
	 SCS Opposite-Spin Scale   =       1.2000000000000000 [-]
	 SCS Same-Spin Energy      =      -0.1500476892060003 [Eh]
	 SCS Opposite-Spin Energy  =      -1.6956341423504646 [Eh]
	 SCS Correlation Energy    =      -1.8456818315564649 [Eh]
	 SCS Total Energy          =    -458.4635058183182537 [Eh]
	-----------------------------------------------------------

  Dipole Moment: [D]
     X:    -0.1514      Y:     1.3324      Z:     0.0000     Total:     1.3410

*** Psi4 exiting successfully. Buy a developer a beer!
