                               Psi4 1.3.2 release

  ==> Input File <==

--------------------------------------------------------------------------
#psi4
#
memory 32 gb

molecule  {
0 1
  O       -1.6530628     1.3641216    -0.0826382
  O        3.2950020     0.8732560    -0.0394660
  O        2.6676780    -1.2988900     0.0825990
  C       -2.5624614    -0.8727528     0.0344420
  C       -1.4513780     0.1516300    -0.0098980
  C       -3.9526870    -0.2300600    -0.0211700
  C       -0.0615660    -0.3898680     0.0323710
  C        0.9984040     0.4317740    -0.0078830
  C        2.3702780    -0.1170190     0.0219370
  H       -2.4419680    -1.4628000     0.9443570
  H       -2.4189490    -1.5634100    -0.8003330
  H       -4.1001540     0.4487780     0.8215890
  H       -4.7285220    -0.9991160     0.0102380
  H       -4.0749460     0.3516660    -0.9371360
  H        0.0882100    -1.4658090     0.0960520
  H        0.8681440     1.5076730    -0.0687300
  H        4.1643390     0.4215720    -0.0233140
units angstrom
no_reorient  #important for SAPT in psi4, default
symmetry c1  #important for SAPT in psi4, default
}

set PROPERTIES_ORIGIN ["COM"]
properties('MP2/aug-cc-pvtz', properties = ['dipole'])
--------------------------------------------------------------------------

    Molecular point group: c1
  Charge       = 0
  Multiplicity = 1
  Basis Set: AUG-CC-PVTZ
    Blend: AUG-CC-PVTZ
  Basis Set: (AUG-CC-PVTZ AUX)
    Blend: AUG-CC-PVTZ-JKFIT

    Orbital Energies [Eh]
    ---------------------

    Doubly Occupied:

       1A    -20.627306     2A    -20.561184     3A    -20.561001
       4A    -11.405066     5A    -11.350169     6A    -11.276192
       7A    -11.274524     8A    -11.252371     9A    -11.226022
      10A     -1.471921    11A     -1.390820    12A     -1.367181
      13A     -1.108674    14A     -1.064863    15A     -0.956580
      16A     -0.887730    17A     -0.799337    18A     -0.746711
      19A     -0.718710    20A     -0.712618    21A     -0.660833
      22A     -0.644700    23A     -0.641077    24A     -0.639519
      25A     -0.606450    26A     -0.569850    27A     -0.540251
      28A     -0.537432    29A     -0.523776    30A     -0.502850
      31A     -0.496727    32A     -0.470826    33A     -0.435605
      34A     -0.403707

  @DF-RHF Final Energy:  -456.62827515504625

   => Energetics <=

    Nuclear Repulsion Energy =            413.4389086070621602
    One-Electron Energy =               -1443.2691993472476497
    Two-Electron Energy =                 573.2020155851392929
    Total Energy =                       -456.6282751550462535
  Basis Set: (AUG-CC-PVTZ AUX)
    Blend: AUG-CC-PVTZ-RI
    Molecular point group: c1

    Geometry (in Angstrom), charge = 0, multiplicity = 1:

       Center              X                  Y                   Z               Mass
    ------------   -----------------  -----------------  -----------------  -----------------
         O           -1.655220204017     1.364805526489    -0.082706635686    15.994914619570
         O            3.292844595983     0.873939926489    -0.039534435686    15.994914619570
         O            2.665520595983    -1.298206073511     0.082530564314    15.994914619570
         C           -2.564618804017    -0.872068873511     0.034373564314    12.000000000000
         C           -1.453535404017     0.152313926489    -0.009966435686    12.000000000000
         C           -3.954844404017    -0.229376073511    -0.021238435686    12.000000000000
         C           -0.063723404017    -0.389184073511     0.032302564314    12.000000000000
         C            0.996246595983     0.432457926489    -0.007951435686    12.000000000000
         C            2.368120595983    -0.116335073511     0.021868564314    12.000000000000
         H           -2.444125404017    -1.462116073511     0.944288564314     1.007825032230
         H           -2.421106404017    -1.562726073511    -0.800401435686     1.007825032230
         H           -4.102311404017     0.449461926489     0.821520564314     1.007825032230
         H           -4.730679404017    -0.998432073511     0.010169564314     1.007825032230
         H           -4.077103404017     0.352349926489    -0.937204435686     1.007825032230
         H            0.086052595983    -1.465125073511     0.095983564314     1.007825032230
         H            0.865986595983     1.508356926489    -0.068798435686     1.007825032230
         H            4.162181595983     0.422255926489    -0.023382435686     1.007825032230

  Basis Set: AUG-CC-PVTZ
    Blend: AUG-CC-PVTZ
  Basis Set: (AUG-CC-PVTZ AUX)
    Blend: AUG-CC-PVTZ-JKFIT
	 Reference Energy          =    -456.6282751550462535 [Eh]
	 Singles Energy            =      -0.0000000000000000 [Eh]
	 Same-Spin Energy          =      -0.4481960786058222 [Eh]
	 Opposite-Spin Energy      =      -1.4090365870623776 [Eh]
	 Correlation Energy        =      -1.8572326656681999 [Eh]
	 Total Energy              =    -458.4855078207144743 [Eh]

	 ================> DF-SCS-MP2 Energies <==================
	-----------------------------------------------------------
	 SCS Same-Spin Scale       =       0.3333333333333333 [-]
	 SCS Opposite-Spin Scale   =       1.2000000000000000 [-]
	 SCS Same-Spin Energy      =      -0.1493986928686074 [Eh]
	 SCS Opposite-Spin Energy  =      -1.6908439044748531 [Eh]
	 SCS Correlation Energy    =      -1.8402425973434604 [Eh]
	 SCS Total Energy          =    -458.4685177523896868 [Eh]
	-----------------------------------------------------------

  Dipole Moment: [D]
     X:    -0.2053      Y:    -1.1856      Z:     0.0614     Total:     1.2048

*** Psi4 exiting successfully. Buy a developer a beer!
