                               Psi4 1.4a3.dev225

  ==> Input File <==

--------------------------------------------------------------------------
#psi4
#
memory 32 gb

molecule  {
0 1
  O       -1.5457390    -1.4151030    -0.0000120
  O        3.4055420    -0.8324430     0.0000000
  O        2.7346890     1.3362110     0.0000030
  C       -2.4962220     0.7973420     0.0000070
  C       -1.3569730    -0.1975560    -0.0000120
  C       -3.8659970     0.1363490     0.0000100
  C        0.0231420     0.3709680    -0.0000240
  C        1.1002740    -0.4324720     0.0000170
  C        2.4625110     0.1452670     0.0000070
  H       -2.3684100     1.4519690    -0.8733630
  H       -2.3683970     1.4519470     0.8733920
  H       -3.9887950    -0.4970190    -0.8807080
  H       -4.6559460     0.8916380     0.0000190
  H       -3.9887860    -0.4970320     0.8807180
  H        0.1589340     1.4510060    -0.0000590
  H        0.9915483    -1.4627741     0.0000504
  H        4.2687480    -0.3687180    -0.0000090
units angstrom
no_reorient  #important for SAPT in psi4, default
symmetry c1  #important for SAPT in psi4, default
}

set PROPERTIES_ORIGIN ["COM"]
properties('MP2/aug-cc-pvtz', properties = ['dipole'])
--------------------------------------------------------------------------

    Molecular point group: c1
  Charge       = 0
  Multiplicity = 1
  Basis Set: AUG-CC-PVTZ
    Blend: AUG-CC-PVTZ
  Basis Set: (AUG-CC-PVTZ AUX)
    Blend: AUG-CC-PVTZ-JKFIT

    Orbital Energies [Eh]
    ---------------------

    Doubly Occupied:

       1A    -20.628074     2A    -20.561777     3A    -20.561004
       4A    -11.406108     5A    -11.350475     6A    -11.276588
       7A    -11.271294     8A    -11.252718     9A    -11.225221
      10A     -1.471121    11A     -1.390332    12A     -1.367271
      13A     -1.110028    14A     -1.065931    15A     -0.957798
      16A     -0.887486    17A     -0.800485    18A     -0.753578
      19A     -0.718798    20A     -0.712819    21A     -0.661146
      22A     -0.643568    23A     -0.643458    24A     -0.638757
      25A     -0.606565    26A     -0.574599    27A     -0.540026
      28A     -0.539272    29A     -0.524481    30A     -0.500988
      31A     -0.496115    32A     -0.471858    33A     -0.435590
      34A     -0.403801

  @DF-RHF Final Energy:  -456.62705284558791

   => Energetics <=

    Nuclear Repulsion Energy =            413.4031502676880905
    One-Electron Energy =               -1443.1621490220011310
    Two-Electron Energy =                 573.1319459087251289
    Total Energy =                       -456.6270528455879685
  Basis Set: (AUG-CC-PVTZ AUX)
    Blend: AUG-CC-PVTZ-RI
    Molecular point group: c1

    Geometry (in Angstrom), charge = 0, multiplicity = 1:

       Center              X                  Y                   Z               Mass
    ------------   -----------------  -----------------  -----------------  -----------------
         O           -1.638241549509    -1.397156606067    -0.000011662327    15.994914619570
         O            3.313039450491    -0.814496606067     0.000000337673    15.994914619570
         O            2.642186450491     1.354157393933     0.000003337673    15.994914619570
         C           -2.588724549509     0.815288393933     0.000007337673    12.000000000000
         C           -1.449475549509    -0.179609606067    -0.000011662327    12.000000000000
         C           -3.958499549509     0.154295393933     0.000010337673    12.000000000000
         C           -0.069360549509     0.388914393933    -0.000023662327    12.000000000000
         C            1.007771450491    -0.414525606067     0.000017337673    12.000000000000
         C            2.370008450491     0.163213393933     0.000007337673    12.000000000000
         H           -2.460912549509     1.469915393933    -0.873362662327     1.007825032230
         H           -2.460899549509     1.469893393933     0.873392337673     1.007825032230
         H           -4.081297549509    -0.479072606067    -0.880707662327     1.007825032230
         H           -4.748448549509     0.909584393933     0.000019337673     1.007825032230
         H           -4.081288549509    -0.479085606067     0.880718337673     1.007825032230
         H            0.066431450491     1.468952393933    -0.000058662327     1.007825032230
         H            0.899045750491    -1.444827706067     0.000050737673     1.007825032230
         H            4.176245450491    -0.350771606067    -0.000008662327     1.007825032230

  Basis Set: AUG-CC-PVTZ
    Blend: AUG-CC-PVTZ
  Basis Set: (AUG-CC-PVTZ AUX)
    Blend: AUG-CC-PVTZ-JKFIT
	 Reference Energy          =    -456.6270528455879116 [Eh]
	 Singles Energy            =      -0.0000000000000000 [Eh]
	 Same-Spin Energy          =      -0.4482044486878035 [Eh]
	 Opposite-Spin Energy      =      -1.4090486367014914 [Eh]
	 Correlation Energy        =      -1.8572530853892948 [Eh]
	 Total Energy              =    -458.4843059309772002 [Eh]

	 ================> DF-SCS-MP2 Energies <==================
	-----------------------------------------------------------
	 SCS Same-Spin Scale       =       0.3333333333333333 [-]
	 SCS Opposite-Spin Scale   =       1.2000000000000000 [-]
	 SCS Same-Spin Energy      =      -0.1494014828959345 [Eh]
	 SCS Opposite-Spin Energy  =      -1.6908583640417896 [Eh]
	 SCS Correlation Energy    =      -1.8402598469377240 [Eh]
	 SCS Total Energy          =    -458.4673126925256383 [Eh]
	-----------------------------------------------------------

  Dipole Moment: [D]
     X:    -0.1864      Y:     1.1900      Z:     0.0000     Total:     1.2045

*** Psi4 exiting successfully. Buy a developer a beer!
