                               Psi4 1.3.2 release

  ==> Input File <==

--------------------------------------------------------------------------
#psi4
#
memory 32 gb

molecule  {
0 1
  O       -1.6636540     1.3623100    -0.0826750
  O        3.2950020     0.8732560    -0.0394660
  O        2.6676780    -1.2988900     0.0825990
  C       -2.5713650    -0.8630400     0.0337620
  C       -1.4692699     0.1709776    -0.0112531
  C       -3.9413937    -0.2060785    -0.0224040
  C       -0.0615660    -0.3898680     0.0323710
  C        0.9984040     0.4317740    -0.0078830
  C        2.3702780    -0.1170190     0.0219370
  H       -2.4419680    -1.4628000     0.9443570
  H       -2.4189490    -1.5634100    -0.8003330
  H       -4.1001540     0.4487780     0.8215890
  H       -4.7285220    -0.9991160     0.0102380
  H       -4.0749460     0.3516660    -0.9371360
  H        0.0882100    -1.4658090     0.0960520
  H        0.8681440     1.5076730    -0.0687300
  H        4.1643390     0.4215720    -0.0233140
units angstrom
no_reorient  #important for SAPT in psi4, default
symmetry c1  #important for SAPT in psi4, default
}

set PROPERTIES_ORIGIN ["COM"]
properties('MP2/aug-cc-pvtz', properties = ['dipole'])
--------------------------------------------------------------------------

    Molecular point group: c1
  Charge       = 0
  Multiplicity = 1
  Basis Set: AUG-CC-PVTZ
    Blend: AUG-CC-PVTZ
  Basis Set: (AUG-CC-PVTZ AUX)
    Blend: AUG-CC-PVTZ-JKFIT

    Orbital Energies [Eh]
    ---------------------

    Doubly Occupied:

       1A    -20.626203     2A    -20.563027     3A    -20.559558
       4A    -11.403728     5A    -11.349028     6A    -11.275484
       7A    -11.272512     8A    -11.252401     9A    -11.225581
      10A     -1.470740    11A     -1.406305    12A     -1.365940
      13A     -1.105528    14A     -1.066401    15A     -0.952709
      16A     -0.886410    17A     -0.795733    18A     -0.745963
      19A     -0.719914    20A     -0.711430    21A     -0.661637
      22A     -0.645810    23A     -0.644392    24A     -0.639065
      25A     -0.606261    26A     -0.570513    27A     -0.547806
      28A     -0.533728    29A     -0.526233    30A     -0.505332
      31A     -0.496748    32A     -0.469609    33A     -0.432114
      34A     -0.403762

  @DF-RHF Final Energy:  -456.62936098152227

   => Energetics <=

    Nuclear Repulsion Energy =            413.7123345500603477
    One-Electron Energy =               -1443.8081814685183417
    Two-Electron Energy =                 573.4664859369356691
    Total Energy =                       -456.6293609815222680
  Basis Set: (AUG-CC-PVTZ AUX)
    Blend: AUG-CC-PVTZ-RI
    Molecular point group: c1

    Geometry (in Angstrom), charge = 0, multiplicity = 1:

       Center              X                  Y                   Z               Mass
    ------------   -----------------  -----------------  -----------------  -----------------
         O           -1.663035620246     1.358249381282    -0.082432474040    15.994914619570
         O            3.295620379754     0.869195381282    -0.039223474040    15.994914619570
         O            2.668296379754    -1.302950618718     0.082841525960    15.994914619570
         C           -2.570746620246    -0.867100618718     0.034004525960    12.000000000000
         C           -1.468651520246     0.166916981282    -0.011010574040    12.000000000000
         C           -3.940775320246    -0.210139118718    -0.022161474040    12.000000000000
         C           -0.060947620246    -0.393928618718     0.032613525960    12.000000000000
         C            0.999022379754     0.427713381282    -0.007640474040    12.000000000000
         C            2.370896379754    -0.121079618718     0.022179525960    12.000000000000
         H           -2.441349620246    -1.466860618718     0.944599525960     1.007825032230
         H           -2.418330620246    -1.567470618718    -0.800090474040     1.007825032230
         H           -4.099535620246     0.444717381282     0.821831525960     1.007825032230
         H           -4.727903620246    -1.003176618718     0.010480525960     1.007825032230
         H           -4.074327620246     0.347605381282    -0.936893474040     1.007825032230
         H            0.088828379754    -1.469869618718     0.096294525960     1.007825032230
         H            0.868762379754     1.503612381282    -0.068487474040     1.007825032230
         H            4.164957379754     0.417511381282    -0.023071474040     1.007825032230

  Basis Set: AUG-CC-PVTZ
    Blend: AUG-CC-PVTZ
  Basis Set: (AUG-CC-PVTZ AUX)
    Blend: AUG-CC-PVTZ-JKFIT
	 Reference Energy          =    -456.6293609815222680 [Eh]
	 Singles Energy            =      -0.0000000000000000 [Eh]
	 Same-Spin Energy          =      -0.4475685441474276 [Eh]
	 Opposite-Spin Energy      =      -1.4076070288907583 [Eh]
	 Correlation Energy        =      -1.8551755730381858 [Eh]
	 Total Energy              =    -458.4845365545604636 [Eh]

	 ================> DF-SCS-MP2 Energies <==================
	-----------------------------------------------------------
	 SCS Same-Spin Scale       =       0.3333333333333333 [-]
	 SCS Opposite-Spin Scale   =       1.2000000000000000 [-]
	 SCS Same-Spin Energy      =      -0.1491895147158092 [Eh]
	 SCS Opposite-Spin Energy  =      -1.6891284346689099 [Eh]
	 SCS Correlation Energy    =      -1.8383179493847193 [Eh]
	 SCS Total Energy          =    -458.4676789309069704 [Eh]
	-----------------------------------------------------------

  Dipole Moment: [D]
     X:    -0.3004      Y:    -1.1133      Z:     0.0568     Total:     1.1546

*** Psi4 exiting successfully. Buy a developer a beer!
