                               Psi4 1.3.2 release

  ==> Input File <==

--------------------------------------------------------------------------
#psi4
#
memory 32 gb

molecule  {
0 1
  O       -1.6636540     1.3623100    -0.0826750
  O        3.2775454     0.8892173    -0.0403834
  O        2.6676780    -1.2988900     0.0825990
  C       -2.5713650    -0.8630400     0.0337620
  C       -1.4513780     0.1516300    -0.0098980
  C       -3.9526870    -0.2300600    -0.0211700
  C       -0.0615660    -0.3898680     0.0323710
  C        1.0082047     0.4555888    -0.0093319
  C        2.3702780    -0.1170190     0.0219370
  H       -2.4419680    -1.4628000     0.9443570
  H       -2.4189490    -1.5634100    -0.8003330
  H       -4.1001540     0.4487780     0.8215890
  H       -4.7285220    -0.9991160     0.0102380
  H       -4.0749460     0.3516660    -0.9371360
  H        0.0882100    -1.4658090     0.0960520
  H        0.8681440     1.5076730    -0.0687300
  H        4.1643390     0.4215720    -0.0233140
units angstrom
no_reorient  #important for SAPT in psi4, default
symmetry c1  #important for SAPT in psi4, default
}

set PROPERTIES_ORIGIN ["COM"]
properties('MP2/aug-cc-pvtz', properties = ['dipole'])
--------------------------------------------------------------------------

    Molecular point group: c1
  Charge       = 0
  Multiplicity = 1
  Basis Set: AUG-CC-PVTZ
    Blend: AUG-CC-PVTZ
  Basis Set: (AUG-CC-PVTZ AUX)
    Blend: AUG-CC-PVTZ-JKFIT

    Orbital Energies [Eh]
    ---------------------

    Doubly Occupied:

       1A    -20.629775     2A    -20.562582     3A    -20.560285
       4A    -11.405555     5A    -11.349476     6A    -11.279436
       7A    -11.276428     8A    -11.252236     9A    -11.224998
      10A     -1.469939    11A     -1.390252    12A     -1.367284
      13A     -1.104945    14A     -1.064971    15A     -0.956956
      16A     -0.884736    17A     -0.795759    18A     -0.749615
      19A     -0.716300    20A     -0.712913    21A     -0.659137
      22A     -0.643679    23A     -0.640270    24A     -0.638983
      25A     -0.604359    26A     -0.575705    27A     -0.539402
      28A     -0.538684    29A     -0.524197    30A     -0.500676
      31A     -0.496269    32A     -0.472378    33A     -0.434798
      34A     -0.399587

  @DF-RHF Final Energy:  -456.62383062627401

   => Energetics <=

    Nuclear Repulsion Energy =            413.2113521604579205
    One-Electron Energy =               -1442.8252359068262649
    Two-Electron Energy =                 572.9900531200944442
    Total Energy =                       -456.6238306262739570
  Basis Set: (AUG-CC-PVTZ AUX)
    Blend: AUG-CC-PVTZ-RI
    Molecular point group: c1

    Geometry (in Angstrom), charge = 0, multiplicity = 1:

       Center              X                  Y                   Z               Mass
    ------------   -----------------  -----------------  -----------------  -----------------
         O           -1.662391911256     1.358084379573    -0.082424732102    15.994914619570
         O            3.278807488744     0.884991679573    -0.040133132102    15.994914619570
         O            2.668940088744    -1.303115620427     0.082849267898    15.994914619570
         C           -2.570102911256    -0.867265620427     0.034012267898    12.000000000000
         C           -1.450115911256     0.147404379573    -0.009647732102    12.000000000000
         C           -3.951424911256    -0.234285620427    -0.020919732102    12.000000000000
         C           -0.060303911256    -0.394093620427     0.032621267898    12.000000000000
         C            1.009466788744     0.451363179573    -0.009081632102    12.000000000000
         C            2.371540088744    -0.121244620427     0.022187267898    12.000000000000
         H           -2.440705911256    -1.467025620427     0.944607267898     1.007825032230
         H           -2.417686911256    -1.567635620427    -0.800082732102     1.007825032230
         H           -4.098891911256     0.444552379573     0.821839267898     1.007825032230
         H           -4.727259911256    -1.003341620427     0.010488267898     1.007825032230
         H           -4.073683911256     0.347440379573    -0.936885732102     1.007825032230
         H            0.089472088744    -1.470034620427     0.096302267898     1.007825032230
         H            0.869406088744     1.503447379573    -0.068479732102     1.007825032230
         H            4.165601088744     0.417346379573    -0.023063732102     1.007825032230

  Basis Set: AUG-CC-PVTZ
    Blend: AUG-CC-PVTZ
  Basis Set: (AUG-CC-PVTZ AUX)
    Blend: AUG-CC-PVTZ-JKFIT
	 Reference Energy          =    -456.6238306262740139 [Eh]
	 Singles Energy            =      -0.0000000000000000 [Eh]
	 Same-Spin Energy          =      -0.4489900144706610 [Eh]
	 Opposite-Spin Energy      =      -1.4106845558534906 [Eh]
	 Correlation Energy        =      -1.8596745703241515 [Eh]
	 Total Energy              =    -458.4835051965981734 [Eh]

	 ================> DF-SCS-MP2 Energies <==================
	-----------------------------------------------------------
	 SCS Same-Spin Scale       =       0.3333333333333333 [-]
	 SCS Opposite-Spin Scale   =       1.2000000000000000 [-]
	 SCS Same-Spin Energy      =      -0.1496633381568870 [Eh]
	 SCS Opposite-Spin Energy  =      -1.6928214670241888 [Eh]
	 SCS Correlation Energy    =      -1.8424848051810758 [Eh]
	 SCS Total Energy          =    -458.4663154314550866 [Eh]
	-----------------------------------------------------------

  Dipole Moment: [D]
     X:    -0.1249      Y:    -1.1878      Z:     0.0621     Total:     1.1960

*** Psi4 exiting successfully. Buy a developer a beer!
