                               Psi4 1.3.2 release

  ==> Input File <==

--------------------------------------------------------------------------
#psi4
#
memory 32 gb

molecule  {
0 1
  O       -1.6636540     1.3623100    -0.0826750
  O        3.2950020     0.8732560    -0.0394660
  O        2.6676780    -1.2988900     0.0825990
  C       -2.5713650    -0.8630400     0.0337620
  C       -1.4513780     0.1516300    -0.0098980
  C       -3.9526870    -0.2300600    -0.0211700
  C       -0.0615660    -0.3898680     0.0323710
  C        0.9984040     0.4317740    -0.0078830
  C        2.3215328     0.0766948     0.0119942
  H       -2.4419680    -1.4628000     0.9443570
  H       -2.4189490    -1.5634100    -0.8003330
  H       -4.1001540     0.4487780     0.8215890
  H       -4.7285220    -0.9991160     0.0102380
  H       -4.0749460     0.3516660    -0.9371360
  H        0.0882100    -1.4658090     0.0960520
  H        0.8681440     1.5076730    -0.0687300
  H        4.1643390     0.4215720    -0.0233140
units angstrom
no_reorient  #important for SAPT in psi4, default
symmetry c1  #important for SAPT in psi4, default
}

set PROPERTIES_ORIGIN ["COM"]
properties('MP2/aug-cc-pvtz', properties = ['dipole'])
--------------------------------------------------------------------------

    Molecular point group: c1
  Charge       = 0
  Multiplicity = 1
  Basis Set: AUG-CC-PVTZ
    Blend: AUG-CC-PVTZ
  Basis Set: (AUG-CC-PVTZ AUX)
    Blend: AUG-CC-PVTZ-JKFIT

    Orbital Energies [Eh]
    ---------------------

    Doubly Occupied:

       1A    -20.652947     2A    -20.570725     3A    -20.518718
       4A    -11.408482     5A    -11.358187     6A    -11.295659
       7A    -11.273125     8A    -11.257992     9A    -11.229321
      10A     -1.509331    11A     -1.399458    12A     -1.252919
      13A     -1.124109    14A     -1.073907    15A     -0.987925
      16A     -0.907317    17A     -0.835537    18A     -0.755144
      19A     -0.734047    20A     -0.714357    21A     -0.675539
      22A     -0.660596    23A     -0.648050    24A     -0.646433
      25A     -0.593076    26A     -0.546291    27A     -0.544942
      28A     -0.529550    29A     -0.515185    30A     -0.504128
      31A     -0.456334    32A     -0.446784    33A     -0.430032
      34A     -0.390463

  @DF-RHF Final Energy:  -456.56035712385403

   => Energetics <=

    Nuclear Repulsion Energy =            413.4220231558981595
    One-Electron Energy =               -1443.0715394552635189
    Two-Electron Energy =                 573.0891591755113268
    Total Energy =                       -456.5603571238540326
  Basis Set: (AUG-CC-PVTZ AUX)
    Blend: AUG-CC-PVTZ-RI
    Molecular point group: c1

    Geometry (in Angstrom), charge = 0, multiplicity = 1:

       Center              X                  Y                   Z               Mass
    ------------   -----------------  -----------------  -----------------  -----------------
         O           -1.659085837426     1.344156028449    -0.081743319567    15.994914619570
         O            3.299570162574     0.855102028449    -0.038534319567    15.994914619570
         O            2.672246162574    -1.317043971551     0.083530680433    15.994914619570
         C           -2.566796837426    -0.881193971551     0.034693680433    12.000000000000
         C           -1.446809837426     0.133476028449    -0.008966319567    12.000000000000
         C           -3.948118837426    -0.248213971551    -0.020238319567    12.000000000000
         C           -0.056997837426    -0.408021971551     0.033302680433    12.000000000000
         C            1.002972162574     0.413620028449    -0.006951319567    12.000000000000
         C            2.326100962574     0.058540828449     0.012925880433    12.000000000000
         H           -2.437399837426    -1.480953971551     0.945288680433     1.007825032230
         H           -2.414380837426    -1.581563971551    -0.799401319567     1.007825032230
         H           -4.095585837426     0.430624028449     0.822520680433     1.007825032230
         H           -4.723953837426    -1.017269971551     0.011169680433     1.007825032230
         H           -4.070377837426     0.333512028449    -0.936204319567     1.007825032230
         H            0.092778162574    -1.483962971551     0.096983680433     1.007825032230
         H            0.872712162574     1.489519028449    -0.067798319567     1.007825032230
         H            4.168907162574     0.403418028449    -0.022382319567     1.007825032230

  Basis Set: AUG-CC-PVTZ
    Blend: AUG-CC-PVTZ
  Basis Set: (AUG-CC-PVTZ AUX)
    Blend: AUG-CC-PVTZ-JKFIT
	 Reference Energy          =    -456.5603571238540326 [Eh]
	 Singles Energy            =      -0.0000000000000000 [Eh]
	 Same-Spin Energy          =      -0.4529564281711478 [Eh]
	 Opposite-Spin Energy      =      -1.4176441312363215 [Eh]
	 Correlation Energy        =      -1.8706005594074693 [Eh]
	 Total Energy              =    -458.4309576832615107 [Eh]

	 ================> DF-SCS-MP2 Energies <==================
	-----------------------------------------------------------
	 SCS Same-Spin Scale       =       0.3333333333333333 [-]
	 SCS Opposite-Spin Scale   =       1.2000000000000000 [-]
	 SCS Same-Spin Energy      =      -0.1509854760570493 [Eh]
	 SCS Opposite-Spin Energy  =      -1.7011729574835857 [Eh]
	 SCS Correlation Energy    =      -1.8521584335406349 [Eh]
	 SCS Total Energy          =    -458.4125155573946699 [Eh]
	-----------------------------------------------------------

  Dipole Moment: [D]
     X:    -0.3177      Y:    -0.0824      Z:    -0.0023     Total:     0.3283

*** Psi4 exiting successfully. Buy a developer a beer!
