                               Psi4 1.3.2 release

  ==> Input File <==

--------------------------------------------------------------------------
#psi4
#
memory 32 gb

molecule  {
0 1
  O       -1.6636540     1.3623100    -0.0826750
  O        3.2950020     0.8732560    -0.0394660
  O        2.6676780    -1.2988900     0.0825990
  C       -2.5713650    -0.8630400     0.0337620
  C       -1.4602817     0.1613428    -0.0105772
  C       -3.9470927    -0.2180447    -0.0217891
  C       -0.0615660    -0.3898680     0.0323710
  C        0.9984040     0.4317740    -0.0078830
  C        2.3702780    -0.1170190     0.0219370
  H       -2.4419680    -1.4628000     0.9443570
  H       -2.4189490    -1.5634100    -0.8003330
  H       -4.1001540     0.4487780     0.8215890
  H       -4.7285220    -0.9991160     0.0102380
  H       -4.0749460     0.3516660    -0.9371360
  H        0.0882100    -1.4658090     0.0960520
  H        0.8681440     1.5076730    -0.0687300
  H        4.1643390     0.4215720    -0.0233140
units angstrom
no_reorient  #important for SAPT in psi4, default
symmetry c1  #important for SAPT in psi4, default
}

set PROPERTIES_ORIGIN ["COM"]
properties('MP2/aug-cc-pvtz', properties = ['dipole'])
--------------------------------------------------------------------------

    Molecular point group: c1
  Charge       = 0
  Multiplicity = 1
  Basis Set: AUG-CC-PVTZ
    Blend: AUG-CC-PVTZ
  Basis Set: (AUG-CC-PVTZ AUX)
    Blend: AUG-CC-PVTZ-JKFIT

    Orbital Energies [Eh]
    ---------------------

    Doubly Occupied:

       1A    -20.626907     2A    -20.561850     3A    -20.560464
       4A    -11.404592     5A    -11.349487     6A    -11.276145
       7A    -11.273997     8A    -11.252422     9A    -11.225341
      10A     -1.471493    11A     -1.398400    12A     -1.366730
      13A     -1.107301    14A     -1.066020    15A     -0.954965
      16A     -0.886976    17A     -0.797348    18A     -0.746466
      19A     -0.719145    20A     -0.712189    21A     -0.661470
      22A     -0.644626    23A     -0.642567    24A     -0.639291
      25A     -0.606588    26A     -0.570453    27A     -0.543847
      28A     -0.536031    29A     -0.525834    30A     -0.502733
      31A     -0.496817    32A     -0.470410    33A     -0.433879
      34A     -0.404062

  @DF-RHF Final Energy:  -456.62933772743702

   => Energetics <=

    Nuclear Repulsion Energy =            413.5880954264659408
    One-Electron Energy =               -1443.5611743945073613
    Two-Electron Energy =                 573.3437412406043450
    Total Energy =                       -456.6293377274370187
  Basis Set: (AUG-CC-PVTZ AUX)
    Blend: AUG-CC-PVTZ-RI
    Molecular point group: c1

    Geometry (in Angstrom), charge = 0, multiplicity = 1:

       Center              X                  Y                   Z               Mass
    ------------   -----------------  -----------------  -----------------  -----------------
         O           -1.663343868732     1.360273726276    -0.082553441797    15.994914619570
         O            3.295312131268     0.871219726276    -0.039344441797    15.994914619570
         O            2.667988131268    -1.300926273724     0.082720558203    15.994914619570
         C           -2.571054868732    -0.865076273724     0.033883558203    12.000000000000
         C           -1.459971568732     0.159306526276    -0.010455641797    12.000000000000
         C           -3.946782568732    -0.220080973724    -0.021667541797    12.000000000000
         C           -0.061255868732    -0.391904273724     0.032492558203    12.000000000000
         C            0.998714131268     0.429737726276    -0.007761441797    12.000000000000
         C            2.370588131268    -0.119055273724     0.022058558203    12.000000000000
         H           -2.441657868732    -1.464836273724     0.944478558203     1.007825032230
         H           -2.418638868732    -1.565446273724    -0.800211441797     1.007825032230
         H           -4.099843868732     0.446741726276     0.821710558203     1.007825032230
         H           -4.728211868732    -1.001152273724     0.010359558203     1.007825032230
         H           -4.074635868732     0.349629726276    -0.937014441797     1.007825032230
         H            0.088520131268    -1.467845273724     0.096173558203     1.007825032230
         H            0.868454131268     1.505636726276    -0.068608441797     1.007825032230
         H            4.164649131268     0.419535726276    -0.023192441797     1.007825032230

  Basis Set: AUG-CC-PVTZ
    Blend: AUG-CC-PVTZ
  Basis Set: (AUG-CC-PVTZ AUX)
    Blend: AUG-CC-PVTZ-JKFIT
	 Reference Energy          =    -456.6293377274370187 [Eh]
	 Singles Energy            =      -0.0000000000000000 [Eh]
	 Same-Spin Energy          =      -0.4479066509046427 [Eh]
	 Opposite-Spin Energy      =      -1.4083162457025309 [Eh]
	 Correlation Energy        =      -1.8562228966071737 [Eh]
	 Total Energy              =    -458.4855606240441830 [Eh]

	 ================> DF-SCS-MP2 Energies <==================
	-----------------------------------------------------------
	 SCS Same-Spin Scale       =       0.3333333333333333 [-]
	 SCS Opposite-Spin Scale   =       1.2000000000000000 [-]
	 SCS Same-Spin Energy      =      -0.1493022169682142 [Eh]
	 SCS Opposite-Spin Energy  =      -1.6899794948430371 [Eh]
	 SCS Correlation Energy    =      -1.8392817118112514 [Eh]
	 SCS Total Energy          =    -458.4686194392482435 [Eh]
	-----------------------------------------------------------

  Dipole Moment: [D]
     X:    -0.2360      Y:    -1.1486      Z:     0.0592     Total:     1.1741

*** Psi4 exiting successfully. Buy a developer a beer!
