                               Psi4 1.3.2 release

  ==> Input File <==

--------------------------------------------------------------------------
#psi4
#
memory 32 gb

molecule  {
0 1
  O       -1.6636540     1.3623100    -0.0826750
  O        3.2950020     0.8732560    -0.0394660
  O        2.6676780    -1.2988900     0.0825990
  C       -2.5713650    -0.8630400     0.0337620
  C       -1.4244750     0.1217817     0.0582974
  C       -3.9526870    -0.2300600    -0.0211700
  C       -0.0615660    -0.3898680     0.0323710
  C        0.9984040     0.4317740    -0.0078830
  C        2.3702780    -0.1170190     0.0219370
  H       -2.3953174    -1.4314943     0.9565327
  H       -2.4189490    -1.5634100    -0.8003330
  H       -4.1001540     0.4487780     0.8215890
  H       -4.7285220    -0.9991160     0.0102380
  H       -4.0749460     0.3516660    -0.9371360
  H        0.0882100    -1.4658090     0.0960520
  H        0.8681440     1.5076730    -0.0687300
  H        4.1643390     0.4215720    -0.0233140
units angstrom
no_reorient  #important for SAPT in psi4, default
symmetry c1  #important for SAPT in psi4, default
}

set PROPERTIES_ORIGIN ["COM"]
properties('MP2/aug-cc-pvtz', properties = ['dipole'])
--------------------------------------------------------------------------

    Molecular point group: c1
  Charge       = 0
  Multiplicity = 1
  Basis Set: AUG-CC-PVTZ
    Blend: AUG-CC-PVTZ
  Basis Set: (AUG-CC-PVTZ AUX)
    Blend: AUG-CC-PVTZ-JKFIT

    Orbital Energies [Eh]
    ---------------------

    Doubly Occupied:

       1A    -20.629679     2A    -20.564075     3A    -20.556424
       4A    -11.407976     5A    -11.350774     6A    -11.281172
       7A    -11.276780     8A    -11.253773     9A    -11.225432
      10A     -1.474463    11A     -1.369930    12A     -1.364050
      13A     -1.114601    14A     -1.065481    15A     -0.964507
      16A     -0.890155    17A     -0.804072    18A     -0.748574
      19A     -0.715498    20A     -0.714636    21A     -0.660001
      22A     -0.645447    23A     -0.640813    24A     -0.634350
      25A     -0.605330    26A     -0.568367    27A     -0.539686
      28A     -0.534109    29A     -0.521563    30A     -0.501946
      31A     -0.491529    32A     -0.473697    33A     -0.436185
      34A     -0.403336

  @DF-RHF Final Energy:  -456.61747904168038

   => Energetics <=

    Nuclear Repulsion Energy =            413.3499332998132445
    One-Electron Energy =               -1443.0780054684269089
    Two-Electron Energy =                 573.1105931269332814
    Total Energy =                       -456.6174790416803262
  Basis Set: (AUG-CC-PVTZ AUX)
    Blend: AUG-CC-PVTZ-RI
    Molecular point group: c1

    Geometry (in Angstrom), charge = 0, multiplicity = 1:

       Center              X                  Y                   Z               Mass
    ------------   -----------------  -----------------  -----------------  -----------------
         O           -1.666542407876     1.364860827523    -0.089161898857    15.994914619570
         O            3.292113592124     0.875806827523    -0.045952898857    15.994914619570
         O            2.664789592124    -1.296339172477     0.076112101143    15.994914619570
         C           -2.574253407876    -0.860489172477     0.027275101143    12.000000000000
         C           -1.427363407876     0.124332527523     0.051810501143    12.000000000000
         C           -3.955575407876    -0.227509172477    -0.027656898857    12.000000000000
         C           -0.064454407876    -0.387317172477     0.025884101143    12.000000000000
         C            0.995515592124     0.434324827523    -0.014369898857    12.000000000000
         C            2.367389592124    -0.114468172477     0.015450101143    12.000000000000
         H           -2.398205807876    -1.428943472477     0.950045801143     1.007825032230
         H           -2.421837407876    -1.560859172477    -0.806819898857     1.007825032230
         H           -4.103042407876     0.451328827523     0.815102101143     1.007825032230
         H           -4.731410407876    -0.996565172477     0.003751101143     1.007825032230
         H           -4.077834407876     0.354216827523    -0.943622898857     1.007825032230
         H            0.085321592124    -1.463258172477     0.089565101143     1.007825032230
         H            0.865255592124     1.510223827523    -0.075216898857     1.007825032230
         H            4.161450592124     0.424122827523    -0.029800898857     1.007825032230

  Basis Set: AUG-CC-PVTZ
    Blend: AUG-CC-PVTZ
  Basis Set: (AUG-CC-PVTZ AUX)
    Blend: AUG-CC-PVTZ-JKFIT
	 Reference Energy          =    -456.6174790416803830 [Eh]
	 Singles Energy            =      -0.0000000000000000 [Eh]
	 Same-Spin Energy          =      -0.4498788087034966 [Eh]
	 Opposite-Spin Energy      =      -1.4123949284331059 [Eh]
	 Correlation Energy        =      -1.8622737371366025 [Eh]
	 Total Energy              =    -458.4797527788169873 [Eh]

	 ================> DF-SCS-MP2 Energies <==================
	-----------------------------------------------------------
	 SCS Same-Spin Scale       =       0.3333333333333333 [-]
	 SCS Opposite-Spin Scale   =       1.2000000000000000 [-]
	 SCS Same-Spin Energy      =      -0.1499596029011655 [Eh]
	 SCS Opposite-Spin Energy  =      -1.6948739141197271 [Eh]
	 SCS Correlation Energy    =      -1.8448335170208927 [Eh]
	 SCS Total Energy          =    -458.4623125587012851 [Eh]
	-----------------------------------------------------------

  Dipole Moment: [D]
     X:    -0.0040      Y:    -1.2529      Z:     0.0989     Total:     1.2568

*** Psi4 exiting successfully. Buy a developer a beer!
