                               Psi4 1.3.2 release

  ==> Input File <==

--------------------------------------------------------------------------
#psi4
#
memory 32 gb

molecule  {
0 1
  O       -1.6636540     1.3623100    -0.0826750
  O        3.2950020     0.8732560    -0.0394660
  O        2.6676780    -1.2988900     0.0825990
  C       -2.5713650    -0.8630400     0.0337620
  C       -1.4686180     0.2499552    -0.0158086
  C       -3.9526870    -0.2300600    -0.0211700
  C       -0.0615660    -0.3898680     0.0323710
  C        0.9984040     0.4317740    -0.0078830
  C        2.3702780    -0.1170190     0.0219370
  H       -2.4419680    -1.4628000     0.9443570
  H       -2.4189490    -1.5634100    -0.8003330
  H       -4.1001540     0.4487780     0.8215890
  H       -4.7285220    -0.9991160     0.0102380
  H       -4.0749460     0.3516660    -0.9371360
  H        0.0882100    -1.4658090     0.0960520
  H        0.8681440     1.5076730    -0.0687300
  H        4.1643390     0.4215720    -0.0233140
units angstrom
no_reorient  #important for SAPT in psi4, default
symmetry c1  #important for SAPT in psi4, default
}

set PROPERTIES_ORIGIN ["COM"]
properties('MP2/aug-cc-pvtz', properties = ['dipole'])
--------------------------------------------------------------------------

    Molecular point group: c1
  Charge       = 0
  Multiplicity = 1
  Basis Set: AUG-CC-PVTZ
    Blend: AUG-CC-PVTZ
  Basis Set: (AUG-CC-PVTZ AUX)
    Blend: AUG-CC-PVTZ-JKFIT

    Orbital Energies [Eh]
    ---------------------

    Doubly Occupied:

       1A    -20.624495     2A    -20.570033     3A    -20.557456
       4A    -11.401397     5A    -11.344535     6A    -11.272499
       7A    -11.268165     8A    -11.247865     9A    -11.223033
      10A     -1.468994    11A     -1.465156    12A     -1.364074
      13A     -1.101006    14A     -1.056368    15A     -0.944032
      16A     -0.878408    17A     -0.790148    18A     -0.747928
      19A     -0.725287    20A     -0.710055    21A     -0.667884
      22A     -0.656780    23A     -0.644331    24A     -0.637024
      25A     -0.606262    26A     -0.574385    27A     -0.570367
      28A     -0.542944    29A     -0.524942    30A     -0.504046
      31A     -0.496005    32A     -0.468084    33A     -0.415305
      34A     -0.404400

  @DF-RHF Final Energy:  -456.62162942851376

   => Energetics <=

    Nuclear Repulsion Energy =            414.1502429323885508
    One-Electron Energy =               -1444.5963540697434837
    Two-Electron Energy =                 573.8244817088410628
    Total Energy =                       -456.6216294285137565
  Basis Set: (AUG-CC-PVTZ AUX)
    Blend: AUG-CC-PVTZ-RI
    Molecular point group: c1

    Geometry (in Angstrom), charge = 0, multiplicity = 1:

       Center              X                  Y                   Z               Mass
    ------------   -----------------  -----------------  -----------------  -----------------
         O           -1.662038357859     1.353095403240    -0.082121198548    15.994914619570
         O            3.296617642141     0.864041403240    -0.038912198548    15.994914619570
         O            2.669293642141    -1.308104596760     0.083152801452    15.994914619570
         C           -2.569749357859    -0.872254596760     0.034315801452    12.000000000000
         C           -1.467002357859     0.240740603240    -0.015254798548    12.000000000000
         C           -3.951071357859    -0.239274596760    -0.020616198548    12.000000000000
         C           -0.059950357859    -0.399082596760     0.032924801452    12.000000000000
         C            1.000019642141     0.422559403240    -0.007329198548    12.000000000000
         C            2.371893642141    -0.126233596760     0.022490801452    12.000000000000
         H           -2.440352357859    -1.472014596760     0.944910801452     1.007825032230
         H           -2.417333357859    -1.572624596760    -0.799779198548     1.007825032230
         H           -4.098538357859     0.439563403240     0.822142801452     1.007825032230
         H           -4.726906357859    -1.008330596760     0.010791801452     1.007825032230
         H           -4.073330357859     0.342451403240    -0.936582198548     1.007825032230
         H            0.089825642141    -1.475023596760     0.096605801452     1.007825032230
         H            0.869759642141     1.498458403240    -0.068176198548     1.007825032230
         H            4.165954642141     0.412357403240    -0.022760198548     1.007825032230

  Basis Set: AUG-CC-PVTZ
    Blend: AUG-CC-PVTZ
  Basis Set: (AUG-CC-PVTZ AUX)
    Blend: AUG-CC-PVTZ-JKFIT
	 Reference Energy          =    -456.6216294285137565 [Eh]
	 Singles Energy            =      -0.0000000000000000 [Eh]
	 Same-Spin Energy          =      -0.4454843706862665 [Eh]
	 Opposite-Spin Energy      =      -1.4031671602358093 [Eh]
	 Correlation Energy        =      -1.8486515309220759 [Eh]
	 Total Energy              =    -458.4702809594358541 [Eh]

	 ================> DF-SCS-MP2 Energies <==================
	-----------------------------------------------------------
	 SCS Same-Spin Scale       =       0.3333333333333333 [-]
	 SCS Opposite-Spin Scale   =       1.2000000000000000 [-]
	 SCS Same-Spin Energy      =      -0.1484947902287555 [Eh]
	 SCS Opposite-Spin Energy  =      -1.6838005922829711 [Eh]
	 SCS Correlation Energy    =      -1.8322953825117265 [Eh]
	 SCS Total Energy          =    -458.4539248110255016 [Eh]
	-----------------------------------------------------------

  Dipole Moment: [D]
     X:    -0.3219      Y:    -0.7707      Z:     0.0381     Total:     0.8361

*** Psi4 exiting successfully. Buy a developer a beer!
