                               Psi4 1.3.2 release

  ==> Input File <==

--------------------------------------------------------------------------
#psi4
#
memory 32 gb

molecule  {
0 1
  O       -1.6636540     1.3623100    -0.0826750
  O        3.2950020     0.8732560    -0.0394660
  O        2.6676780    -1.2988900     0.0825990
  C       -2.5713650    -0.8630400     0.0337620
  C       -1.4513780     0.1516300    -0.0098980
  C       -3.9526870    -0.2300600    -0.0211700
  C       -0.0543472    -0.3990701     0.0329241
  C        0.9984040     0.4317740    -0.0078830
  C        2.3702780    -0.1170190     0.0219370
  H       -2.4419680    -1.4628000     0.9443570
  H       -2.4189490    -1.5634100    -0.8003330
  H       -4.1001540     0.4487780     0.8215890
  H       -4.7285220    -0.9991160     0.0102380
  H       -4.0749460     0.3516660    -0.9371360
  H        0.0882100    -1.4658090     0.0960520
  H        0.8775527     1.5087698    -0.0687409
  H        4.1643390     0.4215720    -0.0233140
units angstrom
no_reorient  #important for SAPT in psi4, default
symmetry c1  #important for SAPT in psi4, default
}

set PROPERTIES_ORIGIN ["COM"]
properties('MP2/aug-cc-pvtz', properties = ['dipole'])
--------------------------------------------------------------------------

    Molecular point group: c1
  Charge       = 0
  Multiplicity = 1
  Basis Set: AUG-CC-PVTZ
    Blend: AUG-CC-PVTZ
  Basis Set: (AUG-CC-PVTZ AUX)
    Blend: AUG-CC-PVTZ-JKFIT

    Orbital Energies [Eh]
    ---------------------

    Doubly Occupied:

       1A    -20.627298     2A    -20.560930     3A    -20.560844
       4A    -11.404730     5A    -11.350698     6A    -11.276931
       7A    -11.275208     8A    -11.252519     9A    -11.225192
      10A     -1.471914    11A     -1.390417    12A     -1.367150
      13A     -1.108779    14A     -1.065658    15A     -0.956249
      16A     -0.887457    17A     -0.797840    18A     -0.748416
      19A     -0.717985    20A     -0.713035    21A     -0.660133
      22A     -0.643734    23A     -0.641058    24A     -0.638959
      25A     -0.607104    26A     -0.572873    27A     -0.539702
      28A     -0.539369    29A     -0.524345    30A     -0.500802
      31A     -0.495932    32A     -0.470664    33A     -0.434601
      34A     -0.404446

  @DF-RHF Final Energy:  -456.62836938648206

   => Energetics <=

    Nuclear Repulsion Energy =            413.3741780799035155
    One-Electron Energy =               -1443.1391489958216425
    Two-Electron Energy =                 573.1366015294361205
    Total Energy =                       -456.6283693864820634
  Basis Set: (AUG-CC-PVTZ AUX)
    Blend: AUG-CC-PVTZ-RI
    Molecular point group: c1

    Geometry (in Angstrom), charge = 0, multiplicity = 1:

       Center              X                  Y                   Z               Mass
    ------------   -----------------  -----------------  -----------------  -----------------
         O           -1.664404575804     1.363163727783    -0.082726860581    15.994914619570
         O            3.294251424196     0.874109727783    -0.039517860581    15.994914619570
         O            2.666927424196    -1.298036272217     0.082547139419    15.994914619570
         C           -2.572115575804    -0.862186272217     0.033710139419    12.000000000000
         C           -1.452128575804     0.152483727783    -0.009949860581    12.000000000000
         C           -3.953437575804    -0.229206272217    -0.021221860581    12.000000000000
         C           -0.055097775804    -0.398216372217     0.032872239419    12.000000000000
         C            0.997653424196     0.432627727783    -0.007934860581    12.000000000000
         C            2.369527424196    -0.116165272217     0.021885139419    12.000000000000
         H           -2.442718575804    -1.461946272217     0.944305139419     1.007825032230
         H           -2.419699575804    -1.562556272217    -0.800384860581     1.007825032230
         H           -4.100904575804     0.449631727783     0.821537139419     1.007825032230
         H           -4.729272575804    -0.998262272217     0.010186139419     1.007825032230
         H           -4.075696575804     0.352519727783    -0.937187860581     1.007825032230
         H            0.087459424196    -1.464955272217     0.096000139419     1.007825032230
         H            0.876802124196     1.509623527783    -0.068792760581     1.007825032230
         H            4.163588424196     0.422425727783    -0.023365860581     1.007825032230

  Basis Set: AUG-CC-PVTZ
    Blend: AUG-CC-PVTZ
  Basis Set: (AUG-CC-PVTZ AUX)
    Blend: AUG-CC-PVTZ-JKFIT
	 Reference Energy          =    -456.6283693864820634 [Eh]
	 Singles Energy            =      -0.0000000000000000 [Eh]
	 Same-Spin Energy          =      -0.4481713240023455 [Eh]
	 Opposite-Spin Energy      =      -1.4089423695642695 [Eh]
	 Correlation Energy        =      -1.8571136935666150 [Eh]
	 Total Energy              =    -458.4854830800486525 [Eh]

	 ================> DF-SCS-MP2 Energies <==================
	-----------------------------------------------------------
	 SCS Same-Spin Scale       =       0.3333333333333333 [-]
	 SCS Opposite-Spin Scale   =       1.2000000000000000 [-]
	 SCS Same-Spin Energy      =      -0.1493904413341152 [Eh]
	 SCS Opposite-Spin Energy  =      -1.6907308434771233 [Eh]
	 SCS Correlation Energy    =      -1.8401212848112385 [Eh]
	 SCS Total Energy          =    -458.4684906712932957 [Eh]
	-----------------------------------------------------------

  Dipole Moment: [D]
     X:    -0.1901      Y:    -1.1817      Z:     0.0615     Total:     1.1984

*** Psi4 exiting successfully. Buy a developer a beer!
