                               Psi4 1.3.2 release

  ==> Input File <==

--------------------------------------------------------------------------
#psi4
#
memory 32 gb

molecule  {
0 1
  O       -1.6636540     1.3623100    -0.0826750
  O        3.2950020     0.8732560    -0.0394660
  O        2.6676780    -1.2988900     0.0825990
  C       -2.5713650    -0.8630400     0.0337620
  C       -1.4341380     0.0533048    -0.0039874
  C       -3.9526870    -0.2300600    -0.0211700
  C       -0.0615660    -0.3898680     0.0323710
  C        0.9984040     0.4317740    -0.0078830
  C        2.3702780    -0.1170190     0.0219370
  H       -2.4419680    -1.4628000     0.9443570
  H       -2.4189490    -1.5634100    -0.8003330
  H       -4.1001540     0.4487780     0.8215890
  H       -4.7285220    -0.9991160     0.0102380
  H       -4.0749460     0.3516660    -0.9371360
  H        0.0882100    -1.4658090     0.0960520
  H        0.8681440     1.5076730    -0.0687300
  H        4.1643390     0.4215720    -0.0233140
units angstrom
no_reorient  #important for SAPT in psi4, default
symmetry c1  #important for SAPT in psi4, default
}

set PROPERTIES_ORIGIN ["COM"]
properties('MP2/aug-cc-pvtz', properties = ['dipole'])
--------------------------------------------------------------------------

    Molecular point group: c1
  Charge       = 0
  Multiplicity = 1
  Basis Set: AUG-CC-PVTZ
    Blend: AUG-CC-PVTZ
  Basis Set: (AUG-CC-PVTZ AUX)
    Blend: AUG-CC-PVTZ-JKFIT

    Orbital Energies [Eh]
    ---------------------

    Doubly Occupied:

       1A    -20.630494     2A    -20.565042     3A    -20.551351
       4A    -11.409159     5A    -11.354918     6A    -11.283954
       7A    -11.278011     8A    -11.256044     9A    -11.227379
      10A     -1.475301    11A     -1.370725    12A     -1.330134
      13A     -1.116224    14A     -1.075309    15A     -0.969709
      16A     -0.896770    17A     -0.808724    18A     -0.747131
      19A     -0.716895    20A     -0.715235    21A     -0.661988
      22A     -0.647234    23A     -0.642358    24A     -0.631792
      25A     -0.602488    26A     -0.561513    27A     -0.542864
      28A     -0.529989    29A     -0.517018    30A     -0.502471
      31A     -0.480874    32A     -0.474899    33A     -0.441172
      34A     -0.398887

  @DF-RHF Final Energy:  -456.60203409080930

   => Energetics <=

    Nuclear Repulsion Energy =            413.0122342952384429
    One-Electron Energy =               -1442.4004231516546497
    Two-Electron Energy =                 572.7861547656069661
    Total Energy =                       -456.6020340908092976
  Basis Set: (AUG-CC-PVTZ AUX)
    Blend: AUG-CC-PVTZ-RI
    Molecular point group: c1

    Geometry (in Angstrom), charge = 0, multiplicity = 1:

       Center              X                  Y                   Z               Mass
    ------------   -----------------  -----------------  -----------------  -----------------
         O           -1.665269662678     1.371524561738    -0.083229026290    15.994914619570
         O            3.293386337322     0.882470561738    -0.040020026290    15.994914619570
         O            2.666062337322    -1.289675438262     0.082044973710    15.994914619570
         C           -2.572980662678    -0.853825438262     0.033207973710    12.000000000000
         C           -1.435753662678     0.062519361738    -0.004541426290    12.000000000000
         C           -3.954302662678    -0.220845438262    -0.021724026290    12.000000000000
         C           -0.063181662678    -0.380653438262     0.031816973710    12.000000000000
         C            0.996788337322     0.440988561738    -0.008437026290    12.000000000000
         C            2.368662337322    -0.107804438262     0.021382973710    12.000000000000
         H           -2.443583662678    -1.453585438262     0.943802973710     1.007825032230
         H           -2.420564662678    -1.554195438262    -0.800887026290     1.007825032230
         H           -4.101769662678     0.457992561738     0.821034973710     1.007825032230
         H           -4.730137662678    -0.989901438262     0.009683973710     1.007825032230
         H           -4.076561662678     0.360880561738    -0.937690026290     1.007825032230
         H            0.086594337322    -1.456594438262     0.095497973710     1.007825032230
         H            0.866528337322     1.516887561738    -0.069284026290     1.007825032230
         H            4.162723337322     0.430786561738    -0.023868026290     1.007825032230

  Basis Set: AUG-CC-PVTZ
    Blend: AUG-CC-PVTZ
  Basis Set: (AUG-CC-PVTZ AUX)
    Blend: AUG-CC-PVTZ-JKFIT
	 Reference Energy          =    -456.6020340908092976 [Eh]
	 Singles Energy            =      -0.0000000000000000 [Eh]
	 Same-Spin Energy          =      -0.4520687529617011 [Eh]
	 Opposite-Spin Energy      =      -1.4167465321243609 [Eh]
	 Correlation Energy        =      -1.8688152850860620 [Eh]
	 Total Energy              =    -458.4708493758953409 [Eh]

	 ================> DF-SCS-MP2 Energies <==================
	-----------------------------------------------------------
	 SCS Same-Spin Scale       =       0.3333333333333333 [-]
	 SCS Opposite-Spin Scale   =       1.2000000000000000 [-]
	 SCS Same-Spin Energy      =      -0.1506895843205670 [Eh]
	 SCS Opposite-Spin Energy  =      -1.7000958385492331 [Eh]
	 SCS Correlation Energy    =      -1.8507854228698002 [Eh]
	 SCS Total Energy          =    -458.4528195136791169 [Eh]
	-----------------------------------------------------------

  Dipole Moment: [D]
     X:    -0.1329      Y:    -1.4550      Z:     0.0762     Total:     1.4631

*** Psi4 exiting successfully. Buy a developer a beer!
