                               Psi4 1.3.2 release

  ==> Input File <==

--------------------------------------------------------------------------
#psi4
#
memory 32 gb

molecule  {
0 1
  O       -1.6636540     1.3623100    -0.0826750
  O        3.2950020     0.8732560    -0.0394660
  O        2.6676780    -1.2988900     0.0825990
  C       -2.5713650    -0.8630400     0.0337620
  C       -1.5254563     0.0845176    -0.0070102
  C       -3.9526870    -0.2300600    -0.0211700
  C       -0.0615660    -0.3898680     0.0323710
  C        0.9984040     0.4317740    -0.0078830
  C        2.3702780    -0.1170190     0.0219370
  H       -2.4419680    -1.4628000     0.9443570
  H       -2.4189490    -1.5634100    -0.8003330
  H       -4.1001540     0.4487780     0.8215890
  H       -4.7285220    -0.9991160     0.0102380
  H       -4.0749460     0.3516660    -0.9371360
  H        0.0882100    -1.4658090     0.0960520
  H        0.8681440     1.5076730    -0.0687300
  H        4.1643390     0.4215720    -0.0233140
units angstrom
no_reorient  #important for SAPT in psi4, default
symmetry c1  #important for SAPT in psi4, default
}

set PROPERTIES_ORIGIN ["COM"]
properties('MP2/aug-cc-pvtz', properties = ['dipole'])
--------------------------------------------------------------------------

    Molecular point group: c1
  Charge       = 0
  Multiplicity = 1
  Basis Set: AUG-CC-PVTZ
    Blend: AUG-CC-PVTZ
  Basis Set: (AUG-CC-PVTZ AUX)
    Blend: AUG-CC-PVTZ-JKFIT

    Orbital Energies [Eh]
    ---------------------

    Doubly Occupied:

       1A    -20.625225     2A    -20.558080     3A    -20.557848
       4A    -11.402972     5A    -11.357244     6A    -11.279011
       7A    -11.271701     8A    -11.256547     9A    -11.230893
      10A     -1.469626    11A     -1.364749    12A     -1.357015
      13A     -1.108477    14A     -1.084246    15A     -0.956681
      16A     -0.897049    17A     -0.795792    18A     -0.742157
      19A     -0.720771    20A     -0.709627    21A     -0.662601
      22A     -0.654697    23A     -0.638591    24A     -0.632972
      25A     -0.603808    26A     -0.564342    27A     -0.541739
      28A     -0.534850    29A     -0.526341    30A     -0.498323
      31A     -0.486988    32A     -0.468046    33A     -0.441216
      34A     -0.398903

  @DF-RHF Final Energy:  -456.60929180503740

   => Energetics <=

    Nuclear Repulsion Energy =            412.9844272642430383
    One-Electron Energy =               -1442.3891797281398794
    Two-Electron Energy =                 572.7954606588593833
    Total Energy =                       -456.6092918050374010
  Basis Set: (AUG-CC-PVTZ AUX)
    Blend: AUG-CC-PVTZ-RI
    Molecular point group: c1

    Geometry (in Angstrom), charge = 0, multiplicity = 1:

       Center              X                  Y                   Z               Mass
    ------------   -----------------  -----------------  -----------------  -----------------
         O           -1.656711737423     1.368599443669    -0.082945743569    15.994914619570
         O            3.301944262577     0.879545443669    -0.039736743569    15.994914619570
         O            2.674620262577    -1.292600556331     0.082328256431    15.994914619570
         C           -2.564422737423    -0.856750556331     0.033491256431    12.000000000000
         C           -1.518514037423     0.090807043669    -0.007280943569    12.000000000000
         C           -3.945744737423    -0.223770556331    -0.021440743569    12.000000000000
         C           -0.054623737423    -0.383578556331     0.032100256431    12.000000000000
         C            1.005346262577     0.438063443669    -0.008153743569    12.000000000000
         C            2.377220262577    -0.110729556331     0.021666256431    12.000000000000
         H           -2.435025737423    -1.456510556331     0.944086256431     1.007825032230
         H           -2.412006737423    -1.557120556331    -0.800603743569     1.007825032230
         H           -4.093211737423     0.455067443669     0.821318256431     1.007825032230
         H           -4.721579737423    -0.992826556331     0.009967256431     1.007825032230
         H           -4.068003737423     0.357955443669    -0.937406743569     1.007825032230
         H            0.095152262577    -1.459519556331     0.095781256431     1.007825032230
         H            0.875086262577     1.513962443669    -0.069000743569     1.007825032230
         H            4.171281262577     0.427861443669    -0.023584743569     1.007825032230

  Basis Set: AUG-CC-PVTZ
    Blend: AUG-CC-PVTZ
  Basis Set: (AUG-CC-PVTZ AUX)
    Blend: AUG-CC-PVTZ-JKFIT
	 Reference Energy          =    -456.6092918050374010 [Eh]
	 Singles Energy            =      -0.0000000000000000 [Eh]
	 Same-Spin Energy          =      -0.4503979640721015 [Eh]
	 Opposite-Spin Energy      =      -1.4132793565183497 [Eh]
	 Correlation Energy        =      -1.8636773205904511 [Eh]
	 Total Energy              =    -458.4729691256278556 [Eh]

	 ================> DF-SCS-MP2 Energies <==================
	-----------------------------------------------------------
	 SCS Same-Spin Scale       =       0.3333333333333333 [-]
	 SCS Opposite-Spin Scale   =       1.2000000000000000 [-]
	 SCS Same-Spin Energy      =      -0.1501326546907005 [Eh]
	 SCS Opposite-Spin Energy  =      -1.6959352278220197 [Eh]
	 SCS Correlation Energy    =      -1.8460678825127201 [Eh]
	 SCS Total Energy          =    -458.4553596875501285 [Eh]
	-----------------------------------------------------------

  Dipole Moment: [D]
     X:    -0.7087      Y:    -1.4656      Z:     0.0721     Total:     1.6296

*** Psi4 exiting successfully. Buy a developer a beer!
