                               Psi4 1.4a3.dev225

  ==> Input File <==

--------------------------------------------------------------------------
#psi4
#
memory 32 gb

molecule  {
0 1
  O       -1.5457390    -1.4151030    -0.0000120
  O        3.4055420    -0.8324430     0.0000000
  O        2.7346890     1.3362110     0.0000030
  C       -2.4962220     0.7973420     0.0000070
  C       -1.3569730    -0.1975560    -0.0000120
  C       -3.8659970     0.1363490     0.0000100
  C        0.0231420     0.3709680    -0.0000240
  C        1.1002740    -0.4324720     0.0000170
  C        2.4669669     0.1647643     0.0000069
  H       -2.3684100     1.4519690    -0.8733630
  H       -2.3683970     1.4519470     0.8733920
  H       -3.9887950    -0.4970190    -0.8807080
  H       -4.6559460     0.8916380     0.0000190
  H       -3.9887860    -0.4970320     0.8807180
  H        0.1589340     1.4510060    -0.0000590
  H        0.9863010    -1.5124980     0.0000520
  H        4.2687480    -0.3687180    -0.0000090
units angstrom
no_reorient  #important for SAPT in psi4, default
symmetry c1  #important for SAPT in psi4, default
}

set PROPERTIES_ORIGIN ["COM"]
properties('MP2/aug-cc-pvtz', properties = ['dipole'])
--------------------------------------------------------------------------

    Molecular point group: c1
  Charge       = 0
  Multiplicity = 1
  Basis Set: AUG-CC-PVTZ
    Blend: AUG-CC-PVTZ
  Basis Set: (AUG-CC-PVTZ AUX)
    Blend: AUG-CC-PVTZ-JKFIT

    Orbital Energies [Eh]
    ---------------------

    Doubly Occupied:

       1A    -20.624955     2A    -20.566035     3A    -20.559906
       4A    -11.405478     5A    -11.349609     6A    -11.276850
       7A    -11.274349     8A    -11.252167     9A    -11.224797
      10A     -1.472264    11A     -1.389351    12A     -1.376274
      13A     -1.106754    14A     -1.064665    15A     -0.953948
      16A     -0.885083    17A     -0.796116    18A     -0.746765
      19A     -0.717118    20A     -0.714211    21A     -0.661881
      22A     -0.643463    23A     -0.639295    24A     -0.638711
      25A     -0.608199    26A     -0.571316    27A     -0.539332
      28A     -0.538841    29A     -0.524009    30A     -0.504275
      31A     -0.497423    32A     -0.473232    33A     -0.434552
      34A     -0.403656

  @DF-RHF Final Energy:  -456.62869335150583

   => Energetics <=

    Nuclear Repulsion Energy =            413.2059895345752238
    One-Electron Energy =               -1442.7996169340524375
    Two-Electron Energy =                 572.9649340479712691
    Total Energy =                       -456.6286933515058308
  Basis Set: (AUG-CC-PVTZ AUX)
    Blend: AUG-CC-PVTZ-RI
    Molecular point group: c1

    Geometry (in Angstrom), charge = 0, multiplicity = 1:

       Center              X                  Y                   Z               Mass
    ------------   -----------------  -----------------  -----------------  -----------------
         O           -1.638617835640    -1.398592439119    -0.000011665549    15.994914619570
         O            3.312663164360    -0.815932439119     0.000000334451    15.994914619570
         O            2.641810164360     1.352721560881     0.000003334451    15.994914619570
         C           -2.589100835640     0.813852560881     0.000007334451    12.000000000000
         C           -1.449851835640    -0.181045439119    -0.000011665549    12.000000000000
         C           -3.958875835640     0.152859560881     0.000010334451    12.000000000000
         C           -0.069736835640     0.387478560881    -0.000023665549    12.000000000000
         C            1.007395164360    -0.415961439119     0.000017334451    12.000000000000
         C            2.374088064360     0.181274860881     0.000007234451    12.000000000000
         H           -2.461288835640     1.468479560881    -0.873362665549     1.007825032230
         H           -2.461275835640     1.468457560881     0.873392334451     1.007825032230
         H           -4.081673835640    -0.480508439119    -0.880707665549     1.007825032230
         H           -4.748824835640     0.908148560881     0.000019334451     1.007825032230
         H           -4.081664835640    -0.480521439119     0.880718334451     1.007825032230
         H            0.066055164360     1.467516560881    -0.000058665549     1.007825032230
         H            0.893422164360    -1.495987439119     0.000052334451     1.007825032230
         H            4.175869164360    -0.352207439119    -0.000008665549     1.007825032230

  Basis Set: AUG-CC-PVTZ
    Blend: AUG-CC-PVTZ
  Basis Set: (AUG-CC-PVTZ AUX)
    Blend: AUG-CC-PVTZ-JKFIT
	 Reference Energy          =    -456.6286933515058308 [Eh]
	 Singles Energy            =      -0.0000000000000000 [Eh]
	 Same-Spin Energy          =      -0.4479687182654010 [Eh]
	 Opposite-Spin Energy      =      -1.4086694189855489 [Eh]
	 Correlation Energy        =      -1.8566381372509499 [Eh]
	 Total Energy              =    -458.4853314887567990 [Eh]

	 ================> DF-SCS-MP2 Energies <==================
	-----------------------------------------------------------
	 SCS Same-Spin Scale       =       0.3333333333333333 [-]
	 SCS Opposite-Spin Scale   =       1.2000000000000000 [-]
	 SCS Same-Spin Energy      =      -0.1493229060884670 [Eh]
	 SCS Opposite-Spin Energy  =      -1.6904033027826586 [Eh]
	 SCS Correlation Energy    =      -1.8397262088711255 [Eh]
	 SCS Total Energy          =    -458.4684195603769581 [Eh]
	-----------------------------------------------------------

  Dipole Moment: [D]
     X:    -0.1619      Y:     1.3089      Z:     0.0000     Total:     1.3189

*** Psi4 exiting successfully. Buy a developer a beer!
