                               Psi4 1.3.2 release

  ==> Input File <==

--------------------------------------------------------------------------
#psi4
#
memory 32 gb

molecule  {
0 1
  O       -1.6636540     1.3623100    -0.0826750
  O        3.2950020     0.8732560    -0.0394660
  O        2.6676780    -1.2988900     0.0825990
  C       -2.5624605    -0.8727569     0.0343675
  C       -1.4513780     0.1516300    -0.0098980
  C       -3.9526870    -0.2300600    -0.0211700
  C       -0.0663571    -0.4019612     0.0329730
  C        0.9984040     0.4317740    -0.0078830
  C        2.3702780    -0.1170190     0.0219370
  H       -2.4419680    -1.4628000     0.9443570
  H       -2.4189490    -1.5634100    -0.8003330
  H       -4.1001540     0.4487780     0.8215890
  H       -4.7285220    -0.9991160     0.0102380
  H       -4.0749460     0.3516660    -0.9371360
  H        0.0882100    -1.4658090     0.0960520
  H        0.8681440     1.5076730    -0.0687300
  H        4.1643390     0.4215720    -0.0233140
units angstrom
no_reorient  #important for SAPT in psi4, default
symmetry c1  #important for SAPT in psi4, default
}

set PROPERTIES_ORIGIN ["COM"]
properties('MP2/aug-cc-pvtz', properties = ['dipole'])
--------------------------------------------------------------------------

    Molecular point group: c1
  Charge       = 0
  Multiplicity = 1
  Basis Set: AUG-CC-PVTZ
    Blend: AUG-CC-PVTZ
  Basis Set: (AUG-CC-PVTZ AUX)
    Blend: AUG-CC-PVTZ-JKFIT

    Orbital Energies [Eh]
    ---------------------

    Doubly Occupied:

       1A    -20.627577     2A    -20.561341     3A    -20.561177
       4A    -11.405361     5A    -11.350210     6A    -11.278290
       7A    -11.276326     8A    -11.251429     9A    -11.225396
      10A     -1.472227    11A     -1.390577    12A     -1.367507
      13A     -1.107620    14A     -1.063959    15A     -0.957365
      16A     -0.887134    17A     -0.798883    18A     -0.748929
      19A     -0.718321    20A     -0.713218    21A     -0.660150
      22A     -0.644471    23A     -0.640958    24A     -0.639546
      25A     -0.606463    26A     -0.573226    27A     -0.539729
      28A     -0.536573    29A     -0.523159    30A     -0.502452
      31A     -0.496896    32A     -0.471186    33A     -0.435379
      34A     -0.402102

  @DF-RHF Final Energy:  -456.62750093610060

   => Energetics <=

    Nuclear Repulsion Energy =            413.2819869430110202
    One-Electron Energy =               -1442.9487052802119251
    Two-Electron Energy =                 573.0392174011003590
    Total Energy =                       -456.6275009361006596
  Basis Set: (AUG-CC-PVTZ AUX)
    Blend: AUG-CC-PVTZ-RI
    Molecular point group: c1

    Geometry (in Angstrom), charge = 0, multiplicity = 1:

       Center              X                  Y                   Z               Mass
    ------------   -----------------  -----------------  -----------------  -----------------
         O           -1.664039498935     1.364353923359    -0.082788273688    15.994914619570
         O            3.294616501065     0.875299923359    -0.039579273688    15.994914619570
         O            2.667292501065    -1.296846076641     0.082485726312    15.994914619570
         C           -2.562845998935    -0.870712976641     0.034254226312    12.000000000000
         C           -1.451763498935     0.153673923359    -0.010011273688    12.000000000000
         C           -3.953072498935    -0.228016076641    -0.021283273688    12.000000000000
         C           -0.066742598935    -0.399917276641     0.032859726312    12.000000000000
         C            0.998018501065     0.433817923359    -0.007996273688    12.000000000000
         C            2.369892501065    -0.114975076641     0.021823726312    12.000000000000
         H           -2.442353498935    -1.460756076641     0.944243726312     1.007825032230
         H           -2.419334498935    -1.561366076641    -0.800446273688     1.007825032230
         H           -4.100539498935     0.450821923359     0.821475726312     1.007825032230
         H           -4.728907498935    -0.997072076641     0.010124726312     1.007825032230
         H           -4.075331498935     0.353709923359    -0.937249273688     1.007825032230
         H            0.087824501065    -1.463765076641     0.095938726312     1.007825032230
         H            0.867758501065     1.509716923359    -0.068843273688     1.007825032230
         H            4.163953501065     0.423615923359    -0.023427273688     1.007825032230

  Basis Set: AUG-CC-PVTZ
    Blend: AUG-CC-PVTZ
  Basis Set: (AUG-CC-PVTZ AUX)
    Blend: AUG-CC-PVTZ-JKFIT
	 Reference Energy          =    -456.6275009361006028 [Eh]
	 Singles Energy            =      -0.0000000000000000 [Eh]
	 Same-Spin Energy          =      -0.4483325021947244 [Eh]
	 Opposite-Spin Energy      =      -1.4093454641431640 [Eh]
	 Correlation Energy        =      -1.8576779663378884 [Eh]
	 Total Energy              =    -458.4851789024384630 [Eh]

	 ================> DF-SCS-MP2 Energies <==================
	-----------------------------------------------------------
	 SCS Same-Spin Scale       =       0.3333333333333333 [-]
	 SCS Opposite-Spin Scale   =       1.2000000000000000 [-]
	 SCS Same-Spin Energy      =      -0.1494441673982415 [Eh]
	 SCS Opposite-Spin Energy  =      -1.6912145569717967 [Eh]
	 SCS Correlation Energy    =      -1.8406587243700381 [Eh]
	 SCS Total Energy          =    -458.4681596604706328 [Eh]
	-----------------------------------------------------------

  Dipole Moment: [D]
     X:    -0.1516      Y:    -1.1813      Z:     0.0617     Total:     1.1926

*** Psi4 exiting successfully. Buy a developer a beer!
