                               Psi4 1.3.2 release

  ==> Input File <==

--------------------------------------------------------------------------
#psi4
#
memory 32 gb

molecule  {
0 1
  O       -1.6636540     1.3623100    -0.0826750
  O        3.2950020     0.8732560    -0.0394660
  O        2.6676780    -1.2988900     0.0825990
  C       -2.5713650    -0.8630400     0.0337620
  C       -1.4513780     0.1516300    -0.0098980
  C       -3.9526870    -0.2300600    -0.0211700
  C       -0.0615660    -0.3898680     0.0323710
  C        0.9984040     0.4317740    -0.0078830
  C        2.3654297    -0.1289504     0.0226176
  H       -2.4419680    -1.4628000     0.9443570
  H       -2.4189490    -1.5634100    -0.8003330
  H       -4.1001540     0.4487780     0.8215890
  H       -4.7285220    -0.9991160     0.0102380
  H       -4.0749460     0.3516660    -0.9371360
  H        0.0882100    -1.4658090     0.0960520
  H        0.8587451     1.5064976    -0.0686546
  H        4.1643390     0.4215720    -0.0233140
units angstrom
no_reorient  #important for SAPT in psi4, default
symmetry c1  #important for SAPT in psi4, default
}

set PROPERTIES_ORIGIN ["COM"]
properties('MP2/aug-cc-pvtz', properties = ['dipole'])
--------------------------------------------------------------------------

    Molecular point group: c1
  Charge       = 0
  Multiplicity = 1
  Basis Set: AUG-CC-PVTZ
    Blend: AUG-CC-PVTZ
  Basis Set: (AUG-CC-PVTZ AUX)
    Blend: AUG-CC-PVTZ-JKFIT

    Orbital Energies [Eh]
    ---------------------

    Doubly Occupied:

       1A    -20.624070     2A    -20.563886     3A    -20.560889
       4A    -11.405092     5A    -11.350104     6A    -11.276928
       7A    -11.275261     8A    -11.252647     9A    -11.225290
      10A     -1.470046    11A     -1.390824    12A     -1.370955
      13A     -1.109601    14A     -1.065867    15A     -0.956527
      16A     -0.886380    17A     -0.796707    18A     -0.747724
      19A     -0.718062    20A     -0.712488    21A     -0.661408
      22A     -0.643420    23A     -0.640383    24A     -0.638071
      25A     -0.608025    26A     -0.571534    27A     -0.540153
      28A     -0.539492    29A     -0.524562    30A     -0.502158
      31A     -0.497316    32A     -0.472615    33A     -0.435476
      34A     -0.404870

  @DF-RHF Final Energy:  -456.62860375939277

   => Energetics <=

    Nuclear Repulsion Energy =            413.5173237043626955
    One-Electron Energy =               -1443.4141931821131948
    Two-Electron Energy =                 573.2682657183577248
    Total Energy =                       -456.6286037593927176
  Basis Set: (AUG-CC-PVTZ AUX)
    Blend: AUG-CC-PVTZ-RI
    Molecular point group: c1

    Geometry (in Angstrom), charge = 0, multiplicity = 1:

       Center              X                  Y                   Z               Mass
    ------------   -----------------  -----------------  -----------------  -----------------
         O           -1.663125674072     1.363437388907    -0.082739488530    15.994914619570
         O            3.295530325928     0.874383388907    -0.039530488530    15.994914619570
         O            2.668206325928    -1.297762611093     0.082534511470    15.994914619570
         C           -2.570836674072    -0.861912611093     0.033697511470    12.000000000000
         C           -1.450849674072     0.152757388907    -0.009962488530    12.000000000000
         C           -3.952158674072    -0.228932611093    -0.021234488530    12.000000000000
         C           -0.061037674072    -0.388740611093     0.032306511470    12.000000000000
         C            0.998932325928     0.432901388907    -0.007947488530    12.000000000000
         C            2.365958025928    -0.127823011093     0.022553111470    12.000000000000
         H           -2.441439674072    -1.461672611093     0.944292511470     1.007825032230
         H           -2.418420674072    -1.562282611093    -0.800397488530     1.007825032230
         H           -4.099625674072     0.449905388907     0.821524511470     1.007825032230
         H           -4.727993674072    -0.997988611093     0.010173511470     1.007825032230
         H           -4.074417674072     0.352793388907    -0.937200488530     1.007825032230
         H            0.088738325928    -1.464681611093     0.095987511470     1.007825032230
         H            0.859273425928     1.507624988907    -0.068719088530     1.007825032230
         H            4.164867325928     0.422699388907    -0.023378488530     1.007825032230

  Basis Set: AUG-CC-PVTZ
    Blend: AUG-CC-PVTZ
  Basis Set: (AUG-CC-PVTZ AUX)
    Blend: AUG-CC-PVTZ-JKFIT
	 Reference Energy          =    -456.6286037593927745 [Eh]
	 Singles Energy            =      -0.0000000000000000 [Eh]
	 Same-Spin Energy          =      -0.4481723084160365 [Eh]
	 Opposite-Spin Energy      =      -1.4089224146255399 [Eh]
	 Correlation Energy        =      -1.8570947230415764 [Eh]
	 Total Energy              =    -458.4856984824343726 [Eh]

	 ================> DF-SCS-MP2 Energies <==================
	-----------------------------------------------------------
	 SCS Same-Spin Scale       =       0.3333333333333333 [-]
	 SCS Opposite-Spin Scale   =       1.2000000000000000 [-]
	 SCS Same-Spin Energy      =      -0.1493907694720122 [Eh]
	 SCS Opposite-Spin Energy  =      -1.6907068975506478 [Eh]
	 SCS Correlation Energy    =      -1.8400976670226601 [Eh]
	 SCS Total Energy          =    -458.4687014264154072 [Eh]
	-----------------------------------------------------------

  Dipole Moment: [D]
     X:    -0.2351      Y:    -1.2760      Z:     0.0670     Total:     1.2992

*** Psi4 exiting successfully. Buy a developer a beer!
