                               Psi4 1.3.2 release

  ==> Input File <==

--------------------------------------------------------------------------
#psi4
#
memory 32 gb

molecule  {
0 1
  O       -1.6636540     1.3623100    -0.0826750
  O        3.2950020     0.8732560    -0.0394660
  O        2.6676780    -1.2988900     0.0825990
  C       -2.5713650    -0.8630400     0.0337620
  C       -1.4416893     0.1757672    -0.0112251
  C       -3.9526870    -0.2300600    -0.0211700
  C       -0.0615660    -0.3898680     0.0323710
  C        0.9984040     0.4317740    -0.0078830
  C        2.3702780    -0.1170190     0.0219370
  H       -2.4419680    -1.4628000     0.9443570
  H       -2.4189490    -1.5634100    -0.8003330
  H       -4.1001540     0.4487780     0.8215890
  H       -4.7285220    -0.9991160     0.0102380
  H       -4.0749460     0.3516660    -0.9371360
  H        0.1069972    -1.4630270     0.0960364
  H        0.8681440     1.5076730    -0.0687300
  H        4.1643390     0.4215720    -0.0233140
units angstrom
no_reorient  #important for SAPT in psi4, default
symmetry c1  #important for SAPT in psi4, default
}

set PROPERTIES_ORIGIN ["COM"]
properties('MP2/aug-cc-pvtz', properties = ['dipole'])
--------------------------------------------------------------------------

    Molecular point group: c1
  Charge       = 0
  Multiplicity = 1
  Basis Set: AUG-CC-PVTZ
    Blend: AUG-CC-PVTZ
  Basis Set: (AUG-CC-PVTZ AUX)
    Blend: AUG-CC-PVTZ-JKFIT

    Orbital Energies [Eh]
    ---------------------

    Doubly Occupied:

       1A    -20.627670     2A    -20.562500     3A    -20.561532
       4A    -11.405419     5A    -11.348572     6A    -11.276193
       7A    -11.274520     8A    -11.250902     9A    -11.223928
      10A     -1.472337    11A     -1.405667    12A     -1.367674
      13A     -1.109207    14A     -1.061086    15A     -0.955686
      16A     -0.884605    17A     -0.797985    18A     -0.748491
      19A     -0.718840    20A     -0.713132    21A     -0.662088
      22A     -0.644125    23A     -0.643231    24A     -0.637892
      25A     -0.607317    26A     -0.572006    27A     -0.545325
      28A     -0.538941    29A     -0.524101    30A     -0.501141
      31A     -0.497616    32A     -0.471475    33A     -0.431332
      34A     -0.405382

  @DF-RHF Final Energy:  -456.62982996324848

   => Energetics <=

    Nuclear Repulsion Energy =            413.6466410125388506
    One-Electron Energy =               -1443.6571076473433095
    Two-Electron Energy =                 573.3806366715560898
    Total Energy =                       -456.6298299632484259
  Basis Set: (AUG-CC-PVTZ AUX)
    Blend: AUG-CC-PVTZ-RI
    Molecular point group: c1

    Geometry (in Angstrom), charge = 0, multiplicity = 1:

       Center              X                  Y                   Z               Mass
    ------------   -----------------  -----------------  -----------------  -----------------
         O           -1.664709858880     1.360026060310    -0.082550620012    15.994914619570
         O            3.293946141120     0.870972060310    -0.039341620012    15.994914619570
         O            2.666622141120    -1.301173939690     0.082723379988    15.994914619570
         C           -2.572420858880    -0.865323939690     0.033886379988    12.000000000000
         C           -1.442745158880     0.173483260310    -0.011100720012    12.000000000000
         C           -3.953742858880    -0.232343939690    -0.021045620012    12.000000000000
         C           -0.062621858880    -0.392151939690     0.032495379988    12.000000000000
         C            0.997348141120     0.429490060310    -0.007758620012    12.000000000000
         C            2.369222141120    -0.119302939690     0.022061379988    12.000000000000
         H           -2.443023858880    -1.465083939690     0.944481379988     1.007825032230
         H           -2.420004858880    -1.565693939690    -0.800208620012     1.007825032230
         H           -4.101209858880     0.446494060310     0.821713379988     1.007825032230
         H           -4.729577858880    -1.001399939690     0.010362379988     1.007825032230
         H           -4.076001858880     0.349382060310    -0.937011620012     1.007825032230
         H            0.105941341120    -1.465310939690     0.096160779988     1.007825032230
         H            0.867088141120     1.505389060310    -0.068605620012     1.007825032230
         H            4.163283141120     0.419288060310    -0.023189620012     1.007825032230

  Basis Set: AUG-CC-PVTZ
    Blend: AUG-CC-PVTZ
  Basis Set: (AUG-CC-PVTZ AUX)
    Blend: AUG-CC-PVTZ-JKFIT
	 Reference Energy          =    -456.6298299632484827 [Eh]
	 Singles Energy            =      -0.0000000000000000 [Eh]
	 Same-Spin Energy          =      -0.4476475150652338 [Eh]
	 Opposite-Spin Energy      =      -1.4077409920066450 [Eh]
	 Correlation Energy        =      -1.8553885070718787 [Eh]
	 Total Energy              =    -458.4852184703203761 [Eh]

	 ================> DF-SCS-MP2 Energies <==================
	-----------------------------------------------------------
	 SCS Same-Spin Scale       =       0.3333333333333333 [-]
	 SCS Opposite-Spin Scale   =       1.2000000000000000 [-]
	 SCS Same-Spin Energy      =      -0.1492158383550779 [Eh]
	 SCS Opposite-Spin Energy  =      -1.6892891904079741 [Eh]
	 SCS Correlation Energy    =      -1.8385050287630520 [Eh]
	 SCS Total Energy          =    -458.4683349920115347 [Eh]
	-----------------------------------------------------------

  Dipole Moment: [D]
     X:    -0.0917      Y:    -1.0829      Z:     0.0568     Total:     1.0883

*** Psi4 exiting successfully. Buy a developer a beer!
