                               Psi4 1.3.2 release

  ==> Input File <==

--------------------------------------------------------------------------
#psi4
#
memory 32 gb

molecule  {
0 1
  O       -1.6636540     1.3623100    -0.0826750
  O        3.3036250     0.8651619    -0.0390003
  O        2.6676780    -1.2988900     0.0825990
  C       -2.5713650    -0.8630400     0.0337620
  C       -1.4513780     0.1516300    -0.0098980
  C       -3.9526870    -0.2300600    -0.0211700
  C       -0.0615660    -0.3898680     0.0323710
  C        0.9936602     0.4198034    -0.0071551
  C        2.3702780    -0.1170190     0.0219370
  H       -2.4419680    -1.4628000     0.9443570
  H       -2.4189490    -1.5634100    -0.8003330
  H       -4.1001540     0.4487780     0.8215890
  H       -4.7285220    -0.9991160     0.0102380
  H       -4.0749460     0.3516660    -0.9371360
  H        0.0882100    -1.4658090     0.0960520
  H        0.8681440     1.5076730    -0.0687300
  H        4.1643390     0.4215720    -0.0233140
units angstrom
no_reorient  #important for SAPT in psi4, default
symmetry c1  #important for SAPT in psi4, default
}

set PROPERTIES_ORIGIN ["COM"]
properties('MP2/aug-cc-pvtz', properties = ['dipole'])
--------------------------------------------------------------------------

    Molecular point group: c1
  Charge       = 0
  Multiplicity = 1
  Basis Set: AUG-CC-PVTZ
    Blend: AUG-CC-PVTZ
  Basis Set: (AUG-CC-PVTZ AUX)
    Blend: AUG-CC-PVTZ-JKFIT

    Orbital Energies [Eh]
    ---------------------

    Doubly Occupied:

       1A    -20.626484     2A    -20.560913     3A    -20.560786
       4A    -11.405463     5A    -11.350226     6A    -11.276236
       7A    -11.274150     8A    -11.252649     9A    -11.225274
      10A     -1.473498    11A     -1.390817    12A     -1.367694
      13A     -1.111260    14A     -1.066029    15A     -0.957469
      16A     -0.889103    17A     -0.800811    18A     -0.745738
      19A     -0.719661    20A     -0.712826    21A     -0.662973
      22A     -0.644099    23A     -0.640982    24A     -0.639213
      25A     -0.607742    26A     -0.567396    27A     -0.540393
      28A     -0.539635    29A     -0.524530    30A     -0.501103
      31A     -0.495966    32A     -0.470592    33A     -0.435631
      34A     -0.406586

  @DF-RHF Final Energy:  -456.62934654220118

   => Energetics <=

    Nuclear Repulsion Energy =            413.6030970365202393
    One-Electron Energy =               -1443.5770285969497309
    Two-Electron Energy =                 573.3445850182282584
    Total Energy =                       -456.6293465422012332
  Basis Set: (AUG-CC-PVTZ AUX)
    Blend: AUG-CC-PVTZ-RI
    Molecular point group: c1

    Geometry (in Angstrom), charge = 0, multiplicity = 1:

       Center              X                  Y                   Z               Mass
    ------------   -----------------  -----------------  -----------------  -----------------
         O           -1.664286577459     1.364442878257    -0.082801500294    15.994914619570
         O            3.302992422541     0.867294778257    -0.039126800294    15.994914619570
         O            2.667045422541    -1.296757121743     0.082472499706    15.994914619570
         C           -2.571997577459    -0.860907121743     0.033635499706    12.000000000000
         C           -1.452010577459     0.153762878257    -0.010024500294    12.000000000000
         C           -3.953319577459    -0.227927121743    -0.021296500294    12.000000000000
         C           -0.062198577459    -0.387735121743     0.032244499706    12.000000000000
         C            0.993027622541     0.421936278257    -0.007281600294    12.000000000000
         C            2.369645422541    -0.114886121743     0.021810499706    12.000000000000
         H           -2.442600577459    -1.460667121743     0.944230499706     1.007825032230
         H           -2.419581577459    -1.561277121743    -0.800459500294     1.007825032230
         H           -4.100786577459     0.450910878257     0.821462499706     1.007825032230
         H           -4.729154577459    -0.996983121743     0.010111499706     1.007825032230
         H           -4.075578577459     0.353798878257    -0.937262500294     1.007825032230
         H            0.087577422541    -1.463676121743     0.095925499706     1.007825032230
         H            0.867511422541     1.509805878257    -0.068856500294     1.007825032230
         H            4.163706422541     0.423704878257    -0.023440500294     1.007825032230

  Basis Set: AUG-CC-PVTZ
    Blend: AUG-CC-PVTZ
  Basis Set: (AUG-CC-PVTZ AUX)
    Blend: AUG-CC-PVTZ-JKFIT
	 Reference Energy          =    -456.6293465422011764 [Eh]
	 Singles Energy            =      -0.0000000000000000 [Eh]
	 Same-Spin Energy          =      -0.4479503698677835 [Eh]
	 Opposite-Spin Energy      =      -1.4083634454588723 [Eh]
	 Correlation Energy        =      -1.8563138153266556 [Eh]
	 Total Energy              =    -458.4856603575278200 [Eh]

	 ================> DF-SCS-MP2 Energies <==================
	-----------------------------------------------------------
	 SCS Same-Spin Scale       =       0.3333333333333333 [-]
	 SCS Opposite-Spin Scale   =       1.2000000000000000 [-]
	 SCS Same-Spin Energy      =      -0.1493167899559278 [Eh]
	 SCS Opposite-Spin Energy  =      -1.6900361345506467 [Eh]
	 SCS Correlation Energy    =      -1.8393529245065745 [Eh]
	 SCS Total Energy          =    -458.4686994667077329 [Eh]
	-----------------------------------------------------------

  Dipole Moment: [D]
     X:    -0.1984      Y:    -1.1800      Z:     0.0613     Total:     1.1982

*** Psi4 exiting successfully. Buy a developer a beer!
