                               Psi4 1.3.2 release

  ==> Input File <==

--------------------------------------------------------------------------
#psi4
#
memory 32 gb

molecule  {
0 1
  O       -1.7268377     1.3495321    -0.0823979
  O        3.2950020     0.8732560    -0.0394660
  O        2.6676780    -1.2988900     0.0825990
  C       -2.5713650    -0.8630400     0.0337620
  C       -1.4513780     0.1516300    -0.0098980
  C       -3.9526870    -0.2300600    -0.0211700
  C       -0.0918907    -0.4617522     0.0363700
  C        0.9984040     0.4317740    -0.0078830
  C        2.3702780    -0.1170190     0.0219370
  H       -2.4419680    -1.4628000     0.9443570
  H       -2.4189490    -1.5634100    -0.8003330
  H       -4.1001540     0.4487780     0.8215890
  H       -4.7285220    -0.9991160     0.0102380
  H       -4.0749460     0.3516660    -0.9371360
  H        0.0882100    -1.4658090     0.0960520
  H        0.8681440     1.5076730    -0.0687300
  H        4.1643390     0.4215720    -0.0233140
units angstrom
no_reorient  #important for SAPT in psi4, default
symmetry c1  #important for SAPT in psi4, default
}

set PROPERTIES_ORIGIN ["COM"]
properties('MP2/aug-cc-pvtz', properties = ['dipole'])
--------------------------------------------------------------------------

    Molecular point group: c1
  Charge       = 0
  Multiplicity = 1
  Basis Set: AUG-CC-PVTZ
    Blend: AUG-CC-PVTZ
  Basis Set: (AUG-CC-PVTZ AUX)
    Blend: AUG-CC-PVTZ-JKFIT

    Orbital Energies [Eh]
    ---------------------

    Doubly Occupied:

       1A    -20.629310     2A    -20.563511     3A    -20.560708
       4A    -11.407331     5A    -11.350638     6A    -11.290888
       7A    -11.284650     8A    -11.246810     9A    -11.221418
      10A     -1.474137    11A     -1.389657    12A     -1.369518
      13A     -1.103591    14A     -1.060180    15A     -0.962164
      16A     -0.884196    17A     -0.797073    18A     -0.761191
      19A     -0.717983    20A     -0.714433    21A     -0.659346
      22A     -0.644053    23A     -0.639505    24A     -0.637991
      25A     -0.606404    26A     -0.588329    27A     -0.537143
      28A     -0.533493    29A     -0.520894    30A     -0.500565
      31A     -0.495232    32A     -0.473444    33A     -0.432629
      34A     -0.394831

  @DF-RHF Final Energy:  -456.61428227391752

   => Energetics <=

    Nuclear Repulsion Energy =            412.5965864901383497
    One-Electron Energy =               -1441.5152483163426496
    Two-Electron Energy =                 572.3043795522867185
    Total Energy =                       -456.6142822739175244
  Basis Set: (AUG-CC-PVTZ AUX)
    Blend: AUG-CC-PVTZ-RI
    Molecular point group: c1

    Geometry (in Angstrom), charge = 0, multiplicity = 1:

       Center              X                  Y                   Z               Mass
    ------------   -----------------  -----------------  -----------------  -----------------
         O           -1.716103287807     1.357864873980    -0.082807393740    15.994914619570
         O            3.305736412193     0.881588773980    -0.039875493740    15.994914619570
         O            2.678412412193    -1.290557226020     0.082189506260    15.994914619570
         C           -2.560630587807    -0.854707226020     0.033352506260    12.000000000000
         C           -1.440643587807     0.159962773980    -0.010307493740    12.000000000000
         C           -3.941952587807    -0.221727226020    -0.021579493740    12.000000000000
         C           -0.081156287807    -0.453419426020     0.035960506260    12.000000000000
         C            1.009138412193     0.440106773980    -0.008292493740    12.000000000000
         C            2.381012412193    -0.108686226020     0.021527506260    12.000000000000
         H           -2.431233587807    -1.454467226020     0.943947506260     1.007825032230
         H           -2.408214587807    -1.555077226020    -0.800742493740     1.007825032230
         H           -4.089419587807     0.457110773980     0.821179506260     1.007825032230
         H           -4.717787587807    -0.990783226020     0.009828506260     1.007825032230
         H           -4.064211587807     0.359998773980    -0.937545493740     1.007825032230
         H            0.098944412193    -1.457476226020     0.095642506260     1.007825032230
         H            0.878878412193     1.516005773980    -0.069139493740     1.007825032230
         H            4.175073412193     0.429904773980    -0.023723493740     1.007825032230

  Basis Set: AUG-CC-PVTZ
    Blend: AUG-CC-PVTZ
  Basis Set: (AUG-CC-PVTZ AUX)
    Blend: AUG-CC-PVTZ-JKFIT
	 Reference Energy          =    -456.6142822739175244 [Eh]
	 Singles Energy            =      -0.0000000000000000 [Eh]
	 Same-Spin Energy          =      -0.4493658032971876 [Eh]
	 Opposite-Spin Energy      =      -1.4115912678397888 [Eh]
	 Correlation Energy        =      -1.8609570711369763 [Eh]
	 Total Energy              =    -458.4752393450544901 [Eh]

	 ================> DF-SCS-MP2 Energies <==================
	-----------------------------------------------------------
	 SCS Same-Spin Scale       =       0.3333333333333333 [-]
	 SCS Opposite-Spin Scale   =       1.2000000000000000 [-]
	 SCS Same-Spin Energy      =      -0.1497886010990625 [Eh]
	 SCS Opposite-Spin Energy  =      -1.6939095214077466 [Eh]
	 SCS Correlation Energy    =      -1.8436981225068092 [Eh]
	 SCS Total Energy          =    -458.4579803964243183 [Eh]
	-----------------------------------------------------------

  Dipole Moment: [D]
     X:     0.1391      Y:    -1.1406      Z:     0.0617     Total:     1.1507

*** Psi4 exiting successfully. Buy a developer a beer!
