                               Psi4 1.4a3.dev225

  ==> Input File <==

--------------------------------------------------------------------------
#psi4
#
memory 32 gb

molecule  {
0 1
  O       -1.5457390    -1.4151030    -0.0000120
  O        3.4055420    -0.8324430     0.0000000
  O        2.7346890     1.3362110     0.0000030
  C       -2.4962220     0.7973420     0.0000070
  C       -1.3419087    -0.2107115    -0.0000123
  C       -3.8659970     0.1363490     0.0000100
  C        0.0231420     0.3709680    -0.0000240
  C        1.1002740    -0.4324720     0.0000170
  C        2.4625110     0.1452670     0.0000070
  H       -2.3684100     1.4519690    -0.8733630
  H       -2.3683970     1.4519470     0.8733920
  H       -3.9887950    -0.4970190    -0.8807080
  H       -4.6559460     0.8916380     0.0000190
  H       -3.9887860    -0.4970320     0.8807180
  H        0.1589340     1.4510060    -0.0000590
  H        0.9863010    -1.5124980     0.0000520
  H        4.2687480    -0.3687180    -0.0000090
units angstrom
no_reorient  #important for SAPT in psi4, default
symmetry c1  #important for SAPT in psi4, default
}

set PROPERTIES_ORIGIN ["COM"]
properties('MP2/aug-cc-pvtz', properties = ['dipole'])
--------------------------------------------------------------------------

    Molecular point group: c1
  Charge       = 0
  Multiplicity = 1
  Basis Set: AUG-CC-PVTZ
    Blend: AUG-CC-PVTZ
  Basis Set: (AUG-CC-PVTZ AUX)
    Blend: AUG-CC-PVTZ-JKFIT

    Orbital Energies [Eh]
    ---------------------

    Doubly Occupied:

       1A    -20.628450     2A    -20.562662     3A    -20.561289
       4A    -11.406924     5A    -11.349025     6A    -11.277749
       7A    -11.275618     8A    -11.251499     9A    -11.224041
      10A     -1.471621    11A     -1.396909    12A     -1.367940
      13A     -1.109700    14A     -1.061386    15A     -0.957418
      16A     -0.885204    17A     -0.799480    18A     -0.748221
      19A     -0.717927    20A     -0.713289    21A     -0.661226
      22A     -0.642959    23A     -0.641991    24A     -0.637565
      25A     -0.607010    26A     -0.571737    27A     -0.542340
      28A     -0.538563    29A     -0.523729    30A     -0.500991
      31A     -0.497001    32A     -0.472065    33A     -0.432770
      34A     -0.404819

  @DF-RHF Final Energy:  -456.62844115123755

   => Energetics <=

    Nuclear Repulsion Energy =            413.2703546068235596
    One-Electron Energy =               -1442.9153573209532624
    Two-Electron Energy =                 573.0165615628922069
    Total Energy =                       -456.6284411512375527
  Basis Set: (AUG-CC-PVTZ AUX)
    Blend: AUG-CC-PVTZ-RI
    Molecular point group: c1

    Geometry (in Angstrom), charge = 0, multiplicity = 1:

       Center              X                  Y                   Z               Mass
    ------------   -----------------  -----------------  -----------------  -----------------
         O           -1.639612005421    -1.395532370965    -0.000011646806    15.994914619570
         O            3.311668994579    -0.812872370965     0.000000353194    15.994914619570
         O            2.640815994579     1.355781629035     0.000003353194    15.994914619570
         C           -2.590095005421     0.816912629035     0.000007353194    12.000000000000
         C           -1.435781705421    -0.191140870965    -0.000011946806    12.000000000000
         C           -3.959870005421     0.155919629035     0.000010353194    12.000000000000
         C           -0.070731005421     0.390538629035    -0.000023646806    12.000000000000
         C            1.006400994579    -0.412901370965     0.000017353194    12.000000000000
         C            2.368637994579     0.164837629035     0.000007353194    12.000000000000
         H           -2.462283005421     1.471539629035    -0.873362646806     1.007825032230
         H           -2.462270005421     1.471517629035     0.873392353194     1.007825032230
         H           -4.082668005421    -0.477448370965    -0.880707646806     1.007825032230
         H           -4.749819005421     0.911208629035     0.000019353194     1.007825032230
         H           -4.082659005421    -0.477461370965     0.880718353194     1.007825032230
         H            0.065060994579     1.470576629035    -0.000058646806     1.007825032230
         H            0.892427994579    -1.492927370965     0.000052353194     1.007825032230
         H            4.174874994579    -0.349147370965    -0.000008646806     1.007825032230

  Basis Set: AUG-CC-PVTZ
    Blend: AUG-CC-PVTZ
  Basis Set: (AUG-CC-PVTZ AUX)
    Blend: AUG-CC-PVTZ-JKFIT
	 Reference Energy          =    -456.6284411512375527 [Eh]
	 Singles Energy            =      -0.0000000000000000 [Eh]
	 Same-Spin Energy          =      -0.4480796503788970 [Eh]
	 Opposite-Spin Energy      =      -1.4087993596978268 [Eh]
	 Correlation Energy        =      -1.8568790100767238 [Eh]
	 Total Energy              =    -458.4853201613142915 [Eh]

	 ================> DF-SCS-MP2 Energies <==================
	-----------------------------------------------------------
	 SCS Same-Spin Scale       =       0.3333333333333333 [-]
	 SCS Opposite-Spin Scale   =       1.2000000000000000 [-]
	 SCS Same-Spin Energy      =      -0.1493598834596323 [Eh]
	 SCS Opposite-Spin Energy  =      -1.6905592316373921 [Eh]
	 SCS Correlation Energy    =      -1.8399191150970244 [Eh]
	 SCS Total Energy          =    -458.4683602663345710 [Eh]
	-----------------------------------------------------------

  Dipole Moment: [D]
     X:    -0.0717      Y:     1.1204      Z:     0.0000     Total:     1.1227

*** Psi4 exiting successfully. Buy a developer a beer!
