                               Psi4 1.3.2 release

  ==> Input File <==

--------------------------------------------------------------------------
#psi4
#
memory 32 gb

molecule  {
0 1
  O       -1.6212002     1.3690017    -0.0824946
  O        3.2950020     0.8732560    -0.0394660
  O        2.6676780    -1.2988900     0.0825990
  C       -2.5352455    -0.9014200     0.0364616
  C       -1.4513780     0.1516300    -0.0098980
  C       -3.9526870    -0.2300600    -0.0211700
  C       -0.0615660    -0.3898680     0.0323710
  C        0.9984040     0.4317740    -0.0078830
  C        2.3702780    -0.1170190     0.0219370
  H       -2.4419680    -1.4628000     0.9443570
  H       -2.4189490    -1.5634100    -0.8003330
  H       -4.1001540     0.4487780     0.8215890
  H       -4.7285220    -0.9991160     0.0102380
  H       -4.0749460     0.3516660    -0.9371360
  H        0.0882100    -1.4658090     0.0960520
  H        0.8681440     1.5076730    -0.0687300
  H        4.1643390     0.4215720    -0.0233140
units angstrom
no_reorient  #important for SAPT in psi4, default
symmetry c1  #important for SAPT in psi4, default
}

set PROPERTIES_ORIGIN ["COM"]
properties('MP2/aug-cc-pvtz', properties = ['dipole'])
--------------------------------------------------------------------------

    Molecular point group: c1
  Charge       = 0
  Multiplicity = 1
  Basis Set: AUG-CC-PVTZ
    Blend: AUG-CC-PVTZ
  Basis Set: (AUG-CC-PVTZ AUX)
    Blend: AUG-CC-PVTZ-JKFIT

    Orbital Energies [Eh]
    ---------------------

    Doubly Occupied:

       1A    -20.626397     2A    -20.562621     3A    -20.559897
       4A    -11.403908     5A    -11.350892     6A    -11.274042
       7A    -11.272193     8A    -11.252274     9A    -11.228540
      10A     -1.470958    11A     -1.391531    12A     -1.366178
      13A     -1.107465    14A     -1.062808    15A     -0.954522
      16A     -0.888179    17A     -0.800408    18A     -0.745806
      19A     -0.719491    20A     -0.711633    21A     -0.659046
      22A     -0.648811    23A     -0.641953    24A     -0.639527
      25A     -0.605276    26A     -0.568498    27A     -0.540956
      28A     -0.535822    29A     -0.517613    30A     -0.510099
      31A     -0.496574    32A     -0.469595    33A     -0.435758
      34A     -0.402076

  @DF-RHF Final Energy:  -456.62537409111320

   => Energetics <=

    Nuclear Repulsion Energy =            413.3765190414562767
    One-Electron Energy =               -1443.1610876939569152
    Two-Electron Energy =                 573.1591945613873804
    Total Energy =                       -456.6253740911132581
  Basis Set: (AUG-CC-PVTZ AUX)
    Blend: AUG-CC-PVTZ-RI
    Molecular point group: c1

    Geometry (in Angstrom), charge = 0, multiplicity = 1:

       Center              X                  Y                   Z               Mass
    ------------   -----------------  -----------------  -----------------  -----------------
         O           -1.629888238232     1.371762589654    -0.082770240841    15.994914619570
         O            3.286313961768     0.876016889654    -0.039741640841    15.994914619570
         O            2.658989961768    -1.296129110346     0.082323359159    15.994914619570
         C           -2.543933538232    -0.898659110346     0.036185959159    12.000000000000
         C           -1.460066038232     0.154390889654    -0.010173640841    12.000000000000
         C           -3.961375038232    -0.227299110346    -0.021445640841    12.000000000000
         C           -0.070254038232    -0.387107110346     0.032095359159    12.000000000000
         C            0.989715961768     0.434534889654    -0.008158640841    12.000000000000
         C            2.361589961768    -0.114258110346     0.021661359159    12.000000000000
         H           -2.450656038232    -1.460039110346     0.944081359159     1.007825032230
         H           -2.427637038232    -1.560649110346    -0.800608640841     1.007825032230
         H           -4.108842038232     0.451538889654     0.821313359159     1.007825032230
         H           -4.737210038231    -0.996355110346     0.009962359159     1.007825032230
         H           -4.083634038232     0.354426889654    -0.937411640841     1.007825032230
         H            0.079521961768    -1.463048110346     0.095776359159     1.007825032230
         H            0.859455961768     1.510433889654    -0.069005640841     1.007825032230
         H            4.155650961768     0.424332889654    -0.023589640841     1.007825032230

  Basis Set: AUG-CC-PVTZ
    Blend: AUG-CC-PVTZ
  Basis Set: (AUG-CC-PVTZ AUX)
    Blend: AUG-CC-PVTZ-JKFIT
	 Reference Energy          =    -456.6253740911132013 [Eh]
	 Singles Energy            =      -0.0000000000000000 [Eh]
	 Same-Spin Energy          =      -0.4480523888484922 [Eh]
	 Opposite-Spin Energy      =      -1.4090747243817690 [Eh]
	 Correlation Energy        =      -1.8571271132302611 [Eh]
	 Total Energy              =    -458.4825012043434640 [Eh]

	 ================> DF-SCS-MP2 Energies <==================
	-----------------------------------------------------------
	 SCS Same-Spin Scale       =       0.3333333333333333 [-]
	 SCS Opposite-Spin Scale   =       1.2000000000000000 [-]
	 SCS Same-Spin Energy      =      -0.1493507962828307 [Eh]
	 SCS Opposite-Spin Energy  =      -1.6908896692581228 [Eh]
	 SCS Correlation Energy    =      -1.8402404655409534 [Eh]
	 SCS Total Energy          =    -458.4656145566541454 [Eh]
	-----------------------------------------------------------

  Dipole Moment: [D]
     X:    -0.3027      Y:    -1.1919      Z:     0.0609     Total:     1.2313

*** Psi4 exiting successfully. Buy a developer a beer!
