                               Psi4 1.3.2 release

  ==> Input File <==

--------------------------------------------------------------------------
#psi4
#
memory 32 gb

molecule  {
0 1
  O       -1.6636540     1.3623100    -0.0826750
  O        3.2950020     0.8732560    -0.0394660
  O        2.6676780    -1.2988900     0.0825990
  C       -2.5713650    -0.8630400     0.0337620
  C       -1.5060554     0.2087221    -0.0139217
  C       -3.9175586    -0.1587230    -0.0248203
  C       -0.0615660    -0.3898680     0.0323710
  C        0.9984040     0.4317740    -0.0078830
  C        2.3702780    -0.1170190     0.0219370
  H       -2.4419680    -1.4628000     0.9443570
  H       -2.4189490    -1.5634100    -0.8003330
  H       -4.1001540     0.4487780     0.8215890
  H       -4.7285220    -0.9991160     0.0102380
  H       -4.0749460     0.3516660    -0.9371360
  H        0.0882100    -1.4658090     0.0960520
  H        0.8681440     1.5076730    -0.0687300
  H        4.1643390     0.4215720    -0.0233140
units angstrom
no_reorient  #important for SAPT in psi4, default
symmetry c1  #important for SAPT in psi4, default
}

set PROPERTIES_ORIGIN ["COM"]
properties('MP2/aug-cc-pvtz', properties = ['dipole'])
--------------------------------------------------------------------------

    Molecular point group: c1
  Charge       = 0
  Multiplicity = 1
  Basis Set: AUG-CC-PVTZ
    Blend: AUG-CC-PVTZ
  Basis Set: (AUG-CC-PVTZ AUX)
    Blend: AUG-CC-PVTZ-JKFIT

    Orbital Energies [Eh]
    ---------------------

    Doubly Occupied:

       1A    -20.623305     2A    -20.568116     3A    -20.555849
       4A    -11.400154     5A    -11.347568     6A    -11.272243
       7A    -11.266156     8A    -11.253046     9A    -11.227397
      10A     -1.467648    11A     -1.439127    12A     -1.362683
      13A     -1.098706    14A     -1.068412    15A     -0.944218
      16A     -0.884511    17A     -0.789701    18A     -0.744584
      19A     -0.723128    20A     -0.708349    21A     -0.664709
      22A     -0.653132    23A     -0.651380    24A     -0.636681
      25A     -0.604294    26A     -0.570089    27A     -0.565083
      28A     -0.537970    29A     -0.517220    30A     -0.514589
      31A     -0.494621    32A     -0.466451    33A     -0.422300
      34A     -0.401525

  @DF-RHF Final Energy:  -456.62010027264387

   => Energetics <=

    Nuclear Repulsion Energy =            414.2510753391102867
    One-Electron Energy =               -1444.8524648098275520
    Two-Electron Energy =                 573.9812891980734548
    Total Energy =                       -456.6201002726438674
  Basis Set: (AUG-CC-PVTZ AUX)
    Blend: AUG-CC-PVTZ-RI
    Molecular point group: c1

    Geometry (in Angstrom), charge = 0, multiplicity = 1:

       Center              X                  Y                   Z               Mass
    ------------   -----------------  -----------------  -----------------  -----------------
         O           -1.661821969146     1.350274206108    -0.081955940923    15.994914619570
         O            3.296834030854     0.861220206108    -0.038746940923    15.994914619570
         O            2.669510030854    -1.310925793892     0.083318059077    15.994914619570
         C           -2.569532969146    -0.875075793892     0.034481059077    12.000000000000
         C           -1.504223369146     0.196686306108    -0.013202640923    12.000000000000
         C           -3.915726569146    -0.170758793892    -0.024101240923    12.000000000000
         C           -0.059733969146    -0.401903793892     0.033090059077    12.000000000000
         C            1.000236030854     0.419738206108    -0.007163940923    12.000000000000
         C            2.372110030854    -0.129054793892     0.022656059077    12.000000000000
         H           -2.440135969146    -1.474835793892     0.945076059077     1.007825032230
         H           -2.417116969146    -1.575445793892    -0.799613940923     1.007825032230
         H           -4.098321969146     0.436742206108     0.822308059077     1.007825032230
         H           -4.726689969146    -1.011151793892     0.010957059077     1.007825032230
         H           -4.073113969146     0.339630206108    -0.936416940923     1.007825032230
         H            0.090042030854    -1.477844793892     0.096771059077     1.007825032230
         H            0.869976030854     1.495637206108    -0.068010940923     1.007825032230
         H            4.166171030854     0.409536206108    -0.022594940923     1.007825032230

  Basis Set: AUG-CC-PVTZ
    Blend: AUG-CC-PVTZ
  Basis Set: (AUG-CC-PVTZ AUX)
    Blend: AUG-CC-PVTZ-JKFIT
	 Reference Energy          =    -456.6201002726438674 [Eh]
	 Singles Energy            =      -0.0000000000000000 [Eh]
	 Same-Spin Energy          =      -0.4465164163413931 [Eh]
	 Opposite-Spin Energy      =      -1.4053843625000293 [Eh]
	 Correlation Energy        =      -1.8519007788414223 [Eh]
	 Total Energy              =    -458.4720010514852788 [Eh]

	 ================> DF-SCS-MP2 Energies <==================
	-----------------------------------------------------------
	 SCS Same-Spin Scale       =       0.3333333333333333 [-]
	 SCS Opposite-Spin Scale   =       1.2000000000000000 [-]
	 SCS Same-Spin Energy      =      -0.1488388054471310 [Eh]
	 SCS Opposite-Spin Energy  =      -1.6864612350000352 [Eh]
	 SCS Correlation Energy    =      -1.8353000404471662 [Eh]
	 SCS Total Energy          =    -458.4554003130910473 [Eh]
	-----------------------------------------------------------

  Dipole Moment: [D]
     X:    -0.5846      Y:    -0.9568      Z:     0.0460     Total:     1.1222

*** Psi4 exiting successfully. Buy a developer a beer!
