                               Psi4 1.3.2 release

  ==> Input File <==

--------------------------------------------------------------------------
#psi4
#
memory 32 gb

molecule  {
0 1
  O       -1.6636540     1.3623100    -0.0826750
  O        3.2950020     0.8732560    -0.0394660
  O        2.6676780    -1.2988900     0.0825990
  C       -2.5713650    -0.8630400     0.0337620
  C       -1.4513780     0.1516300    -0.0098980
  C       -3.9526870    -0.2300600    -0.0211700
  C       -0.0615660    -0.3898680     0.0323710
  C        1.0400014     0.3752835    -0.0042989
  C        2.3702780    -0.1170190     0.0219370
  H       -2.4419680    -1.4628000     0.9443570
  H       -2.4189490    -1.5634100    -0.8003330
  H       -4.1001540     0.4487780     0.8215890
  H       -4.7285220    -0.9991160     0.0102380
  H       -4.0749460     0.3516660    -0.9371360
  H        0.1444122    -1.4564855     0.0959103
  H        0.8681440     1.5076730    -0.0687300
  H        4.1643390     0.4215720    -0.0233140
units angstrom
no_reorient  #important for SAPT in psi4, default
symmetry c1  #important for SAPT in psi4, default
}

set PROPERTIES_ORIGIN ["COM"]
properties('MP2/aug-cc-pvtz', properties = ['dipole'])
--------------------------------------------------------------------------

    Molecular point group: c1
  Charge       = 0
  Multiplicity = 1
  Basis Set: AUG-CC-PVTZ
    Blend: AUG-CC-PVTZ
  Basis Set: (AUG-CC-PVTZ AUX)
    Blend: AUG-CC-PVTZ-JKFIT

    Orbital Energies [Eh]
    ---------------------

    Doubly Occupied:

       1A    -20.627190     2A    -20.564384     3A    -20.559427
       4A    -11.401152     5A    -11.354231     6A    -11.278547
       7A    -11.273695     8A    -11.254114     9A    -11.226309
      10A     -1.472779    11A     -1.393394    12A     -1.367484
      13A     -1.112299    14A     -1.067878    15A     -0.964881
      16A     -0.892339    17A     -0.799537    18A     -0.739865
      19A     -0.724128    20A     -0.711295    21A     -0.668690
      22A     -0.645734    23A     -0.640540    24A     -0.637502
      25A     -0.609598    26A     -0.553029    27A     -0.541499
      28A     -0.539727    29A     -0.525783    30A     -0.502011
      31A     -0.496816    32A     -0.471421    33A     -0.439635
      34A     -0.403868

  @DF-RHF Final Energy:  -456.62041616017729

   => Energetics <=

    Nuclear Repulsion Energy =            414.0085095148838263
    One-Electron Energy =               -1444.3362894438378135
    Two-Electron Energy =                 573.7073637687767587
    Total Energy =                       -456.6204161601772284
  Basis Set: (AUG-CC-PVTZ AUX)
    Blend: AUG-CC-PVTZ-RI
    Molecular point group: c1

    Geometry (in Angstrom), charge = 0, multiplicity = 1:

       Center              X                  Y                   Z               Mass
    ------------   -----------------  -----------------  -----------------  -----------------
         O           -1.667994676511     1.367530626056    -0.083009882277    15.994914619570
         O            3.290661323489     0.878476626056    -0.039800882277    15.994914619570
         O            2.663337323489    -1.293669373944     0.082264117723    15.994914619570
         C           -2.575705676511    -0.857819373944     0.033427117723    12.000000000000
         C           -1.455718676511     0.156850626056    -0.010232882277    12.000000000000
         C           -3.957027676511    -0.224839373944    -0.021504882277    12.000000000000
         C           -0.065906676511    -0.384647373944     0.032036117723    12.000000000000
         C            1.035660723489     0.380504126056    -0.004633782277    12.000000000000
         C            2.365937323489    -0.111798373944     0.021602117723    12.000000000000
         H           -2.446308676511    -1.457579373944     0.944022117723     1.007825032230
         H           -2.423289676511    -1.558189373944    -0.800667882277     1.007825032230
         H           -4.104494676511     0.453998626056     0.821254117723     1.007825032230
         H           -4.732862676511    -0.993895373944     0.009903117723     1.007825032230
         H           -4.079286676511     0.356886626056    -0.937470882277     1.007825032230
         H            0.140071523489    -1.451264873944     0.095575417723     1.007825032230
         H            0.863803323489     1.512893626056    -0.069064882277     1.007825032230
         H            4.159998323489     0.426792626056    -0.023648882277     1.007825032230

  Basis Set: AUG-CC-PVTZ
    Blend: AUG-CC-PVTZ
  Basis Set: (AUG-CC-PVTZ AUX)
    Blend: AUG-CC-PVTZ-JKFIT
	 Reference Energy          =    -456.6204161601772853 [Eh]
	 Singles Energy            =      -0.0000000000000000 [Eh]
	 Same-Spin Energy          =      -0.4491746161190550 [Eh]
	 Opposite-Spin Energy      =      -1.4104789476260899 [Eh]
	 Correlation Energy        =      -1.8596535637451450 [Eh]
	 Total Energy              =    -458.4800697239224405 [Eh]

	 ================> DF-SCS-MP2 Energies <==================
	-----------------------------------------------------------
	 SCS Same-Spin Scale       =       0.3333333333333333 [-]
	 SCS Opposite-Spin Scale   =       1.2000000000000000 [-]
	 SCS Same-Spin Energy      =      -0.1497248720396850 [Eh]
	 SCS Opposite-Spin Energy  =      -1.6925747371513078 [Eh]
	 SCS Correlation Energy    =      -1.8422996091909929 [Eh]
	 SCS Total Energy          =    -458.4627157693682875 [Eh]
	-----------------------------------------------------------

  Dipole Moment: [D]
     X:    -0.2835      Y:    -1.1886      Z:     0.0612     Total:     1.2235

*** Psi4 exiting successfully. Buy a developer a beer!
