                               Psi4 1.3.2 release

  ==> Input File <==

--------------------------------------------------------------------------
#psi4
#
memory 32 gb

molecule  {
0 1
  O       -1.6636540     1.3623100    -0.0826750
  O        3.2950020     0.8732560    -0.0394660
  O        2.6676780    -1.2988900     0.0825990
  C       -2.5713650    -0.8630400     0.0337620
  C       -1.3997704     0.0917568    -0.0057546
  C       -3.9840292    -0.3031320    -0.0173692
  C       -0.0615660    -0.3898680     0.0323710
  C        0.9984040     0.4317740    -0.0078830
  C        2.3702780    -0.1170190     0.0219370
  H       -2.4419680    -1.4628000     0.9443570
  H       -2.4189490    -1.5634100    -0.8003330
  H       -4.1001540     0.4487780     0.8215890
  H       -4.7285220    -0.9991160     0.0102380
  H       -4.0749460     0.3516660    -0.9371360
  H        0.0882100    -1.4658090     0.0960520
  H        0.8681440     1.5076730    -0.0687300
  H        4.1643390     0.4215720    -0.0233140
units angstrom
no_reorient  #important for SAPT in psi4, default
symmetry c1  #important for SAPT in psi4, default
}

set PROPERTIES_ORIGIN ["COM"]
properties('MP2/aug-cc-pvtz', properties = ['dipole'])
--------------------------------------------------------------------------

    Molecular point group: c1
  Charge       = 0
  Multiplicity = 1
  Basis Set: AUG-CC-PVTZ
    Blend: AUG-CC-PVTZ
  Basis Set: (AUG-CC-PVTZ AUX)
    Blend: AUG-CC-PVTZ-JKFIT

    Orbital Energies [Eh]
    ---------------------

    Doubly Occupied:

       1A    -20.631799     2A    -20.566824     3A    -20.553929
       4A    -11.410562     5A    -11.353009     6A    -11.286256
       7A    -11.276976     8A    -11.254254     9A    -11.225729
      10A     -1.476731    11A     -1.372260    12A     -1.346869
      13A     -1.120142    14A     -1.064775    15A     -0.971895
      16A     -0.892288    17A     -0.809821    18A     -0.750849
      19A     -0.717814    20A     -0.714535    21A     -0.662824
      22A     -0.646424    23A     -0.634873    24A     -0.633707
      25A     -0.607428    26A     -0.570017    27A     -0.558761
      28A     -0.521459    29A     -0.511852    30A     -0.500943
      31A     -0.480110    32A     -0.476515    33A     -0.438441
      34A     -0.402628

  @DF-RHF Final Energy:  -456.60247346817692

   => Energetics <=

    Nuclear Repulsion Energy =            412.8407004231553969
    One-Electron Energy =               -1441.9997526314348306
    Two-Electron Energy =                 572.5565787401025091
    Total Energy =                       -456.6024734681769814
  Basis Set: (AUG-CC-PVTZ AUX)
    Blend: AUG-CC-PVTZ-RI
    Molecular point group: c1

    Geometry (in Angstrom), charge = 0, multiplicity = 1:

       Center              X                  Y                   Z               Mass
    ------------   -----------------  -----------------  -----------------  -----------------
         O           -1.665553189058     1.374768986703    -0.083419605799    15.994914619570
         O            3.293102810942     0.885714986703    -0.040210605799    15.994914619570
         O            2.665778810942    -1.286431013297     0.081854394201    15.994914619570
         C           -2.573264189058    -0.850581013297     0.033017394201    12.000000000000
         C           -1.401669589058     0.104215786703    -0.006499205799    12.000000000000
         C           -3.985928389058    -0.290673013297    -0.018113805799    12.000000000000
         C           -0.063465189058    -0.377409013297     0.031626394201    12.000000000000
         C            0.996504810942     0.444232986703    -0.008627605799    12.000000000000
         C            2.368378810942    -0.104560013297     0.021192394201    12.000000000000
         H           -2.443867189058    -1.450341013297     0.943612394201     1.007825032230
         H           -2.420848189058    -1.550951013297    -0.801077605799     1.007825032230
         H           -4.102053189058     0.461236986703     0.820844394201     1.007825032230
         H           -4.730421189058    -0.986657013297     0.009493394201     1.007825032230
         H           -4.076845189058     0.364124986703    -0.937880605799     1.007825032230
         H            0.086310810942    -1.453350013297     0.095307394201     1.007825032230
         H            0.866244810942     1.520131986703    -0.069474605799     1.007825032230
         H            4.162439810942     0.434030986703    -0.024058605799     1.007825032230

  Basis Set: AUG-CC-PVTZ
    Blend: AUG-CC-PVTZ
  Basis Set: (AUG-CC-PVTZ AUX)
    Blend: AUG-CC-PVTZ-JKFIT
	 Reference Energy          =    -456.6024734681769246 [Eh]
	 Singles Energy            =      -0.0000000000000000 [Eh]
	 Same-Spin Energy          =      -0.4511258478864798 [Eh]
	 Opposite-Spin Energy      =      -1.4150003091341188 [Eh]
	 Correlation Energy        =      -1.8661261570205987 [Eh]
	 Total Energy              =    -458.4685996251974984 [Eh]

	 ================> DF-SCS-MP2 Energies <==================
	-----------------------------------------------------------
	 SCS Same-Spin Scale       =       0.3333333333333333 [-]
	 SCS Opposite-Spin Scale   =       1.2000000000000000 [-]
	 SCS Same-Spin Energy      =      -0.1503752826288266 [Eh]
	 SCS Opposite-Spin Energy  =      -1.6980003709609426 [Eh]
	 SCS Correlation Energy    =      -1.8483756535897693 [Eh]
	 SCS Total Energy          =    -458.4508491217666801 [Eh]
	-----------------------------------------------------------

  Dipole Moment: [D]
     X:     0.1475      Y:    -1.3463      Z:     0.0728     Total:     1.3563

*** Psi4 exiting successfully. Buy a developer a beer!
