                               Psi4 1.4a3.dev225

  ==> Input File <==

--------------------------------------------------------------------------
#psi4
#
memory 32 gb

molecule  {
0 1
  O       -1.5457390    -1.4151030    -0.0000120
  O        3.4055420    -0.8324430     0.0000000
  O        2.7346890     1.3362110     0.0000030
  C       -2.4962220     0.7973420     0.0000070
  C       -1.3569730    -0.1975560    -0.0000120
  C       -3.8659970     0.1363490     0.0000100
  C        0.0231420     0.3709680    -0.0000240
  C        1.1002740    -0.4324720     0.0000170
  C        2.4625110     0.1452670     0.0000070
  H       -2.3684100     1.4519690    -0.8733630
  H       -2.3683970     1.4519470     0.8733920
  H       -3.9887950    -0.4970190    -0.8807080
  H       -4.6559460     0.8916380     0.0000190
  H       -3.9887860    -0.4970320     0.8807180
  H        0.1589340     1.4510060    -0.0000590
  H        0.9863010    -1.5124980     0.0000520
  H        4.2511294    -0.3781829    -0.0000088
units angstrom
no_reorient  #important for SAPT in psi4, default
symmetry c1  #important for SAPT in psi4, default
}

set PROPERTIES_ORIGIN ["COM"]
properties('MP2/aug-cc-pvtz', properties = ['dipole'])
--------------------------------------------------------------------------

    Molecular point group: c1
  Charge       = 0
  Multiplicity = 1
  Basis Set: AUG-CC-PVTZ
    Blend: AUG-CC-PVTZ
  Basis Set: (AUG-CC-PVTZ AUX)
    Blend: AUG-CC-PVTZ-JKFIT

    Orbital Energies [Eh]
    ---------------------

    Doubly Occupied:

       1A    -20.626649     2A    -20.562361     3A    -20.560936
       4A    -11.406782     5A    -11.350491     6A    -11.277358
       7A    -11.275709     8A    -11.252750     9A    -11.225242
      10A     -1.474136    11A     -1.390281    12A     -1.369237
      13A     -1.108600    14A     -1.065603    15A     -0.957922
      16A     -0.888837    17A     -0.800974    18A     -0.747051
      19A     -0.719188    20A     -0.713987    21A     -0.661499
      22A     -0.643890    23A     -0.640852    24A     -0.639139
      25A     -0.607933    26A     -0.570214    27A     -0.540042
      28A     -0.539348    29A     -0.524505    30A     -0.501347
      31A     -0.496442    32A     -0.471770    33A     -0.435642
      34A     -0.403830

  @DF-RHF Final Energy:  -456.62868221855700

   => Energetics <=

    Nuclear Repulsion Energy =            413.2818127611030832
    One-Electron Energy =               -1442.9199000755500037
    Two-Electron Energy =                 573.0094050958899743
    Total Energy =                       -456.6286822185569463
  Basis Set: (AUG-CC-PVTZ AUX)
    Blend: AUG-CC-PVTZ-RI
    Molecular point group: c1

    Geometry (in Angstrom), charge = 0, multiplicity = 1:

       Center              X                  Y                   Z               Mass
    ------------   -----------------  -----------------  -----------------  -----------------
         O           -1.638061578370    -1.396690747484    -0.000011676495    15.994914619570
         O            3.313219421630    -0.814030747484     0.000000323505    15.994914619570
         O            2.642366421630     1.354623252516     0.000003323505    15.994914619570
         C           -2.588544578370     0.815754252516     0.000007323505    12.000000000000
         C           -1.449295578370    -0.179143747484    -0.000011676495    12.000000000000
         C           -3.958319578370     0.154761252516     0.000010323505    12.000000000000
         C           -0.069180578370     0.389380252516    -0.000023676495    12.000000000000
         C            1.007951421630    -0.414059747484     0.000017323505    12.000000000000
         C            2.370188421630     0.163679252516     0.000007323505    12.000000000000
         H           -2.460732578370     1.470381252516    -0.873362676495     1.007825032230
         H           -2.460719578370     1.470359252516     0.873392323505     1.007825032230
         H           -4.081117578370    -0.478606747484    -0.880707676495     1.007825032230
         H           -4.748268578370     0.910050252516     0.000019323505     1.007825032230
         H           -4.081108578370    -0.478619747484     0.880718323505     1.007825032230
         H            0.066611421630     1.469418252516    -0.000058676495     1.007825032230
         H            0.893978421630    -1.494085747484     0.000052323505     1.007825032230
         H            4.158806821630    -0.359770647484    -0.000008476495     1.007825032230

  Basis Set: AUG-CC-PVTZ
    Blend: AUG-CC-PVTZ
  Basis Set: (AUG-CC-PVTZ AUX)
    Blend: AUG-CC-PVTZ-JKFIT
	 Reference Energy          =    -456.6286822185570031 [Eh]
	 Singles Energy            =      -0.0000000000000000 [Eh]
	 Same-Spin Energy          =      -0.4481105201277019 [Eh]
	 Opposite-Spin Energy      =      -1.4088040740085352 [Eh]
	 Correlation Energy        =      -1.8569145941362371 [Eh]
	 Total Energy              =    -458.4855968126932453 [Eh]

	 ================> DF-SCS-MP2 Energies <==================
	-----------------------------------------------------------
	 SCS Same-Spin Scale       =       0.3333333333333333 [-]
	 SCS Opposite-Spin Scale   =       1.2000000000000000 [-]
	 SCS Same-Spin Energy      =      -0.1493701733759006 [Eh]
	 SCS Opposite-Spin Energy  =      -1.6905648888102423 [Eh]
	 SCS Correlation Energy    =      -1.8399350621861428 [Eh]
	 SCS Total Energy          =    -458.4686172807431603 [Eh]
	-----------------------------------------------------------

  Dipole Moment: [D]
     X:    -0.2128      Y:     1.1739      Z:     0.0000     Total:     1.1931

*** Psi4 exiting successfully. Buy a developer a beer!
