                               Psi4 1.3.2 release

  ==> Input File <==

--------------------------------------------------------------------------
#psi4
#
memory 32 gb

molecule  {
0 1
  O       -1.6636540     1.3623100    -0.0826750
  O        3.2950020     0.8732560    -0.0394660
  O        2.6676780    -1.2988900     0.0825990
  C       -2.5713650    -0.8630400     0.0337620
  C       -1.4513780     0.1516300    -0.0098980
  C       -3.9526870    -0.2300600    -0.0211700
  C       -0.0615660    -0.3898680     0.0323710
  C        0.9984040     0.4317740    -0.0078830
  C        2.5066386     0.0290078     0.0128825
  H       -2.4419680    -1.4628000     0.9443570
  H       -2.4189490    -1.5634100    -0.8003330
  H       -4.1001540     0.4487780     0.8215890
  H       -4.7285220    -0.9991160     0.0102380
  H       -4.0749460     0.3516660    -0.9371360
  H        0.0882100    -1.4658090     0.0960520
  H        0.8681440     1.5076730    -0.0687300
  H        4.1643390     0.4215720    -0.0233140
units angstrom
no_reorient  #important for SAPT in psi4, default
symmetry c1  #important for SAPT in psi4, default
}

set PROPERTIES_ORIGIN ["COM"]
properties('MP2/aug-cc-pvtz', properties = ['dipole'])
--------------------------------------------------------------------------

    Molecular point group: c1
  Charge       = 0
  Multiplicity = 1
  Basis Set: AUG-CC-PVTZ
    Blend: AUG-CC-PVTZ
  Basis Set: (AUG-CC-PVTZ AUX)
    Blend: AUG-CC-PVTZ-JKFIT

    Orbital Energies [Eh]
    ---------------------

    Doubly Occupied:

       1A    -20.686704     2A    -20.552407     3A    -20.529344
       4A    -11.412034     5A    -11.343380     6A    -11.275216
       7A    -11.265012     8A    -11.247013     9A    -11.220981
      10A     -1.600263    11A     -1.383150    12A     -1.299209
      13A     -1.092126    14A     -1.057720    15A     -0.971520
      16A     -0.909668    17A     -0.830786    18A     -0.771516
      19A     -0.734076    20A     -0.718607    21A     -0.708361
      22A     -0.660595    23A     -0.636227    24A     -0.635506
      25A     -0.583892    26A     -0.536165    27A     -0.534468
      28A     -0.528539    29A     -0.518281    30A     -0.493636
      31A     -0.460903    32A     -0.438183    33A     -0.427901
      34A     -0.390708

  @DF-RHF Final Energy:  -456.56459625035461

   => Energetics <=

    Nuclear Repulsion Energy =            413.2721103609549118
    One-Electron Energy =               -1442.7652203194099911
    Two-Electron Energy =                 572.9285137081004677
    Total Energy =                       -456.5645962503546116
  Basis Set: (AUG-CC-PVTZ AUX)
    Blend: AUG-CC-PVTZ-RI
    Molecular point group: c1

    Geometry (in Angstrom), charge = 0, multiplicity = 1:

       Center              X                  Y                   Z               Mass
    ------------   -----------------  -----------------  -----------------  -----------------
         O           -1.676433089845     1.348625031723    -0.081826566901    15.994914619570
         O            3.282222910155     0.859571031723    -0.038617566901    15.994914619570
         O            2.654898910155    -1.312574968277     0.083447433099    15.994914619570
         C           -2.584144089845    -0.876724968277     0.034610433099    12.000000000000
         C           -1.464157089845     0.137945031723    -0.009049566901    12.000000000000
         C           -3.965466089845    -0.243744968277    -0.020321566901    12.000000000000
         C           -0.074345089845    -0.403552968277     0.033219433099    12.000000000000
         C            0.985624910155     0.418089031723    -0.007034566901    12.000000000000
         C            2.493859510155     0.015322831723     0.013730933099    12.000000000000
         H           -2.454747089845    -1.476484968277     0.945205433099     1.007825032230
         H           -2.431728089845    -1.577094968277    -0.799484566901     1.007825032230
         H           -4.112933089845     0.435093031723     0.822437433099     1.007825032230
         H           -4.741301089845    -1.012800968277     0.011086433099     1.007825032230
         H           -4.087725089845     0.337981031723    -0.936287566901     1.007825032230
         H            0.075430910155    -1.479493968277     0.096900433099     1.007825032230
         H            0.855364910155     1.493988031723    -0.067881566901     1.007825032230
         H            4.151559910155     0.407887031723    -0.022465566901     1.007825032230

  Basis Set: AUG-CC-PVTZ
    Blend: AUG-CC-PVTZ
  Basis Set: (AUG-CC-PVTZ AUX)
    Blend: AUG-CC-PVTZ-JKFIT
	 Reference Energy          =    -456.5645962503546116 [Eh]
	 Singles Energy            =      -0.0000000000000000 [Eh]
	 Same-Spin Energy          =      -0.4491506828556507 [Eh]
	 Opposite-Spin Energy      =      -1.4098152348823376 [Eh]
	 Correlation Energy        =      -1.8589659177379882 [Eh]
	 Total Energy              =    -458.4235621680925874 [Eh]

	 ================> DF-SCS-MP2 Energies <==================
	-----------------------------------------------------------
	 SCS Same-Spin Scale       =       0.3333333333333333 [-]
	 SCS Opposite-Spin Scale   =       1.2000000000000000 [-]
	 SCS Same-Spin Energy      =      -0.1497168942852169 [Eh]
	 SCS Opposite-Spin Energy  =      -1.6917782818588052 [Eh]
	 SCS Correlation Energy    =      -1.8414951761440221 [Eh]
	 SCS Total Energy          =    -458.4060914264986195 [Eh]
	-----------------------------------------------------------

  Dipole Moment: [D]
     X:     1.1258      Y:     0.1128      Z:    -0.0138     Total:     1.1315

*** Psi4 exiting successfully. Buy a developer a beer!
