                               Psi4 1.3.2 release

  ==> Input File <==

--------------------------------------------------------------------------
#psi4
#
memory 32 gb

molecule  {
0 1
  O       -1.6636540     1.3623100    -0.0826750
  O        3.2950020     0.8732560    -0.0394660
  O        2.6676780    -1.2988900     0.0825990
  C       -2.5713650    -0.8630400     0.0337620
  C       -1.4513780     0.1516300    -0.0098980
  C       -3.9526870    -0.2300600    -0.0211700
  C       -0.0615660    -0.3898680     0.0323710
  C        0.9984040     0.4317740    -0.0078830
  C        2.3702780    -0.1170190     0.0219370
  H       -2.4419680    -1.4628000     0.9443570
  H       -2.4189490    -1.5634100    -0.8003330
  H       -4.1001540     0.4487780     0.8215890
  H       -4.7285220    -0.9991160     0.0102380
  H       -4.0749460     0.3516660    -0.9371360
  H        0.0882100    -1.4658090     0.0960520
  H        0.8681440     1.5076730    -0.0687300
  H        4.1643390     0.4215720    -0.0233140
units angstrom
no_reorient  #important for SAPT in psi4, default
symmetry c1  #important for SAPT in psi4, default
}

set PROPERTIES_ORIGIN ["COM"]
properties('MP2/aug-cc-pvtz', properties = ['dipole'])
--------------------------------------------------------------------------

    Molecular point group: c1
  Charge       = 0
  Multiplicity = 1
  Basis Set: AUG-CC-PVTZ
    Blend: AUG-CC-PVTZ
  Basis Set: (AUG-CC-PVTZ AUX)
    Blend: AUG-CC-PVTZ-JKFIT

    Orbital Energies [Eh]
    ---------------------

    Doubly Occupied:

       1A    -20.627606     2A    -20.561366     3A    -20.560696
       4A    -11.405449     5A    -11.349971     6A    -11.276938
       7A    -11.275266     8A    -11.252508     9A    -11.225181
      10A     -1.472240    11A     -1.390626    12A     -1.367513
      13A     -1.109093    14A     -1.065692    15A     -0.957268
      16A     -0.887586    17A     -0.799005    18A     -0.747011
      19A     -0.718406    20A     -0.712945    21A     -0.661444
      22A     -0.643944    23A     -0.640853    24A     -0.639123
      25A     -0.606844    26A     -0.570309    27A     -0.540051
      28A     -0.539336    29A     -0.524421    30A     -0.500933
      31A     -0.496063    32A     -0.471226    33A     -0.435355
      34A     -0.404248

  @DF-RHF Final Energy:  -456.62836903112031

   => Energetics <=

    Nuclear Repulsion Energy =            413.4681559957645050
    One-Electron Energy =               -1443.3200194845908300
    Two-Electron Energy =                 573.2234944577061242
    Total Energy =                       -456.6283690311203145
  Basis Set: (AUG-CC-PVTZ AUX)
    Blend: AUG-CC-PVTZ-RI
    Molecular point group: c1

    Geometry (in Angstrom), charge = 0, multiplicity = 1:

       Center              X                  Y                   Z               Mass
    ------------   -----------------  -----------------  -----------------  -----------------
         O           -1.663654010268     1.362309982489    -0.082675112419    15.994914619570
         O            3.295001989732     0.873255982489    -0.039466112419    15.994914619570
         O            2.667677989732    -1.298890017511     0.082598887581    15.994914619570
         C           -2.571365010268    -0.863040017511     0.033761887581    12.000000000000
         C           -1.451378010268     0.151629982489    -0.009898112419    12.000000000000
         C           -3.952687010268    -0.230060017511    -0.021170112419    12.000000000000
         C           -0.061566010268    -0.389868017511     0.032370887581    12.000000000000
         C            0.998403989732     0.431773982489    -0.007883112419    12.000000000000
         C            2.370277989732    -0.117019017511     0.021936887581    12.000000000000
         H           -2.441968010268    -1.462800017511     0.944356887581     1.007825032230
         H           -2.418949010268    -1.563410017511    -0.800333112419     1.007825032230
         H           -4.100154010268     0.448777982489     0.821588887581     1.007825032230
         H           -4.728522010268    -0.999116017511     0.010237887581     1.007825032230
         H           -4.074946010268     0.351665982489    -0.937136112419     1.007825032230
         H            0.088209989732    -1.465809017511     0.096051887581     1.007825032230
         H            0.868143989732     1.507672982489    -0.068730112419     1.007825032230
         H            4.164338989732     0.421571982489    -0.023314112419     1.007825032230

  Basis Set: AUG-CC-PVTZ
    Blend: AUG-CC-PVTZ
  Basis Set: (AUG-CC-PVTZ AUX)
    Blend: AUG-CC-PVTZ-JKFIT
	 Reference Energy          =    -456.6283690311203145 [Eh]
	 Singles Energy            =      -0.0000000000000000 [Eh]
	 Same-Spin Energy          =      -0.4482752222582728 [Eh]
	 Opposite-Spin Energy      =      -1.4090873698975108 [Eh]
	 Correlation Energy        =      -1.8573625921557837 [Eh]
	 Total Energy              =    -458.4857316232760809 [Eh]

	 ================> DF-SCS-MP2 Energies <==================
	-----------------------------------------------------------
	 SCS Same-Spin Scale       =       0.3333333333333333 [-]
	 SCS Opposite-Spin Scale   =       1.2000000000000000 [-]
	 SCS Same-Spin Energy      =      -0.1494250740860909 [Eh]
	 SCS Opposite-Spin Energy  =      -1.6909048438770129 [Eh]
	 SCS Correlation Energy    =      -1.8403299179631039 [Eh]
	 SCS Total Energy          =    -458.4686989490834321 [Eh]
	-----------------------------------------------------------

  Dipole Moment: [D]
     X:    -0.1740      Y:    -1.1822      Z:     0.0615     Total:     1.1965

*** Psi4 exiting successfully. Buy a developer a beer!
