                               Psi4 1.3.2 release

  ==> Input File <==

--------------------------------------------------------------------------
#psi4
#
memory 32 gb

molecule  {
0 1
  O       -1.6636540     1.3623100    -0.0826750
  O        3.2950020     0.8732560    -0.0394660
  O        2.6676780    -1.2988900     0.0825990
  C       -2.5713650    -0.8630400     0.0337620
  C       -1.4513780     0.1516300    -0.0098980
  C       -3.9526870    -0.2300600    -0.0211700
  C       -0.0615660    -0.3898680     0.0323710
  C        0.9984040     0.4317740    -0.0078830
  C        2.3196229    -0.0673071     0.0197459
  H       -2.4419680    -1.4628000     0.9443570
  H       -2.4189490    -1.5634100    -0.8003330
  H       -4.1001540     0.4487780     0.8215890
  H       -4.7285220    -0.9991160     0.0102380
  H       -4.0749460     0.3516660    -0.9371360
  H        0.0882100    -1.4658090     0.0960520
  H        0.8681440     1.5076730    -0.0687300
  H        4.1867974     0.4676141    -0.0259803
units angstrom
no_reorient  #important for SAPT in psi4, default
symmetry c1  #important for SAPT in psi4, default
}

set PROPERTIES_ORIGIN ["COM"]
properties('MP2/aug-cc-pvtz', properties = ['dipole'])
--------------------------------------------------------------------------

    Molecular point group: c1
  Charge       = 0
  Multiplicity = 1
  Basis Set: AUG-CC-PVTZ
    Blend: AUG-CC-PVTZ
  Basis Set: (AUG-CC-PVTZ AUX)
    Blend: AUG-CC-PVTZ-JKFIT

    Orbital Energies [Eh]
    ---------------------

    Doubly Occupied:

       1A    -20.625071     2A    -20.566614     3A    -20.549417
       4A    -11.407016     5A    -11.354800     6A    -11.286557
       7A    -11.275107     8A    -11.255920     9A    -11.227765
      10A     -1.457947    11A     -1.395889    12A     -1.329312
      13A     -1.120816    14A     -1.070835    15A     -0.971214
      16A     -0.894578    17A     -0.805895    18A     -0.751246
      19A     -0.725411    20A     -0.699041    21A     -0.662863
      22A     -0.645515    23A     -0.645046    24A     -0.631273
      25A     -0.599228    26A     -0.565072    27A     -0.543701
      28A     -0.542426    29A     -0.527436    30A     -0.502405
      31A     -0.481187    32A     -0.461610    33A     -0.440850
      34A     -0.405096

  @DF-RHF Final Energy:  -456.61320932745764

   => Energetics <=

    Nuclear Repulsion Energy =            413.3829588240282646
    One-Electron Energy =               -1443.1440194779763715
    Two-Electron Energy =                 573.1478513264904677
    Total Energy =                       -456.6132093274576391
  Basis Set: (AUG-CC-PVTZ AUX)
    Blend: AUG-CC-PVTZ-RI
    Molecular point group: c1

    Geometry (in Angstrom), charge = 0, multiplicity = 1:

       Center              X                  Y                   Z               Mass
    ------------   -----------------  -----------------  -----------------  -----------------
         O           -1.659083614324     1.357288830466    -0.082448787039    15.994914619570
         O            3.299572385676     0.868234830466    -0.039239787039    15.994914619570
         O            2.672248385676    -1.303911169534     0.082825212961    15.994914619570
         C           -2.566794614324    -0.868061169534     0.033988212961    12.000000000000
         C           -1.446807614324     0.146608830466    -0.009671787039    12.000000000000
         C           -3.948116614324    -0.235081169534    -0.020943787039    12.000000000000
         C           -0.056995614324    -0.394889169534     0.032597212961    12.000000000000
         C            1.002974385676     0.426752830466    -0.007656787039    12.000000000000
         C            2.324193285676    -0.072328269534     0.019972112961    12.000000000000
         H           -2.437397614324    -1.467821169534     0.944583212961     1.007825032230
         H           -2.414378614324    -1.568431169534    -0.800106787039     1.007825032230
         H           -4.095583614324     0.443756830466     0.821815212961     1.007825032230
         H           -4.723951614324    -1.004137169534     0.010464212961     1.007825032230
         H           -4.070375614324     0.346644830466    -0.936909787039     1.007825032230
         H            0.092780385676    -1.470830169534     0.096278212961     1.007825032230
         H            0.872714385676     1.502651830466    -0.068503787039     1.007825032230
         H            4.191367785676     0.462592930466    -0.025754087039     1.007825032230

  Basis Set: AUG-CC-PVTZ
    Blend: AUG-CC-PVTZ
  Basis Set: (AUG-CC-PVTZ AUX)
    Blend: AUG-CC-PVTZ-JKFIT
	 Reference Energy          =    -456.6132093274576391 [Eh]
	 Singles Energy            =      -0.0000000000000000 [Eh]
	 Same-Spin Energy          =      -0.4500981891766084 [Eh]
	 Opposite-Spin Energy      =      -1.4126329754605762 [Eh]
	 Correlation Energy        =      -1.8627311646371847 [Eh]
	 Total Energy              =    -458.4759404920948214 [Eh]

	 ================> DF-SCS-MP2 Energies <==================
	-----------------------------------------------------------
	 SCS Same-Spin Scale       =       0.3333333333333333 [-]
	 SCS Opposite-Spin Scale   =       1.2000000000000000 [-]
	 SCS Same-Spin Energy      =      -0.1500327297255361 [Eh]
	 SCS Opposite-Spin Energy  =      -1.6951595705526914 [Eh]
	 SCS Correlation Energy    =      -1.8451923002782276 [Eh]
	 SCS Total Energy          =    -458.4584016277358387 [Eh]
	-----------------------------------------------------------

  Dipole Moment: [D]
     X:    -0.5160      Y:    -0.8894      Z:     0.0445     Total:     1.0292

*** Psi4 exiting successfully. Buy a developer a beer!
