                               Psi4 1.3.2 release

  ==> Input File <==

--------------------------------------------------------------------------
#psi4
#
memory 32 gb

molecule  {
0 1
  O       -1.6636540     1.3623100    -0.0826750
  O        3.2950020     0.8732560    -0.0394660
  O        2.6676780    -1.2988900     0.0825990
  C       -2.5713650    -0.8630400     0.0337620
  C       -1.4513780     0.1516300    -0.0098980
  C       -3.9526870    -0.2300600    -0.0211700
  C       -0.0615660    -0.3898680     0.0323710
  C        1.0774040     0.4930113    -0.0108831
  C        2.3702780    -0.1170190     0.0219370
  H       -2.4419680    -1.4628000     0.9443570
  H       -2.4189490    -1.5634100    -0.8003330
  H       -4.1001540     0.4487780     0.8215890
  H       -4.7285220    -0.9991160     0.0102380
  H       -4.0749460     0.3516660    -0.9371360
  H        0.0882100    -1.4658090     0.0960520
  H        0.8681440     1.5076730    -0.0687300
  H        4.1643390     0.4215720    -0.0233140
units angstrom
no_reorient  #important for SAPT in psi4, default
symmetry c1  #important for SAPT in psi4, default
}

set PROPERTIES_ORIGIN ["COM"]
properties('MP2/aug-cc-pvtz', properties = ['dipole'])
--------------------------------------------------------------------------

    Molecular point group: c1
  Charge       = 0
  Multiplicity = 1
  Basis Set: AUG-CC-PVTZ
    Blend: AUG-CC-PVTZ
  Basis Set: (AUG-CC-PVTZ AUX)
    Blend: AUG-CC-PVTZ-JKFIT

    Orbital Energies [Eh]
    ---------------------

    Doubly Occupied:

       1A    -20.622435     2A    -20.563889     3A    -20.559537
       4A    -11.401589     5A    -11.352595     6A    -11.294981
       7A    -11.281206     8A    -11.254368     9A    -11.226589
      10A     -1.470810    11A     -1.393115    12A     -1.365332
      13A     -1.098909    14A     -1.066393    15A     -0.967187
      16A     -0.885945    17A     -0.799498    18A     -0.753620
      19A     -0.720524    20A     -0.711201    21A     -0.660160
      22A     -0.644558    23A     -0.639448    24A     -0.636675
      25A     -0.603760    26A     -0.579797    27A     -0.540255
      28A     -0.538673    29A     -0.525987    30A     -0.500655
      31A     -0.495621    32A     -0.473730    33A     -0.438006
      34A     -0.386567

  @DF-RHF Final Energy:  -456.60872826461593

   => Energetics <=

    Nuclear Repulsion Energy =            412.7946957108406991
    One-Electron Energy =               -1441.8996196165580841
    Two-Electron Energy =                 572.4961956411015080
    Total Energy =                       -456.6087282646159338
  Basis Set: (AUG-CC-PVTZ AUX)
    Blend: AUG-CC-PVTZ-RI
    Molecular point group: c1

    Geometry (in Angstrom), charge = 0, multiplicity = 1:

       Center              X                  Y                   Z               Mass
    ------------   -----------------  -----------------  -----------------  -----------------
         O           -1.671057521888     1.356571108285    -0.082393957037    15.994914619570
         O            3.287598478112     0.867517108285    -0.039184957037    15.994914619570
         O            2.660274478112    -1.304628891715     0.082880042963    15.994914619570
         C           -2.578768521888    -0.868778891715     0.034043042963    12.000000000000
         C           -1.458781521888     0.145891108285    -0.009616957037    12.000000000000
         C           -3.960090521888    -0.235798891715    -0.020888957037    12.000000000000
         C           -0.068969521888    -0.395606891715     0.032652042963    12.000000000000
         C            1.070000478112     0.487272408285    -0.010602057037    12.000000000000
         C            2.362874478112    -0.122757891715     0.022218042963    12.000000000000
         H           -2.449371521888    -1.468538891715     0.944638042963     1.007825032230
         H           -2.426352521888    -1.569148891715    -0.800051957037     1.007825032230
         H           -4.107557521888     0.443039108285     0.821870042963     1.007825032230
         H           -4.735925521888    -1.004854891715     0.010519042963     1.007825032230
         H           -4.082349521888     0.345927108285    -0.936854957037     1.007825032230
         H            0.080806478112    -1.471547891715     0.096333042963     1.007825032230
         H            0.860740478112     1.501934108285    -0.068448957037     1.007825032230
         H            4.156935478112     0.415833108285    -0.023032957037     1.007825032230

  Basis Set: AUG-CC-PVTZ
    Blend: AUG-CC-PVTZ
  Basis Set: (AUG-CC-PVTZ AUX)
    Blend: AUG-CC-PVTZ-JKFIT
	 Reference Energy          =    -456.6087282646159338 [Eh]
	 Singles Energy            =      -0.0000000000000000 [Eh]
	 Same-Spin Energy          =      -0.4502684242207112 [Eh]
	 Opposite-Spin Energy      =      -1.4131714226902392 [Eh]
	 Correlation Energy        =      -1.8634398469109503 [Eh]
	 Total Energy              =    -458.4721681115269121 [Eh]

	 ================> DF-SCS-MP2 Energies <==================
	-----------------------------------------------------------
	 SCS Same-Spin Scale       =       0.3333333333333333 [-]
	 SCS Opposite-Spin Scale   =       1.2000000000000000 [-]
	 SCS Same-Spin Energy      =      -0.1500894747402371 [Eh]
	 SCS Opposite-Spin Energy  =      -1.6958057072282871 [Eh]
	 SCS Correlation Energy    =      -1.8458951819685241 [Eh]
	 SCS Total Energy          =    -458.4546234465844350 [Eh]
	-----------------------------------------------------------

  Dipole Moment: [D]
     X:    -0.3061      Y:    -1.1632      Z:     0.0599     Total:     1.2043

*** Psi4 exiting successfully. Buy a developer a beer!
