                               Psi4 1.3.2 release

  ==> Input File <==

--------------------------------------------------------------------------
#psi4
#
memory 32 gb

molecule  {
0 1
  O       -1.6636540     1.3623100    -0.0826750
  O        3.2950020     0.8732560    -0.0394660
  O        2.6676780    -1.2988900     0.0825990
  C       -2.5713650    -0.8630400     0.0337620
  C       -1.4513780     0.1516300    -0.0098980
  C       -3.9526870    -0.2300600    -0.0211700
  C       -0.0543470    -0.3990742     0.0328490
  C        0.9984040     0.4317740    -0.0078830
  C        2.3654297    -0.1289547     0.0225366
  H       -2.4419680    -1.4628000     0.9443570
  H       -2.4189490    -1.5634100    -0.8003330
  H       -4.1001540     0.4487780     0.8215890
  H       -4.7285220    -0.9991160     0.0102380
  H       -4.0749460     0.3516660    -0.9371360
  H        0.0882100    -1.4658090     0.0960520
  H        0.8681440     1.5076730    -0.0687300
  H        4.1643390     0.4215720    -0.0233140
units angstrom
no_reorient  #important for SAPT in psi4, default
symmetry c1  #important for SAPT in psi4, default
}

set PROPERTIES_ORIGIN ["COM"]
properties('MP2/aug-cc-pvtz', properties = ['dipole'])
--------------------------------------------------------------------------

    Molecular point group: c1
  Charge       = 0
  Multiplicity = 1
  Basis Set: AUG-CC-PVTZ
    Blend: AUG-CC-PVTZ
  Basis Set: (AUG-CC-PVTZ AUX)
    Blend: AUG-CC-PVTZ-JKFIT

    Orbital Energies [Eh]
    ---------------------

    Doubly Occupied:

       1A    -20.623757     2A    -20.563365     3A    -20.561120
       4A    -11.404375     5A    -11.350829     6A    -11.276907
       7A    -11.275217     8A    -11.252656     9A    -11.225299
      10A     -1.469710    11A     -1.390613    12A     -1.370601
      13A     -1.109290    14A     -1.065831    15A     -0.955491
      16A     -0.886248    17A     -0.795506    18A     -0.749132
      19A     -0.717681    20A     -0.712573    21A     -0.660135
      22A     -0.643247    23A     -0.640558    24A     -0.637865
      25A     -0.608114    26A     -0.574270    27A     -0.539807
      28A     -0.539534    29A     -0.524487    30A     -0.501981
      31A     -0.497222    32A     -0.472051    33A     -0.434714
      34A     -0.405074

  @DF-RHF Final Energy:  -456.62863068479669

   => Energetics <=

    Nuclear Repulsion Energy =            413.4232430221424579
    One-Electron Energy =               -1443.2332254953855681
    Two-Electron Energy =                 573.1813517884463636
    Total Energy =                       -456.6286306847966898
  Basis Set: (AUG-CC-PVTZ AUX)
    Blend: AUG-CC-PVTZ-RI
    Molecular point group: c1

    Geometry (in Angstrom), charge = 0, multiplicity = 1:

       Center              X                  Y                   Z               Mass
    ------------   -----------------  -----------------  -----------------  -----------------
         O           -1.663876181218     1.364291302771    -0.082776100066    15.994914619570
         O            3.294779818782     0.875237302771    -0.039567100066    15.994914619570
         O            2.667455818782    -1.296908697229     0.082497899934    15.994914619570
         C           -2.571587181218    -0.861058697229     0.033660899934    12.000000000000
         C           -1.451600181218     0.153611302771    -0.009999100066    12.000000000000
         C           -3.952909181218    -0.228078697229    -0.021271100066    12.000000000000
         C           -0.054569181218    -0.397092897229     0.032747899934    12.000000000000
         C            0.998181818782     0.433755302771    -0.007984100066    12.000000000000
         C            2.365207518782    -0.126973397229     0.022435499934    12.000000000000
         H           -2.442190181218    -1.460818697229     0.944255899934     1.007825032230
         H           -2.419171181218    -1.561428697229    -0.800434100066     1.007825032230
         H           -4.100376181218     0.450759302771     0.821487899934     1.007825032230
         H           -4.728744181218    -0.997134697229     0.010136899934     1.007825032230
         H           -4.075168181218     0.353647302771    -0.937237100066     1.007825032230
         H            0.087987818782    -1.463827697229     0.095950899934     1.007825032230
         H            0.867921818782     1.509654302771    -0.068831100066     1.007825032230
         H            4.164116818782     0.423553302771    -0.023415100066     1.007825032230

  Basis Set: AUG-CC-PVTZ
    Blend: AUG-CC-PVTZ
  Basis Set: (AUG-CC-PVTZ AUX)
    Blend: AUG-CC-PVTZ-JKFIT
	 Reference Energy          =    -456.6286306847966898 [Eh]
	 Singles Energy            =      -0.0000000000000000 [Eh]
	 Same-Spin Energy          =      -0.4480678011881084 [Eh]
	 Opposite-Spin Energy      =      -1.4087761414653222 [Eh]
	 Correlation Energy        =      -1.8568439426534304 [Eh]
	 Total Energy              =    -458.4854746274501167 [Eh]

	 ================> DF-SCS-MP2 Energies <==================
	-----------------------------------------------------------
	 SCS Same-Spin Scale       =       0.3333333333333333 [-]
	 SCS Opposite-Spin Scale   =       1.2000000000000000 [-]
	 SCS Same-Spin Energy      =      -0.1493559337293695 [Eh]
	 SCS Opposite-Spin Energy  =      -1.6905313697583866 [Eh]
	 SCS Correlation Energy    =      -1.8398873034877561 [Eh]
	 SCS Total Energy          =    -458.4685179882844182 [Eh]
	-----------------------------------------------------------

  Dipole Moment: [D]
     X:    -0.2511      Y:    -1.2755      Z:     0.0668     Total:     1.3017

*** Psi4 exiting successfully. Buy a developer a beer!
