                               Psi4 1.3.2 release

  ==> Input File <==

--------------------------------------------------------------------------
#psi4
#
memory 32 gb

molecule  {
0 1
  O       -1.6636540     1.3623100    -0.0826750
  O        3.2950020     0.8732560    -0.0394660
  O        2.6261959    -1.3085385     0.0830354
  C       -2.5713650    -0.8630400     0.0337620
  C       -1.4513780     0.1516300    -0.0098980
  C       -3.9526870    -0.2300600    -0.0211700
  C       -0.0615660    -0.3898680     0.0323710
  C        0.9800590     0.3836227    -0.0054523
  C        2.3702780    -0.1170190     0.0219370
  H       -2.4419680    -1.4628000     0.9443570
  H       -2.4189490    -1.5634100    -0.8003330
  H       -4.1001540     0.4487780     0.8215890
  H       -4.7285220    -0.9991160     0.0102380
  H       -4.0749460     0.3516660    -0.9371360
  H        0.0882100    -1.4658090     0.0960520
  H        0.8681440     1.5076730    -0.0687300
  H        4.1643390     0.4215720    -0.0233140
units angstrom
no_reorient  #important for SAPT in psi4, default
symmetry c1  #important for SAPT in psi4, default
}

set PROPERTIES_ORIGIN ["COM"]
properties('MP2/aug-cc-pvtz', properties = ['dipole'])
--------------------------------------------------------------------------

    Molecular point group: c1
  Charge       = 0
  Multiplicity = 1
  Basis Set: AUG-CC-PVTZ
    Blend: AUG-CC-PVTZ
  Basis Set: (AUG-CC-PVTZ AUX)
    Blend: AUG-CC-PVTZ-JKFIT

    Orbital Energies [Eh]
    ---------------------

    Doubly Occupied:

       1A    -20.633074     2A    -20.561990     3A    -20.559468
       4A    -11.406085     5A    -11.348960     6A    -11.271057
       7A    -11.266232     8A    -11.251638     9A    -11.224466
      10A     -1.473425    11A     -1.389387    12A     -1.371614
      13A     -1.114697    14A     -1.065304    15A     -0.954519
      16A     -0.889768    17A     -0.799640    18A     -0.740147
      19A     -0.720141    20A     -0.714511    21A     -0.666543
      22A     -0.645077    23A     -0.639344    24A     -0.638184
      25A     -0.609417    26A     -0.556911    27A     -0.539931
      28A     -0.539119    29A     -0.523562    30A     -0.503006
      31A     -0.496298    32A     -0.469020    33A     -0.434322
      34A     -0.410968

  @DF-RHF Final Energy:  -456.62533678880749

   => Energetics <=

    Nuclear Repulsion Energy =            414.2412085144472371
    One-Electron Energy =               -1444.8774430187563667
    Two-Electron Energy =                 574.0108977155017556
    Total Energy =                       -456.6253367888074308
  Basis Set: (AUG-CC-PVTZ AUX)
    Blend: AUG-CC-PVTZ-RI
    Molecular point group: c1

    Geometry (in Angstrom), charge = 0, multiplicity = 1:

       Center              X                  Y                   Z               Mass
    ------------   -----------------  -----------------  -----------------  -----------------
         O           -1.656753104562     1.368027731176    -0.082957418788    15.994914619570
         O            3.301902895438     0.878973731176    -0.039748418788    15.994914619570
         O            2.633096795438    -1.302820768824     0.082752981212    15.994914619570
         C           -2.564464104562    -0.857322268824     0.033479581212    12.000000000000
         C           -1.444477104562     0.157347731176    -0.010180418788    12.000000000000
         C           -3.945786104562    -0.224342268824    -0.021452418788    12.000000000000
         C           -0.054665104562    -0.384150268824     0.032088581212    12.000000000000
         C            0.986959895438     0.389340431176    -0.005734718788    12.000000000000
         C            2.377178895438    -0.111301268824     0.021654581212    12.000000000000
         H           -2.435067104562    -1.457082268824     0.944074581212     1.007825032230
         H           -2.412048104562    -1.557692268824    -0.800615418788     1.007825032230
         H           -4.093253104562     0.454495731176     0.821306581212     1.007825032230
         H           -4.721621104562    -0.993398268824     0.009955581212     1.007825032230
         H           -4.068045104562     0.357383731176    -0.937418418788     1.007825032230
         H            0.095110895438    -1.460091268824     0.095769581212     1.007825032230
         H            0.875044895438     1.513390731176    -0.069012418788     1.007825032230
         H            4.171239895438     0.427289731176    -0.023596418788     1.007825032230

  Basis Set: AUG-CC-PVTZ
    Blend: AUG-CC-PVTZ
  Basis Set: (AUG-CC-PVTZ AUX)
    Blend: AUG-CC-PVTZ-JKFIT
	 Reference Energy          =    -456.6253367888074877 [Eh]
	 Singles Energy            =      -0.0000000000000000 [Eh]
	 Same-Spin Energy          =      -0.4480333191723535 [Eh]
	 Opposite-Spin Energy      =      -1.4084419168973517 [Eh]
	 Correlation Energy        =      -1.8564752360697052 [Eh]
	 Total Energy              =    -458.4818120248771720 [Eh]

	 ================> DF-SCS-MP2 Energies <==================
	-----------------------------------------------------------
	 SCS Same-Spin Scale       =       0.3333333333333333 [-]
	 SCS Opposite-Spin Scale   =       1.2000000000000000 [-]
	 SCS Same-Spin Energy      =      -0.1493444397241178 [Eh]
	 SCS Opposite-Spin Energy  =      -1.6901303002768220 [Eh]
	 SCS Correlation Energy    =      -1.8394747400009397 [Eh]
	 SCS Total Energy          =    -458.4648115288084114 [Eh]
	-----------------------------------------------------------

  Dipole Moment: [D]
     X:     0.0088      Y:    -1.1869      Z:     0.0620     Total:     1.1885

*** Psi4 exiting successfully. Buy a developer a beer!
