                               Psi4 1.3.2 release

  ==> Input File <==

--------------------------------------------------------------------------
#psi4
#
memory 32 gb

molecule  {
0 1
  O       -1.6636540     1.3623100    -0.0826750
  O        3.2950020     0.8732560    -0.0394660
  O        2.6676780    -1.2988900     0.0825990
  C       -2.5713650    -0.8630400     0.0337620
  C       -1.4513780     0.1516300    -0.0098980
  C       -3.9526870    -0.2300600    -0.0211700
  C       -0.0615660    -0.3898680     0.0323710
  C        0.9984040     0.4317740    -0.0078830
  C        2.3702780    -0.1170190     0.0219370
  H       -2.4419680    -1.4628000     0.9443570
  H       -2.4189490    -1.5634100    -0.8003330
  H       -4.1001540     0.4487780     0.8215890
  H       -4.7285220    -0.9991160     0.0102380
  H       -4.0749460     0.3516660    -0.9371360
  H        0.0882100    -1.4658090     0.0960520
  H        0.8681440     1.5076730    -0.0687300
  H        4.3417893     0.3293736    -0.0200170
units angstrom
no_reorient  #important for SAPT in psi4, default
symmetry c1  #important for SAPT in psi4, default
}

set PROPERTIES_ORIGIN ["COM"]
properties('MP2/aug-cc-pvtz', properties = ['dipole'])
--------------------------------------------------------------------------

    Molecular point group: c1
  Charge       = 0
  Multiplicity = 1
  Basis Set: AUG-CC-PVTZ
    Blend: AUG-CC-PVTZ
  Basis Set: (AUG-CC-PVTZ AUX)
    Blend: AUG-CC-PVTZ-JKFIT

    Orbital Energies [Eh]
    ---------------------

    Doubly Occupied:

       1A    -20.635959     2A    -20.559656     3A    -20.557689
       4A    -11.401744     5A    -11.349007     6A    -11.275948
       7A    -11.274186     8A    -11.251771     9A    -11.224589
      10A     -1.451611    11A     -1.389625    12A     -1.350931
      13A     -1.106797    14A     -1.064477    15A     -0.950285
      16A     -0.877465    17A     -0.782539    18A     -0.745444
      19A     -0.713497    20A     -0.694525    21A     -0.658330
      22A     -0.641786    23A     -0.636706    24A     -0.633848
      25A     -0.588552    26A     -0.566599    27A     -0.539085
      28A     -0.538100    29A     -0.523672    30A     -0.498749
      31A     -0.491435    32A     -0.467485    33A     -0.434260
      34A     -0.402976

  @DF-RHF Final Energy:  -456.59339488628717

   => Energetics <=

    Nuclear Repulsion Energy =            412.4122738034092777
    One-Electron Energy =               -1441.4526779497782627
    Two-Electron Energy =                 572.4470092600816997
    Total Energy =                       -456.5933948862872285
  Basis Set: (AUG-CC-PVTZ AUX)
    Blend: AUG-CC-PVTZ-RI
    Molecular point group: c1

    Geometry (in Angstrom), charge = 0, multiplicity = 1:

       Center              X                  Y                   Z               Mass
    ------------   -----------------  -----------------  -----------------  -----------------
         O           -1.665050672226     1.363035650453    -0.082701062189    15.994914619570
         O            3.293605327774     0.873981650453    -0.039492062189    15.994914619570
         O            2.666281327774    -1.298164349547     0.082572937811    15.994914619570
         C           -2.572761672226    -0.862314349547     0.033735937811    12.000000000000
         C           -1.452774672226     0.152355650453    -0.009924062189    12.000000000000
         C           -3.954083672226    -0.229334349547    -0.021196062189    12.000000000000
         C           -0.062962672226    -0.389142349547     0.032344937811    12.000000000000
         C            0.997007327774     0.432499650453    -0.007909062189    12.000000000000
         C            2.368881327774    -0.116293349547     0.021910937811    12.000000000000
         H           -2.443364672226    -1.462074349547     0.944330937811     1.007825032230
         H           -2.420345672226    -1.562684349547    -0.800359062189     1.007825032230
         H           -4.101550672226     0.449503650453     0.821562937811     1.007825032230
         H           -4.729918672226    -0.998390349547     0.010211937811     1.007825032230
         H           -4.076342672226     0.352391650453    -0.937162062189     1.007825032230
         H            0.086813327774    -1.465083349547     0.096025937811     1.007825032230
         H            0.866747327774     1.508398650453    -0.068756062189     1.007825032230
         H            4.340392627774     0.330099250453    -0.020043062189     1.007825032230

  Basis Set: AUG-CC-PVTZ
    Blend: AUG-CC-PVTZ
  Basis Set: (AUG-CC-PVTZ AUX)
    Blend: AUG-CC-PVTZ-JKFIT
	 Reference Energy          =    -456.5933948862871716 [Eh]
	 Singles Energy            =      -0.0000000000000000 [Eh]
	 Same-Spin Energy          =      -0.4508176915590265 [Eh]
	 Opposite-Spin Energy      =      -1.4156471600850506 [Eh]
	 Correlation Energy        =      -1.8664648516440772 [Eh]
	 Total Energy              =    -458.4598597379312537 [Eh]

	 ================> DF-SCS-MP2 Energies <==================
	-----------------------------------------------------------
	 SCS Same-Spin Scale       =       0.3333333333333333 [-]
	 SCS Opposite-Spin Scale   =       1.2000000000000000 [-]
	 SCS Same-Spin Energy      =      -0.1502725638530088 [Eh]
	 SCS Opposite-Spin Energy  =      -1.6987765921020608 [Eh]
	 SCS Correlation Energy    =      -1.8490491559550697 [Eh]
	 SCS Total Energy          =    -458.4424440422422435 [Eh]
	-----------------------------------------------------------

  Dipole Moment: [D]
     X:     0.0886      Y:    -1.2385      Z:     0.0621     Total:     1.2432

*** Psi4 exiting successfully. Buy a developer a beer!
