                               Psi4 1.3.2 release

  ==> Input File <==

--------------------------------------------------------------------------
#psi4
#
memory 32 gb

molecule  {
0 1
  O       -1.6636540     1.3623100    -0.0826750
  O        3.2950020     0.8732560    -0.0394660
  O        2.6676780    -1.2988900     0.0825990
  C       -2.5713650    -0.8630400     0.0337620
  C       -1.4338272     0.1319733    -0.0085296
  C       -3.9635596    -0.2542343    -0.0199193
  C       -0.0615660    -0.3898680     0.0323710
  C        0.9984040     0.4317740    -0.0078830
  C        2.3702780    -0.1170190     0.0219370
  H       -2.4419680    -1.4628000     0.9443570
  H       -2.4189490    -1.5634100    -0.8003330
  H       -4.1001540     0.4487780     0.8215890
  H       -4.7285220    -0.9991160     0.0102380
  H       -4.0749460     0.3516660    -0.9371360
  H        0.0882100    -1.4658090     0.0960520
  H        0.8681440     1.5076730    -0.0687300
  H        4.1643390     0.4215720    -0.0233140
units angstrom
no_reorient  #important for SAPT in psi4, default
symmetry c1  #important for SAPT in psi4, default
}

set PROPERTIES_ORIGIN ["COM"]
properties('MP2/aug-cc-pvtz', properties = ['dipole'])
--------------------------------------------------------------------------

    Molecular point group: c1
  Charge       = 0
  Multiplicity = 1
  Basis Set: AUG-CC-PVTZ
    Blend: AUG-CC-PVTZ
  Basis Set: (AUG-CC-PVTZ AUX)
    Blend: AUG-CC-PVTZ-JKFIT

    Orbital Energies [Eh]
    ---------------------

    Doubly Occupied:

       1A    -20.628998     2A    -20.563169     3A    -20.558435
       4A    -11.407150     5A    -11.350982     6A    -11.279576
       7A    -11.276527     8A    -11.252867     9A    -11.225087
      10A     -1.473729    11A     -1.375510    12A     -1.369041
      13A     -1.112729    14A     -1.065190    15A     -0.962003
      16A     -0.888946    17A     -0.802442    18A     -0.748201
      19A     -0.717070    20A     -0.714418    21A     -0.661694
      22A     -0.644084    23A     -0.637947    24A     -0.637602
      25A     -0.607158    26A     -0.569767    27A     -0.546702
      28A     -0.532957    29A     -0.520701    30A     -0.500346
      31A     -0.491488    32A     -0.472913    33A     -0.437444
      34A     -0.404254

  @DF-RHF Final Energy:  -456.62357805948238

   => Energetics <=

    Nuclear Repulsion Energy =            413.2413482276294303
    One-Electron Energy =               -1442.8556012017295416
    Two-Electron Energy =                 572.9906749146176708
    Total Energy =                       -456.6235780594823837
  Basis Set: (AUG-CC-PVTZ AUX)
    Blend: AUG-CC-PVTZ-RI
    Molecular point group: c1

    Geometry (in Angstrom), charge = 0, multiplicity = 1:

       Center              X                  Y                   Z               Mass
    ------------   -----------------  -----------------  -----------------  -----------------
         O           -1.664279860032     1.366417619423    -0.082920562258    15.994914619570
         O            3.294376139968     0.877363619423    -0.039711562258    15.994914619570
         O            2.667052139968    -1.294782380577     0.082353437742    15.994914619570
         C           -2.571990860032    -0.858932380577     0.033516437742    12.000000000000
         C           -1.434453060032     0.136080919423    -0.008775162258    12.000000000000
         C           -3.964185460032    -0.250126680577    -0.020164862258    12.000000000000
         C           -0.062191860032    -0.385760380577     0.032125437742    12.000000000000
         C            0.997778139968     0.435881619423    -0.008128562258    12.000000000000
         C            2.369652139968    -0.112911380577     0.021691437742    12.000000000000
         H           -2.442593860032    -1.458692380577     0.944111437742     1.007825032230
         H           -2.419574860032    -1.559302380577    -0.800578562258     1.007825032230
         H           -4.100779860032     0.452885619423     0.821343437742     1.007825032230
         H           -4.729147860032    -0.995008380577     0.009992437742     1.007825032230
         H           -4.075571860032     0.355773619423    -0.937381562258     1.007825032230
         H            0.087584139968    -1.461701380577     0.095806437742     1.007825032230
         H            0.867518139968     1.511780619423    -0.068975562258     1.007825032230
         H            4.163713139968     0.425679619423    -0.023559562258     1.007825032230

  Basis Set: AUG-CC-PVTZ
    Blend: AUG-CC-PVTZ
  Basis Set: (AUG-CC-PVTZ AUX)
    Blend: AUG-CC-PVTZ-JKFIT
	 Reference Energy          =    -456.6235780594823837 [Eh]
	 Singles Energy            =      -0.0000000000000000 [Eh]
	 Same-Spin Energy          =      -0.4491040243704967 [Eh]
	 Opposite-Spin Energy      =      -1.4108148249052022 [Eh]
	 Correlation Energy        =      -1.8599188492756988 [Eh]
	 Total Energy              =    -458.4834969087580703 [Eh]

	 ================> DF-SCS-MP2 Energies <==================
	-----------------------------------------------------------
	 SCS Same-Spin Scale       =       0.3333333333333333 [-]
	 SCS Opposite-Spin Scale   =       1.2000000000000000 [-]
	 SCS Same-Spin Energy      =      -0.1497013414568322 [Eh]
	 SCS Opposite-Spin Energy  =      -1.6929777898862426 [Eh]
	 SCS Correlation Energy    =      -1.8426791313430748 [Eh]
	 SCS Total Energy          =    -458.4662571908254449 [Eh]
	-----------------------------------------------------------

  Dipole Moment: [D]
     X:    -0.0571      Y:    -1.2442      Z:     0.0658     Total:     1.2472

*** Psi4 exiting successfully. Buy a developer a beer!
