                               Psi4 1.3.2 release

  ==> Input File <==

--------------------------------------------------------------------------
#psi4
#
memory 32 gb

molecule  {
0 1
  O       -1.6636540     1.3623100    -0.0826750
  O        3.2950020     0.8732560    -0.0394660
  O        2.6053347    -1.3128190     0.0832258
  C       -2.5713650    -0.8630400     0.0337620
  C       -1.4513780     0.1516300    -0.0098980
  C       -3.9526870    -0.2300600    -0.0211700
  C       -0.0615660    -0.3898680     0.0323710
  C        0.9715203     0.3593147    -0.0042243
  C        2.3702780    -0.1170190     0.0219370
  H       -2.4419680    -1.4628000     0.9443570
  H       -2.4189490    -1.5634100    -0.8003330
  H       -4.1001540     0.4487780     0.8215890
  H       -4.7285220    -0.9991160     0.0102380
  H       -4.0749460     0.3516660    -0.9371360
  H        0.0882100    -1.4658090     0.0960520
  H        0.8681440     1.5076730    -0.0687300
  H        4.1643390     0.4215720    -0.0233140
units angstrom
no_reorient  #important for SAPT in psi4, default
symmetry c1  #important for SAPT in psi4, default
}

set PROPERTIES_ORIGIN ["COM"]
properties('MP2/aug-cc-pvtz', properties = ['dipole'])
--------------------------------------------------------------------------

    Molecular point group: c1
  Charge       = 0
  Multiplicity = 1
  Basis Set: AUG-CC-PVTZ
    Blend: AUG-CC-PVTZ
  Basis Set: (AUG-CC-PVTZ AUX)
    Blend: AUG-CC-PVTZ-JKFIT

    Orbital Energies [Eh]
    ---------------------

    Doubly Occupied:

       1A    -20.635785     2A    -20.562357     3A    -20.558914
       4A    -11.406573     5A    -11.348501     6A    -11.268501
       7A    -11.261440     8A    -11.251233     9A    -11.224125
      10A     -1.474136    11A     -1.388797    12A     -1.373740
      13A     -1.117782    14A     -1.065096    15A     -0.953166
      16A     -0.890919    17A     -0.800186    18A     -0.737126
      19A     -0.721340    20A     -0.715222    21A     -0.669170
      22A     -0.645963    23A     -0.639248    24A     -0.636762
      25A     -0.610467    26A     -0.550020    27A     -0.539969
      28A     -0.538943    29A     -0.523116    30A     -0.504382
      31A     -0.496157    32A     -0.467148    33A     -0.433801
      34A     -0.414385

  @DF-RHF Final Energy:  -456.62012945939023

   => Energetics <=

    Nuclear Repulsion Energy =            414.6465278039285636
    One-Electron Energy =               -1445.6843772665479264
    Two-Electron Energy =                 574.4177200032290784
    Total Energy =                       -456.6201294593902276
  Basis Set: (AUG-CC-PVTZ AUX)
    Blend: AUG-CC-PVTZ-RI
    Molecular point group: c1

    Geometry (in Angstrom), charge = 0, multiplicity = 1:

       Center              X                  Y                   Z               Mass
    ------------   -----------------  -----------------  -----------------  -----------------
         O           -1.653347040064     1.370840458254    -0.083096284860    15.994914619570
         O            3.305308959936     0.881786458254    -0.039887284860    15.994914619570
         O            2.615641659936    -1.304288541746     0.082804515140    15.994914619570
         C           -2.561058040064    -0.854509541746     0.033340715140    12.000000000000
         C           -1.441071040064     0.160160458254    -0.010319284860    12.000000000000
         C           -3.942380040064    -0.221529541746    -0.021591284860    12.000000000000
         C           -0.051259040064    -0.381337541746     0.031949715140    12.000000000000
         C            0.981827259936     0.367845158254    -0.004645584860    12.000000000000
         C            2.380584959936    -0.108488541746     0.021515715140    12.000000000000
         H           -2.431661040064    -1.454269541746     0.943935715140     1.007825032230
         H           -2.408642040064    -1.554879541746    -0.800754284860     1.007825032230
         H           -4.089847040064     0.457308458254     0.821167715140     1.007825032230
         H           -4.718215040064    -0.990585541746     0.009816715140     1.007825032230
         H           -4.064639040064     0.360196458254    -0.937557284860     1.007825032230
         H            0.098516959936    -1.457278541746     0.095630715140     1.007825032230
         H            0.878450959936     1.516203458254    -0.069151284860     1.007825032230
         H            4.174645959936     0.430102458254    -0.023735284860     1.007825032230

  Basis Set: AUG-CC-PVTZ
    Blend: AUG-CC-PVTZ
  Basis Set: (AUG-CC-PVTZ AUX)
    Blend: AUG-CC-PVTZ-JKFIT
	 Reference Energy          =    -456.6201294593902276 [Eh]
	 Singles Energy            =      -0.0000000000000000 [Eh]
	 Same-Spin Energy          =      -0.4480131130531024 [Eh]
	 Opposite-Spin Energy      =      -1.4083302573041518 [Eh]
	 Correlation Energy        =      -1.8563433703572543 [Eh]
	 Total Energy              =    -458.4764728297474790 [Eh]

	 ================> DF-SCS-MP2 Energies <==================
	-----------------------------------------------------------
	 SCS Same-Spin Scale       =       0.3333333333333333 [-]
	 SCS Opposite-Spin Scale   =       1.2000000000000000 [-]
	 SCS Same-Spin Energy      =      -0.1493377043510341 [Eh]
	 SCS Opposite-Spin Energy  =      -1.6899963087649821 [Eh]
	 SCS Correlation Energy    =      -1.8393340131160163 [Eh]
	 SCS Total Energy          =    -458.4594634725062292 [Eh]
	-----------------------------------------------------------

  Dipole Moment: [D]
     X:     0.1023      Y:    -1.1955      Z:     0.0626     Total:     1.2015

*** Psi4 exiting successfully. Buy a developer a beer!
