                               Psi4 1.3.2 release

  ==> Input File <==

--------------------------------------------------------------------------
#psi4
#
memory 32 gb

molecule  {
0 1
  O       -1.6636540     1.3623100    -0.0826750
  O        3.2950020     0.8732560    -0.0394660
  O        2.6676780    -1.2988900     0.0825990
  C       -2.5713650    -0.8630400     0.0337620
  C       -1.4210534     0.2235146    -0.0138902
  C       -3.9526870    -0.2300600    -0.0211700
  C       -0.0615660    -0.3898680     0.0323710
  C        0.9539016     0.4860097    -0.0114029
  C        2.3702780    -0.1170190     0.0219370
  H       -2.4419680    -1.4628000     0.9443570
  H       -2.4189490    -1.5634100    -0.8003330
  H       -4.1001540     0.4487780     0.8215890
  H       -4.7285220    -0.9991160     0.0102380
  H       -4.0749460     0.3516660    -0.9371360
  H        0.0882100    -1.4658090     0.0960520
  H        0.8681440     1.5076730    -0.0687300
  H        4.1643390     0.4215720    -0.0233140
units angstrom
no_reorient  #important for SAPT in psi4, default
symmetry c1  #important for SAPT in psi4, default
}

set PROPERTIES_ORIGIN ["COM"]
properties('MP2/aug-cc-pvtz', properties = ['dipole'])
--------------------------------------------------------------------------

    Molecular point group: c1
  Charge       = 0
  Multiplicity = 1
  Basis Set: AUG-CC-PVTZ
    Blend: AUG-CC-PVTZ
  Basis Set: (AUG-CC-PVTZ AUX)
    Blend: AUG-CC-PVTZ-JKFIT

    Orbital Energies [Eh]
    ---------------------

    Doubly Occupied:

       1A    -20.627977     2A    -20.563722     3A    -20.563043
       4A    -11.408745     5A    -11.342345     6A    -11.277487
       7A    -11.272846     8A    -11.245314     9A    -11.220320
      10A     -1.471885    11A     -1.434636    12A     -1.368071
      13A     -1.108090    14A     -1.050450    15A     -0.945877
      16A     -0.874573    17A     -0.797860    18A     -0.758802
      19A     -0.715940    20A     -0.714577    21A     -0.658471
      22A     -0.655272    23A     -0.641145    24A     -0.634235
      25A     -0.609667    26A     -0.583543    27A     -0.557642
      28A     -0.538504    29A     -0.521115    30A     -0.499481
      31A     -0.498528    32A     -0.470140    33A     -0.415972
      34A     -0.408421

  @DF-RHF Final Energy:  -456.62080953097899

   => Energetics <=

    Nuclear Repulsion Energy =            413.5671154819087292
    One-Electron Energy =               -1443.4664596853472176
    Two-Electron Energy =                 573.2785346724593865
    Total Energy =                       -456.6208095309790451
  Basis Set: (AUG-CC-PVTZ AUX)
    Blend: AUG-CC-PVTZ-RI
    Molecular point group: c1

    Geometry (in Angstrom), charge = 0, multiplicity = 1:

       Center              X                  Y                   Z               Mass
    ------------   -----------------  -----------------  -----------------  -----------------
         O           -1.662325332964     1.350490576078    -0.081971113436    15.994914619570
         O            3.296330667036     0.861436576078    -0.038762113436    15.994914619570
         O            2.669006667036    -1.310709423922     0.083302886564    15.994914619570
         C           -2.570036332964    -0.874859423922     0.034465886564    12.000000000000
         C           -1.419724732964     0.211695176078    -0.013186313436    12.000000000000
         C           -3.951358332964    -0.241879423922    -0.020466113436    12.000000000000
         C           -0.060237332964    -0.401687423922     0.033074886564    12.000000000000
         C            0.955230267036     0.474190276078    -0.010699013436    12.000000000000
         C            2.371606667036    -0.128838423922     0.022640886564    12.000000000000
         H           -2.440639332964    -1.474619423922     0.945060886564     1.007825032230
         H           -2.417620332964    -1.575229423922    -0.799629113436     1.007825032230
         H           -4.098825332964     0.436958576078     0.822292886564     1.007825032230
         H           -4.727193332964    -1.010935423922     0.010941886564     1.007825032230
         H           -4.073617332964     0.339846576078    -0.936432113436     1.007825032230
         H            0.089538667036    -1.477628423922     0.096755886564     1.007825032230
         H            0.869472667036     1.495853576078    -0.068026113436     1.007825032230
         H            4.165667667036     0.409752576078    -0.022610113436     1.007825032230

  Basis Set: AUG-CC-PVTZ
    Blend: AUG-CC-PVTZ
  Basis Set: (AUG-CC-PVTZ AUX)
    Blend: AUG-CC-PVTZ-JKFIT
	 Reference Energy          =    -456.6208095309789883 [Eh]
	 Singles Energy            =      -0.0000000000000000 [Eh]
	 Same-Spin Energy          =      -0.4461939735524267 [Eh]
	 Opposite-Spin Energy      =      -1.4050756019038975 [Eh]
	 Correlation Energy        =      -1.8512695754563242 [Eh]
	 Total Energy              =    -458.4720791064353307 [Eh]

	 ================> DF-SCS-MP2 Energies <==================
	-----------------------------------------------------------
	 SCS Same-Spin Scale       =       0.3333333333333333 [-]
	 SCS Opposite-Spin Scale   =       1.2000000000000000 [-]
	 SCS Same-Spin Energy      =      -0.1487313245174756 [Eh]
	 SCS Opposite-Spin Energy  =      -1.6860907222846768 [Eh]
	 SCS Correlation Energy    =      -1.8348220468021523 [Eh]
	 SCS Total Energy          =    -458.4556315777811619 [Eh]
	-----------------------------------------------------------

  Dipole Moment: [D]
     X:     0.1807      Y:    -0.8676      Z:     0.0472     Total:     0.8874

*** Psi4 exiting successfully. Buy a developer a beer!
