                               Psi4 1.3.2 release

  ==> Input File <==

--------------------------------------------------------------------------
#psi4
#
memory 32 gb

molecule  {
0 1
  O       -1.6636540     1.3623100    -0.0826750
  O        3.2950020     0.8732560    -0.0394660
  O        2.6676780    -1.2988900     0.0825990
  C       -2.5713650    -0.8630400     0.0337620
  C       -1.4513780     0.1516300    -0.0098980
  C       -3.9526870    -0.2300600    -0.0211700
  C       -0.0615660    -0.3898680     0.0323710
  C        0.9984040     0.4317740    -0.0078830
  C        2.3362176    -0.0841710     0.0204946
  H       -2.4419680    -1.4628000     0.9443570
  H       -2.4189490    -1.5634100    -0.8003330
  H       -4.1001540     0.4487780     0.8215890
  H       -4.7285220    -0.9991160     0.0102380
  H       -4.0749460     0.3516660    -0.9371360
  H        0.0882100    -1.4658090     0.0960520
  H        0.8681440     1.5076730    -0.0687300
  H        4.1795799     0.4521369    -0.0250871
units angstrom
no_reorient  #important for SAPT in psi4, default
symmetry c1  #important for SAPT in psi4, default
}

set PROPERTIES_ORIGIN ["COM"]
properties('MP2/aug-cc-pvtz', properties = ['dipole'])
--------------------------------------------------------------------------

    Molecular point group: c1
  Charge       = 0
  Multiplicity = 1
  Basis Set: AUG-CC-PVTZ
    Blend: AUG-CC-PVTZ
  Basis Set: (AUG-CC-PVTZ AUX)
    Blend: AUG-CC-PVTZ-JKFIT

    Orbital Energies [Eh]
    ---------------------

    Doubly Occupied:

       1A    -20.625929     2A    -20.564597     3A    -20.553473
       4A    -11.406575     5A    -11.353166     6A    -11.283043
       7A    -11.275586     8A    -11.254764     9A    -11.226889
      10A     -1.462144    11A     -1.394100    12A     -1.342262
      13A     -1.116793    14A     -1.069115    15A     -0.966505
      16A     -0.892364    17A     -0.803526    18A     -0.749762
      19A     -0.722786    20A     -0.703545    21A     -0.661424
      22A     -0.644541    23A     -0.643863    24A     -0.633951
      25A     -0.601749    26A     -0.567860    27A     -0.542471
      28A     -0.541351    29A     -0.526405    30A     -0.501426
      31A     -0.486226    32A     -0.465435    33A     -0.439049
      34A     -0.405278

  @DF-RHF Final Energy:  -456.62024887025342

   => Energetics <=

    Nuclear Repulsion Energy =            413.4020123308255279
    One-Electron Energy =               -1443.1886180859507931
    Two-Electron Energy =                 573.1663568848717887
    Total Energy =                       -456.6202488702534765
  Basis Set: (AUG-CC-PVTZ AUX)
    Blend: AUG-CC-PVTZ-RI
    Molecular point group: c1

    Geometry (in Angstrom), charge = 0, multiplicity = 1:

       Center              X                  Y                   Z               Mass
    ------------   -----------------  -----------------  -----------------  -----------------
         O           -1.660581985291     1.358991053274    -0.082525981840    15.994914619570
         O            3.298074014709     0.869937053274    -0.039316981840    15.994914619570
         O            2.670750014709    -1.302208946726     0.082748018160    15.994914619570
         C           -2.568292985291    -0.866358946726     0.033911018160    12.000000000000
         C           -1.448305985291     0.148311053274    -0.009748981840    12.000000000000
         C           -3.949614985291    -0.233378946726    -0.021020981840    12.000000000000
         C           -0.058493985291    -0.393186946726     0.032520018160    12.000000000000
         C            1.001476014709     0.428455053274    -0.007733981840    12.000000000000
         C            2.339289614709    -0.087489946726     0.020643618160    12.000000000000
         H           -2.438895985291    -1.466118946726     0.944506018160     1.007825032230
         H           -2.415876985291    -1.566728946726    -0.800183981840     1.007825032230
         H           -4.097081985291     0.445459053274     0.821738018160     1.007825032230
         H           -4.725449985291    -1.002434946726     0.010387018160     1.007825032230
         H           -4.071873985291     0.348347053274    -0.936986981840     1.007825032230
         H            0.091282014709    -1.469127946726     0.096201018160     1.007825032230
         H            0.871216014709     1.504354053274    -0.068580981840     1.007825032230
         H            4.182651914709     0.448817953274    -0.024938081840     1.007825032230

  Basis Set: AUG-CC-PVTZ
    Blend: AUG-CC-PVTZ
  Basis Set: (AUG-CC-PVTZ AUX)
    Blend: AUG-CC-PVTZ-JKFIT
	 Reference Energy          =    -456.6202488702534197 [Eh]
	 Singles Energy            =      -0.0000000000000000 [Eh]
	 Same-Spin Energy          =      -0.4494279269129580 [Eh]
	 Opposite-Spin Energy      =      -1.4113415710303348 [Eh]
	 Correlation Energy        =      -1.8607694979432927 [Eh]
	 Total Energy              =    -458.4810183681967146 [Eh]

	 ================> DF-SCS-MP2 Energies <==================
	-----------------------------------------------------------
	 SCS Same-Spin Scale       =       0.3333333333333333 [-]
	 SCS Opposite-Spin Scale   =       1.2000000000000000 [-]
	 SCS Same-Spin Energy      =      -0.1498093089709860 [Eh]
	 SCS Opposite-Spin Energy  =      -1.6936098852364017 [Eh]
	 SCS Correlation Energy    =      -1.8434191942073876 [Eh]
	 SCS Total Energy          =    -458.4636680644608191 [Eh]
	-----------------------------------------------------------

  Dipole Moment: [D]
     X:    -0.4091      Y:    -0.9841      Z:     0.0500     Total:     1.0669

*** Psi4 exiting successfully. Buy a developer a beer!
