                               Psi4 1.3.2 release

  ==> Input File <==

--------------------------------------------------------------------------
#psi4
#
memory 32 gb

molecule  {
0 1
  O       -1.6636540     1.3623100    -0.0826750
  O        3.2950020     0.8732560    -0.0394660
  O        2.6676780    -1.2988900     0.0825990
  C       -2.5713650    -0.8630400     0.0337620
  C       -1.4513780     0.1516300    -0.0098980
  C       -3.9526870    -0.2300600    -0.0211700
  C       -0.0322121    -0.4262942     0.0345647
  C        0.9984040     0.4317740    -0.0078830
  C        2.3702780    -0.1170190     0.0219370
  H       -2.4419680    -1.4628000     0.9443570
  H       -2.4189490    -1.5634100    -0.8003330
  H       -4.1001540     0.4487780     0.8215890
  H       -4.7285220    -0.9991160     0.0102380
  H       -4.0749460     0.3516660    -0.9371360
  H        0.0882100    -1.4658090     0.0960520
  H        0.9058311     1.5115678    -0.0687458
  H        4.1643390     0.4215720    -0.0233140
units angstrom
no_reorient  #important for SAPT in psi4, default
symmetry c1  #important for SAPT in psi4, default
}

set PROPERTIES_ORIGIN ["COM"]
properties('MP2/aug-cc-pvtz', properties = ['dipole'])
--------------------------------------------------------------------------

    Molecular point group: c1
  Charge       = 0
  Multiplicity = 1
  Basis Set: AUG-CC-PVTZ
    Blend: AUG-CC-PVTZ
  Basis Set: (AUG-CC-PVTZ AUX)
    Blend: AUG-CC-PVTZ-JKFIT

    Orbital Energies [Eh]
    ---------------------

    Doubly Occupied:

       1A    -20.626407     2A    -20.561668     3A    -20.559307
       4A    -11.402610     5A    -11.352785     6A    -11.277144
       7A    -11.275058     8A    -11.252553     9A    -11.225216
      10A     -1.470974    11A     -1.389903    12A     -1.366101
      13A     -1.107986    14A     -1.065564    15A     -0.953437
      16A     -0.887181    17A     -0.794880    18A     -0.752491
      19A     -0.716851    20A     -0.713237    21A     -0.656264
      22A     -0.643163    23A     -0.641852    24A     -0.638459
      25A     -0.608972    26A     -0.578970    27A     -0.539209
      28A     -0.538690    29A     -0.524041    30A     -0.500449
      31A     -0.495555    32A     -0.469010    33A     -0.432103
      34A     -0.405055

  @DF-RHF Final Energy:  -456.62616800961644

   => Energetics <=

    Nuclear Repulsion Energy =            413.1036853258065094
    One-Electron Energy =               -1442.6134121244399466
    Two-Electron Energy =                 572.8835587890170018
    Total Energy =                       -456.6261680096164355
  Basis Set: (AUG-CC-PVTZ AUX)
    Blend: AUG-CC-PVTZ-RI
    Molecular point group: c1

    Geometry (in Angstrom), charge = 0, multiplicity = 1:

       Center              X                  Y                   Z               Mass
    ------------   -----------------  -----------------  -----------------  -----------------
         O           -1.666701545580     1.365693021208    -0.082880571396    15.994914619570
         O            3.291954454420     0.876639021208    -0.039671571396    15.994914619570
         O            2.664630454420    -1.295506978792     0.082393428604    15.994914619570
         C           -2.574412545580    -0.859656978792     0.033556428604    12.000000000000
         C           -1.454425545580     0.155013021208    -0.010103571396    12.000000000000
         C           -3.955734545580    -0.226676978792    -0.021375571396    12.000000000000
         C           -0.035259645580    -0.422911178792     0.034359128604    12.000000000000
         C            0.995356454420     0.435157021208    -0.008088571396    12.000000000000
         C            2.367230454420    -0.113635978792     0.021731428604    12.000000000000
         H           -2.445015545580    -1.459416978792     0.944151428604     1.007825032230
         H           -2.421996545580    -1.560026978792    -0.800538571396     1.007825032230
         H           -4.103201545580     0.452161021208     0.821383428604     1.007825032230
         H           -4.731569545580    -0.995732978792     0.010032428604     1.007825032230
         H           -4.077993545580     0.355049021208    -0.937341571396     1.007825032230
         H            0.085162454420    -1.462425978792     0.095846428604     1.007825032230
         H            0.902783554420     1.514950821208    -0.068951371396     1.007825032230
         H            4.161291454420     0.424955021208    -0.023519571396     1.007825032230

  Basis Set: AUG-CC-PVTZ
    Blend: AUG-CC-PVTZ
  Basis Set: (AUG-CC-PVTZ AUX)
    Blend: AUG-CC-PVTZ-JKFIT
	 Reference Energy          =    -456.6261680096164355 [Eh]
	 Singles Energy            =      -0.0000000000000000 [Eh]
	 Same-Spin Energy          =      -0.4479368799786117 [Eh]
	 Opposite-Spin Energy      =      -1.4086779516545405 [Eh]
	 Correlation Energy        =      -1.8566148316331521 [Eh]
	 Total Energy              =    -458.4827828412495592 [Eh]

	 ================> DF-SCS-MP2 Energies <==================
	-----------------------------------------------------------
	 SCS Same-Spin Scale       =       0.3333333333333333 [-]
	 SCS Opposite-Spin Scale   =       1.2000000000000000 [-]
	 SCS Same-Spin Energy      =      -0.1493122933262039 [Eh]
	 SCS Opposite-Spin Energy  =      -1.6904135419854485 [Eh]
	 SCS Correlation Energy    =      -1.8397258353116523 [Eh]
	 SCS Total Energy          =    -458.4658938449280754 [Eh]
	-----------------------------------------------------------

  Dipole Moment: [D]
     X:    -0.2389      Y:    -1.1775      Z:     0.0612     Total:     1.2030

*** Psi4 exiting successfully. Buy a developer a beer!
