                               Psi4 1.3.2 release

  ==> Input File <==

--------------------------------------------------------------------------
#psi4
#
memory 32 gb

molecule  {
0 1
  O       -1.6636540     1.3623100    -0.0826750
  O        3.2950020     0.8732560    -0.0394660
  O        2.6676780    -1.2988900     0.0825990
  C       -2.5713650    -0.8630400     0.0337620
  C       -1.4513780     0.1516300    -0.0098980
  C       -3.9526870    -0.2300600    -0.0211700
  C       -0.0615660    -0.3898680     0.0323710
  C        0.9984040     0.4317740    -0.0078830
  C        2.3702780    -0.1170190     0.0219370
  H       -2.4419680    -1.4628000     0.9443570
  H       -2.4189490    -1.5634100    -0.8003330
  H       -4.1001540     0.4487780     0.8215890
  H       -4.7285220    -0.9991160     0.0102380
  H       -4.0749460     0.3516660    -0.9371360
  H        0.0882100    -1.4658090     0.0960520
  H        0.8681440     1.5076730    -0.0687300
  H        4.0756139     0.4676712    -0.0249625
units angstrom
no_reorient  #important for SAPT in psi4, default
symmetry c1  #important for SAPT in psi4, default
}

set PROPERTIES_ORIGIN ["COM"]
properties('MP2/aug-cc-pvtz', properties = ['dipole'])
--------------------------------------------------------------------------

    Molecular point group: c1
  Charge       = 0
  Multiplicity = 1
  Basis Set: AUG-CC-PVTZ
    Blend: AUG-CC-PVTZ
  Basis Set: (AUG-CC-PVTZ AUX)
    Blend: AUG-CC-PVTZ-JKFIT

    Orbital Energies [Eh]
    ---------------------

    Doubly Occupied:

       1A    -20.620247     2A    -20.563410     3A    -20.561261
       4A    -11.407418     5A    -11.350499     6A    -11.277584
       7A    -11.275849     8A    -11.252910     9A    -11.225500
      10A     -1.490428    11A     -1.391180    12A     -1.377229
      13A     -1.110575    14A     -1.066447    15A     -0.963487
      16A     -0.895183    17A     -0.809412    18A     -0.747960
      19A     -0.724471    20A     -0.717962    21A     -0.662980
      22A     -0.646508    23A     -0.642934    24A     -0.640789
      25A     -0.613300    26A     -0.571517    27A     -0.540591
      28A     -0.539860    29A     -0.524807    30A     -0.503216
      31A     -0.497565    32A     -0.473156    33A     -0.435933
      34A     -0.404944

  @DF-RHF Final Energy:  -456.62380926331412

   => Energetics <=

    Nuclear Repulsion Energy =            414.1246872367989340
    One-Electron Energy =               -1444.4427745367634088
    Two-Electron Energy =                 573.6942780366503030
    Total Energy =                       -456.6238092633141150
  Basis Set: (AUG-CC-PVTZ AUX)
    Blend: AUG-CC-PVTZ-RI
    Molecular point group: c1

    Geometry (in Angstrom), charge = 0, multiplicity = 1:

       Center              X                  Y                   Z               Mass
    ------------   -----------------  -----------------  -----------------  -----------------
         O           -1.662955679683     1.361947148507    -0.082662137534    15.994914619570
         O            3.295700320317     0.872893148507    -0.039453137534    15.994914619570
         O            2.668376320317    -1.299252851493     0.082611862466    15.994914619570
         C           -2.570666679683    -0.863402851493     0.033774862466    12.000000000000
         C           -1.450679679683     0.151267148507    -0.009885137534    12.000000000000
         C           -3.951988679683    -0.230422851493    -0.021157137534    12.000000000000
         C           -0.060867679683    -0.390230851493     0.032383862466    12.000000000000
         C            0.999102320317     0.431411148507    -0.007870137534    12.000000000000
         C            2.370976320317    -0.117381851493     0.021949862466    12.000000000000
         H           -2.441269679683    -1.463162851493     0.944369862466     1.007825032230
         H           -2.418250679683    -1.563772851493    -0.800320137534     1.007825032230
         H           -4.099455679683     0.448415148507     0.821601862466     1.007825032230
         H           -4.727823679683    -0.999478851493     0.010250862466     1.007825032230
         H           -4.074247679683     0.351303148507    -0.937123137534     1.007825032230
         H            0.088908320317    -1.466171851493     0.096064862466     1.007825032230
         H            0.868842320317     1.507310148507    -0.068717137534     1.007825032230
         H            4.076312220317     0.467308348507    -0.024949637534     1.007825032230

  Basis Set: AUG-CC-PVTZ
    Blend: AUG-CC-PVTZ
  Basis Set: (AUG-CC-PVTZ AUX)
    Blend: AUG-CC-PVTZ-JKFIT
	 Reference Energy          =    -456.6238092633141150 [Eh]
	 Singles Energy            =      -0.0000000000000000 [Eh]
	 Same-Spin Energy          =      -0.4470061673210352 [Eh]
	 Opposite-Spin Energy      =      -1.4062419884191621 [Eh]
	 Correlation Energy        =      -1.8532481557401974 [Eh]
	 Total Energy              =    -458.4770574190542902 [Eh]

	 ================> DF-SCS-MP2 Energies <==================
	-----------------------------------------------------------
	 SCS Same-Spin Scale       =       0.3333333333333333 [-]
	 SCS Opposite-Spin Scale   =       1.2000000000000000 [-]
	 SCS Same-Spin Energy      =      -0.1490020557736784 [Eh]
	 SCS Opposite-Spin Energy  =      -1.6874903861029946 [Eh]
	 SCS Correlation Energy    =      -1.8364924418766730 [Eh]
	 SCS Total Energy          =    -458.4603017051907727 [Eh]
	-----------------------------------------------------------

  Dipole Moment: [D]
     X:    -0.3181      Y:    -1.1662      Z:     0.0619     Total:     1.2104

*** Psi4 exiting successfully. Buy a developer a beer!
