                               Psi4 1.3.2 release

  ==> Input File <==

--------------------------------------------------------------------------
#psi4
#
memory 32 gb

molecule  {
0 1
  O       -1.7058492     1.3541433    -0.0827668
  O        3.2950020     0.8732560    -0.0394660
  O        2.6676780    -1.2988900     0.0825990
  C       -2.6061200    -0.8234238     0.0310092
  C       -1.4513780     0.1516300    -0.0098980
  C       -3.9526870    -0.2300600    -0.0211700
  C       -0.0615660    -0.3898680     0.0323710
  C        0.9984040     0.4317740    -0.0078830
  C        2.3702780    -0.1170190     0.0219370
  H       -2.4419680    -1.4628000     0.9443570
  H       -2.4189490    -1.5634100    -0.8003330
  H       -4.1001540     0.4487780     0.8215890
  H       -4.7285220    -0.9991160     0.0102380
  H       -4.0749460     0.3516660    -0.9371360
  H        0.0882100    -1.4658090     0.0960520
  H        0.8681440     1.5076730    -0.0687300
  H        4.1643390     0.4215720    -0.0233140
units angstrom
no_reorient  #important for SAPT in psi4, default
symmetry c1  #important for SAPT in psi4, default
}

set PROPERTIES_ORIGIN ["COM"]
properties('MP2/aug-cc-pvtz', properties = ['dipole'])
--------------------------------------------------------------------------

    Molecular point group: c1
  Charge       = 0
  Multiplicity = 1
  Basis Set: AUG-CC-PVTZ
    Blend: AUG-CC-PVTZ
  Basis Set: (AUG-CC-PVTZ AUX)
    Blend: AUG-CC-PVTZ-JKFIT

    Orbital Energies [Eh]
    ---------------------

    Doubly Occupied:

       1A    -20.628796     2A    -20.562805     3A    -20.558700
       4A    -11.406962     5A    -11.349407     6A    -11.280057
       7A    -11.278047     8A    -11.253570     9A    -11.221834
      10A     -1.473500    11A     -1.390092    12A     -1.368822
      13A     -1.110837    14A     -1.069839    15A     -0.959981
      16A     -0.887040    17A     -0.797829    18A     -0.748216
      19A     -0.716977    20A     -0.714235    21A     -0.663952
      22A     -0.643596    23A     -0.640330    24A     -0.636042
      25A     -0.608459    26A     -0.572211    27A     -0.550997
      28A     -0.539389    29A     -0.522616    30A     -0.499792
      31A     -0.485870    32A     -0.472785    33A     -0.433355
      34A     -0.406398

  @DF-RHF Final Energy:  -456.62409308640457

   => Energetics <=

    Nuclear Repulsion Energy =            413.6285862321957438
    One-Electron Energy =               -1443.5986800373480037
    Two-Electron Energy =                 573.3460007187477459
    Total Energy =                       -456.6240930864046277
  Basis Set: (AUG-CC-PVTZ AUX)
    Blend: AUG-CC-PVTZ-RI
    Molecular point group: c1

    Geometry (in Angstrom), charge = 0, multiplicity = 1:

       Center              X                  Y                   Z               Mass
    ------------   -----------------  -----------------  -----------------  -----------------
         O           -1.697321359661     1.351450772674    -0.082497465728    15.994914619570
         O            3.303529840339     0.870563472674    -0.039196665728    15.994914619570
         O            2.676205840339    -1.301582527326     0.082868334272    15.994914619570
         C           -2.597592159661    -0.826116327326     0.031278534272    12.000000000000
         C           -1.442850159661     0.148937472674    -0.009628665728    12.000000000000
         C           -3.944159159661    -0.232752527326    -0.020900665728    12.000000000000
         C           -0.053038159661    -0.392560527326     0.032640334272    12.000000000000
         C            1.006931840339     0.429081472674    -0.007613665728    12.000000000000
         C            2.378805840339    -0.119711527326     0.022206334272    12.000000000000
         H           -2.433440159661    -1.465492527326     0.944626334272     1.007825032230
         H           -2.410421159661    -1.566102527326    -0.800063665728     1.007825032230
         H           -4.091626159661     0.446085472674     0.821858334272     1.007825032230
         H           -4.719994159661    -1.001808527326     0.010507334272     1.007825032230
         H           -4.066418159661     0.348973472674    -0.936866665728     1.007825032230
         H            0.096737840339    -1.468501527326     0.096321334272     1.007825032230
         H            0.876671840339     1.504980472674    -0.068460665728     1.007825032230
         H            4.172866840339     0.418879472674    -0.023044665728     1.007825032230

  Basis Set: AUG-CC-PVTZ
    Blend: AUG-CC-PVTZ
  Basis Set: (AUG-CC-PVTZ AUX)
    Blend: AUG-CC-PVTZ-JKFIT
	 Reference Energy          =    -456.6240930864045708 [Eh]
	 Singles Energy            =      -0.0000000000000000 [Eh]
	 Same-Spin Energy          =      -0.4487508927148126 [Eh]
	 Opposite-Spin Energy      =      -1.4096090782523960 [Eh]
	 Correlation Energy        =      -1.8583599709672085 [Eh]
	 Total Energy              =    -458.4824530573717993 [Eh]

	 ================> DF-SCS-MP2 Energies <==================
	-----------------------------------------------------------
	 SCS Same-Spin Scale       =       0.3333333333333333 [-]
	 SCS Opposite-Spin Scale   =       1.2000000000000000 [-]
	 SCS Same-Spin Energy      =      -0.1495836309049375 [Eh]
	 SCS Opposite-Spin Energy  =      -1.6915308939028753 [Eh]
	 SCS Correlation Energy    =      -1.8411145248078127 [Eh]
	 SCS Total Energy          =    -458.4652076112124064 [Eh]
	-----------------------------------------------------------

  Dipole Moment: [D]
     X:    -0.0546      Y:    -1.1612      Z:     0.0614     Total:     1.1641

*** Psi4 exiting successfully. Buy a developer a beer!
