                               Psi4 1.3.2 release

  ==> Input File <==

--------------------------------------------------------------------------
#psi4
#
memory 32 gb

molecule  {
0 1
  O       -1.6636540     1.3623100    -0.0826750
  O        3.2950020     0.8732560    -0.0394660
  O        2.6676780    -1.2988900     0.0825990
  C       -2.5713650    -0.8630400     0.0337620
  C       -1.4513780     0.1516300    -0.0098980
  C       -3.9526870    -0.2300600    -0.0211700
  C       -0.0615660    -0.3898680     0.0323710
  C        0.9984040     0.4317740    -0.0078830
  C        2.3886231    -0.0688847     0.0191923
  H       -2.4419680    -1.4628000     0.9443570
  H       -2.4189490    -1.5634100    -0.8003330
  H       -4.1001540     0.4487780     0.8215890
  H       -4.7285220    -0.9991160     0.0102380
  H       -4.0749460     0.3516660    -0.9371360
  H        0.0882100    -1.4658090     0.0960520
  H        0.9058317     1.5115543    -0.0689851
  H        4.1643390     0.4215720    -0.0233140
units angstrom
no_reorient  #important for SAPT in psi4, default
symmetry c1  #important for SAPT in psi4, default
}

set PROPERTIES_ORIGIN ["COM"]
properties('MP2/aug-cc-pvtz', properties = ['dipole'])
--------------------------------------------------------------------------

    Molecular point group: c1
  Charge       = 0
  Multiplicity = 1
  Basis Set: AUG-CC-PVTZ
    Blend: AUG-CC-PVTZ
  Basis Set: (AUG-CC-PVTZ AUX)
    Blend: AUG-CC-PVTZ-JKFIT

    Orbital Energies [Eh]
    ---------------------

    Doubly Occupied:

       1A    -20.641336     2A    -20.560070     3A    -20.550980
       4A    -11.406759     5A    -11.349555     6A    -11.277309
       7A    -11.275527     8A    -11.252042     9A    -11.224812
      10A     -1.490355    11A     -1.389963    12A     -1.345890
      13A     -1.107342    14A     -1.065120    15A     -0.961047
      16A     -0.892935    17A     -0.809142    18A     -0.745516
      19A     -0.719033    20A     -0.717530    21A     -0.661998
      22A     -0.652300    23A     -0.642502    24A     -0.640735
      25A     -0.601288    26A     -0.562904    27A     -0.539679
      28A     -0.538766    29A     -0.523921    30A     -0.498924
      31A     -0.486115    32A     -0.463674    33A     -0.434931
      34A     -0.401656

  @DF-RHF Final Energy:  -456.62220384553552

   => Energetics <=

    Nuclear Repulsion Energy =            413.3150650973918800
    One-Electron Energy =               -1443.0112296478839653
    Two-Electron Energy =                 573.0739607049565620
    Total Energy =                       -456.6222038455355232
  Basis Set: (AUG-CC-PVTZ AUX)
    Blend: AUG-CC-PVTZ-RI
    Molecular point group: c1

    Geometry (in Angstrom), charge = 0, multiplicity = 1:

       Center              X                  Y                   Z               Mass
    ------------   -----------------  -----------------  -----------------  -----------------
         O           -1.665669856901     1.357768511713    -0.082415884113    15.994914619570
         O            3.292986143099     0.868714511713    -0.039206884113    15.994914619570
         O            2.665662143099    -1.303431488287     0.082858115887    15.994914619570
         C           -2.573380856901    -0.867581488287     0.034021115887    12.000000000000
         C           -1.453393856901     0.147088511713    -0.009638884113    12.000000000000
         C           -3.954702856901    -0.234601488287    -0.020910884113    12.000000000000
         C           -0.063581856901    -0.394409488287     0.032630115887    12.000000000000
         C            0.996388143099     0.427232511713    -0.007623884113    12.000000000000
         C            2.386607243099    -0.073426188287     0.019451415887    12.000000000000
         H           -2.443983856901    -1.467341488287     0.944616115887     1.007825032230
         H           -2.420964856901    -1.567951488287    -0.800073884113     1.007825032230
         H           -4.102169856901     0.444236511713     0.821848115887     1.007825032230
         H           -4.730537856901    -1.003657488287     0.010497115887     1.007825032230
         H           -4.076961856901     0.347124511713    -0.936876884113     1.007825032230
         H            0.086194143099    -1.470350488287     0.096311115887     1.007825032230
         H            0.903815843099     1.507012811713    -0.068725984113     1.007825032230
         H            4.162323143099     0.417030511713    -0.023054884113     1.007825032230

  Basis Set: AUG-CC-PVTZ
    Blend: AUG-CC-PVTZ
  Basis Set: (AUG-CC-PVTZ AUX)
    Blend: AUG-CC-PVTZ-JKFIT
	 Reference Energy          =    -456.6222038455355232 [Eh]
	 Singles Energy            =      -0.0000000000000000 [Eh]
	 Same-Spin Energy          =      -0.4487800664764914 [Eh]
	 Opposite-Spin Energy      =      -1.4099115086526988 [Eh]
	 Correlation Energy        =      -1.8586915751291901 [Eh]
	 Total Energy              =    -458.4808954206646945 [Eh]

	 ================> DF-SCS-MP2 Energies <==================
	-----------------------------------------------------------
	 SCS Same-Spin Scale       =       0.3333333333333333 [-]
	 SCS Opposite-Spin Scale   =       1.2000000000000000 [-]
	 SCS Same-Spin Energy      =      -0.1495933554921638 [Eh]
	 SCS Opposite-Spin Energy  =      -1.6918938103832384 [Eh]
	 SCS Correlation Energy    =      -1.8414871658754022 [Eh]
	 SCS Total Energy          =    -458.4636910114109014 [Eh]
	-----------------------------------------------------------

  Dipole Moment: [D]
     X:     0.0561      Y:    -0.8149      Z:     0.0402     Total:     0.8178

*** Psi4 exiting successfully. Buy a developer a beer!
