                               Psi4 1.3.2 release

  ==> Input File <==

--------------------------------------------------------------------------
#psi4
#
memory 32 gb

molecule  {
0 1
  O       -1.6636540     1.3623100    -0.0826750
  O        3.2863092     0.8812809    -0.0398178
  O        2.6573399    -1.3014317     0.0828283
  C       -2.5713650    -0.8630400     0.0337620
  C       -1.4513780     0.1516300    -0.0098980
  C       -3.9526870    -0.2300600    -0.0211700
  C       -0.0615660    -0.3898680     0.0323710
  C        0.9984040     0.4317740    -0.0078830
  C        2.3702780    -0.1170190     0.0219370
  H       -2.4419680    -1.4628000     0.9443570
  H       -2.4189490    -1.5634100    -0.8003330
  H       -4.1001540     0.4487780     0.8215890
  H       -4.7285220    -0.9991160     0.0102380
  H       -4.0749460     0.3516660    -0.9371360
  H        0.0882100    -1.4658090     0.0960520
  H        0.8681440     1.5076730    -0.0687300
  H        4.1643390     0.4215720    -0.0233140
units angstrom
no_reorient  #important for SAPT in psi4, default
symmetry c1  #important for SAPT in psi4, default
}

set PROPERTIES_ORIGIN ["COM"]
properties('MP2/aug-cc-pvtz', properties = ['dipole'])
--------------------------------------------------------------------------

    Molecular point group: c1
  Charge       = 0
  Multiplicity = 1
  Basis Set: AUG-CC-PVTZ
    Blend: AUG-CC-PVTZ
  Basis Set: (AUG-CC-PVTZ AUX)
    Blend: AUG-CC-PVTZ-JKFIT

    Orbital Energies [Eh]
    ---------------------

    Doubly Occupied:

       1A    -20.630067     2A    -20.562092     3A    -20.560156
       4A    -11.405572     5A    -11.349451     6A    -11.275988
       7A    -11.274294     8A    -11.252143     9A    -11.224904
      10A     -1.471300    11A     -1.390118    12A     -1.368363
      13A     -1.108256    14A     -1.065255    15A     -0.956397
      16A     -0.886634    17A     -0.797328    18A     -0.746513
      19A     -0.717547    20A     -0.713396    21A     -0.661196
      22A     -0.643988    23A     -0.640096    24A     -0.639154
      25A     -0.606543    26A     -0.569947    27A     -0.539659
      28A     -0.538996    29A     -0.524098    30A     -0.501198
      31A     -0.496289    32A     -0.471466    33A     -0.434816
      34A     -0.403567

  @DF-RHF Final Energy:  -456.62722077037574

   => Energetics <=

    Nuclear Repulsion Energy =            413.5246419621413452
    One-Electron Energy =               -1443.4501568928835695
    Two-Electron Energy =                 573.2982941603665950
    Total Energy =                       -456.6272207703757431
  Basis Set: (AUG-CC-PVTZ AUX)
    Blend: AUG-CC-PVTZ-RI
    Molecular point group: c1

    Geometry (in Angstrom), charge = 0, multiplicity = 1:

       Center              X                  Y                   Z               Mass
    ------------   -----------------  -----------------  -----------------  -----------------
         O           -1.661276783136     1.361625053673    -0.082659810446    15.994914619570
         O            3.288686416864     0.880595953673    -0.039802610446    15.994914619570
         O            2.659717116864    -1.302116646327     0.082843489554    15.994914619570
         C           -2.568987783136    -0.863724946327     0.033777189554    12.000000000000
         C           -1.449000783136     0.150945053673    -0.009882810446    12.000000000000
         C           -3.950309783136    -0.230744946327    -0.021154810446    12.000000000000
         C           -0.059188783136    -0.390552946327     0.032386189554    12.000000000000
         C            1.000781216864     0.431089053673    -0.007867810446    12.000000000000
         C            2.372655216864    -0.117703946327     0.021952189554    12.000000000000
         H           -2.439590783136    -1.463484946327     0.944372189554     1.007825032230
         H           -2.416571783136    -1.564094946327    -0.800317810446     1.007825032230
         H           -4.097776783136     0.448093053673     0.821604189554     1.007825032230
         H           -4.726144783136    -0.999800946327     0.010253189554     1.007825032230
         H           -4.072568783136     0.350981053673    -0.937120810446     1.007825032230
         H            0.090587216864    -1.466493946327     0.096067189554     1.007825032230
         H            0.870521216864     1.506988053673    -0.068714810446     1.007825032230
         H            4.166716216864     0.420887053673    -0.023298810446     1.007825032230

  Basis Set: AUG-CC-PVTZ
    Blend: AUG-CC-PVTZ
  Basis Set: (AUG-CC-PVTZ AUX)
    Blend: AUG-CC-PVTZ-JKFIT
	 Reference Energy          =    -456.6272207703757431 [Eh]
	 Singles Energy            =      -0.0000000000000000 [Eh]
	 Same-Spin Energy          =      -0.4485205058797755 [Eh]
	 Opposite-Spin Energy      =      -1.4096108464852235 [Eh]
	 Correlation Energy        =      -1.8581313523649992 [Eh]
	 Total Energy              =    -458.4853521227407214 [Eh]

	 ================> DF-SCS-MP2 Energies <==================
	-----------------------------------------------------------
	 SCS Same-Spin Scale       =       0.3333333333333333 [-]
	 SCS Opposite-Spin Scale   =       1.2000000000000000 [-]
	 SCS Same-Spin Energy      =      -0.1495068352932585 [Eh]
	 SCS Opposite-Spin Energy  =      -1.6915330157822681 [Eh]
	 SCS Correlation Energy    =      -1.8410398510755266 [Eh]
	 SCS Total Energy          =    -458.4682606214512930 [Eh]
	-----------------------------------------------------------

  Dipole Moment: [D]
     X:    -0.1050      Y:    -1.1840      Z:     0.0614     Total:     1.1902

*** Psi4 exiting successfully. Buy a developer a beer!
