                               Psi4 1.3.2 release

  ==> Input File <==

--------------------------------------------------------------------------
#psi4
#
memory 32 gb

molecule  {
0 1
  O       -1.6636540     1.3623100    -0.0826750
  O        3.2950020     0.8732560    -0.0394660
  O        2.6676780    -1.2988900     0.0825990
  C       -2.5713650    -0.8630400     0.0337620
  C       -1.4513780     0.1516300    -0.0098980
  C       -3.9526870    -0.2300600    -0.0211700
  C       -0.0615660    -0.3898680     0.0323710
  C        1.0125984     0.4131865    -0.0067001
  C        2.3702780    -0.1170190     0.0219370
  H       -2.4419680    -1.4628000     0.9443570
  H       -2.4189490    -1.5634100    -0.8003330
  H       -4.1001540     0.4487780     0.8215890
  H       -4.7285220    -0.9991160     0.0102380
  H       -4.0749460     0.3516660    -0.9371360
  H        0.1069973    -1.4630277     0.0960241
  H        0.8681440     1.5076730    -0.0687300
  H        4.1643390     0.4215720    -0.0233140
units angstrom
no_reorient  #important for SAPT in psi4, default
symmetry c1  #important for SAPT in psi4, default
}

set PROPERTIES_ORIGIN ["COM"]
properties('MP2/aug-cc-pvtz', properties = ['dipole'])
--------------------------------------------------------------------------

    Molecular point group: c1
  Charge       = 0
  Multiplicity = 1
  Basis Set: AUG-CC-PVTZ
    Blend: AUG-CC-PVTZ
  Basis Set: (AUG-CC-PVTZ AUX)
    Blend: AUG-CC-PVTZ-JKFIT

    Orbital Energies [Eh]
    ---------------------

    Doubly Occupied:

       1A    -20.627493     2A    -20.561890     3A    -20.560724
       4A    -11.404100     5A    -11.351356     6A    -11.277150
       7A    -11.274860     8A    -11.253017     9A    -11.225538
      10A     -1.472429    11A     -1.391508    12A     -1.367489
      13A     -1.110025    14A     -1.066373    15A     -0.959648
      16A     -0.889153    17A     -0.798920    18A     -0.744608
      19A     -0.720313    20A     -0.712471    21A     -0.663703
      22A     -0.644511    23A     -0.639579    24A     -0.639262
      25A     -0.607821    26A     -0.565092    27A     -0.540501
      28A     -0.539740    29A     -0.524859    30A     -0.501262
      31A     -0.496288    32A     -0.471500    33A     -0.436772
      34A     -0.404097

  @DF-RHF Final Energy:  -456.62723940207138

   => Energetics <=

    Nuclear Repulsion Energy =            413.6409602170133439
    One-Electron Energy =               -1443.6482935027818257
    Two-Electron Energy =                 573.3800938836971000
    Total Energy =                       -456.6272394020713818
  Basis Set: (AUG-CC-PVTZ AUX)
    Blend: AUG-CC-PVTZ-RI
    Molecular point group: c1

    Geometry (in Angstrom), charge = 0, multiplicity = 1:

       Center              X                  Y                   Z               Mass
    ------------   -----------------  -----------------  -----------------  -----------------
         O           -1.665132112860     1.364030025476    -0.082785748698    15.994914619570
         O            3.293523887140     0.874976025476    -0.039576748698    15.994914619570
         O            2.666199887140    -1.297169974524     0.082488251302    15.994914619570
         C           -2.572843112860    -0.861319974524     0.033651251302    12.000000000000
         C           -1.452856112860     0.153350025476    -0.010008748698    12.000000000000
         C           -3.954165112860    -0.228339974524    -0.021280748698    12.000000000000
         C           -0.063044112860    -0.388147974524     0.032260251302    12.000000000000
         C            1.011120287140     0.414906525476    -0.006810848698    12.000000000000
         C            2.368799887140    -0.115298974524     0.021826251302    12.000000000000
         H           -2.443446112860    -1.461079974524     0.944246251302     1.007825032230
         H           -2.420427112860    -1.561689974524    -0.800443748698     1.007825032230
         H           -4.101632112860     0.450498025476     0.821478251302     1.007825032230
         H           -4.730000112860    -0.997395974524     0.010127251302     1.007825032230
         H           -4.076424112860     0.353386025476    -0.937246748698     1.007825032230
         H            0.105519187140    -1.461307674524     0.095913351302     1.007825032230
         H            0.866665887140     1.509393025476    -0.068840748698     1.007825032230
         H            4.162860887140     0.423292025476    -0.023424748698     1.007825032230

  Basis Set: AUG-CC-PVTZ
    Blend: AUG-CC-PVTZ
  Basis Set: (AUG-CC-PVTZ AUX)
    Blend: AUG-CC-PVTZ-JKFIT
	 Reference Energy          =    -456.6272394020713818 [Eh]
	 Singles Energy            =      -0.0000000000000000 [Eh]
	 Same-Spin Energy          =      -0.4485243048647596 [Eh]
	 Opposite-Spin Energy      =      -1.4094470158055006 [Eh]
	 Correlation Energy        =      -1.8579713206702602 [Eh]
	 Total Energy              =    -458.4852107227416695 [Eh]

	 ================> DF-SCS-MP2 Energies <==================
	-----------------------------------------------------------
	 SCS Same-Spin Scale       =       0.3333333333333333 [-]
	 SCS Opposite-Spin Scale   =       1.2000000000000000 [-]
	 SCS Same-Spin Energy      =      -0.1495081016215865 [Eh]
	 SCS Opposite-Spin Energy  =      -1.6913364189666007 [Eh]
	 SCS Correlation Energy    =      -1.8408445205881871 [Eh]
	 SCS Total Energy          =    -458.4680839226595594 [Eh]
	-----------------------------------------------------------

  Dipole Moment: [D]
     X:    -0.2094      Y:    -1.1828      Z:     0.0613     Total:     1.2027

*** Psi4 exiting successfully. Buy a developer a beer!
