                               Psi4 1.3.2 release

  ==> Input File <==

--------------------------------------------------------------------------
#psi4
#
memory 32 gb

molecule  {
0 1
  O       -1.6636540     1.3623100    -0.0826750
  O        3.2950020     0.8732560    -0.0394660
  O        2.6573395    -1.3014376     0.0827151
  C       -2.5713650    -0.8630400     0.0337620
  C       -1.4513780     0.1516300    -0.0098980
  C       -3.9526870    -0.2300600    -0.0211700
  C       -0.0615660    -0.3898680     0.0323710
  C        0.9936601     0.4197966    -0.0072786
  C        2.3702780    -0.1170190     0.0219370
  H       -2.4419680    -1.4628000     0.9443570
  H       -2.4189490    -1.5634100    -0.8003330
  H       -4.1001540     0.4487780     0.8215890
  H       -4.7285220    -0.9991160     0.0102380
  H       -4.0749460     0.3516660    -0.9371360
  H        0.0882100    -1.4658090     0.0960520
  H        0.8681440     1.5076730    -0.0687300
  H        4.1643390     0.4215720    -0.0233140
units angstrom
no_reorient  #important for SAPT in psi4, default
symmetry c1  #important for SAPT in psi4, default
}

set PROPERTIES_ORIGIN ["COM"]
properties('MP2/aug-cc-pvtz', properties = ['dipole'])
--------------------------------------------------------------------------

    Molecular point group: c1
  Charge       = 0
  Multiplicity = 1
  Basis Set: AUG-CC-PVTZ
    Blend: AUG-CC-PVTZ
  Basis Set: (AUG-CC-PVTZ AUX)
    Blend: AUG-CC-PVTZ-JKFIT

    Orbital Energies [Eh]
    ---------------------

    Doubly Occupied:

       1A    -20.628979     2A    -20.561510     3A    -20.560374
       4A    -11.405567     5A    -11.349707     6A    -11.275232
       7A    -11.273229     8A    -11.252284     9A    -11.224998
      10A     -1.472506    11A     -1.390310    12A     -1.368522
      13A     -1.110419    14A     -1.065599    15A     -0.956576
      16A     -0.888114    17A     -0.799086    18A     -0.745228
      19A     -0.718754    20A     -0.713347    21A     -0.662637
      22A     -0.644134    23A     -0.640250    24A     -0.639244
      25A     -0.607559    26A     -0.567062    27A     -0.540000
      28A     -0.539298    29A     -0.524208    30A     -0.501332
      31A     -0.496222    32A     -0.470837    33A     -0.435095
      34A     -0.405912

  @DF-RHF Final Energy:  -456.62852559789224

   => Energetics <=

    Nuclear Repulsion Energy =            413.6566328803112356
    One-Electron Energy =               -1443.7020535461660984
    Two-Electron Energy =                 573.4168950679626278
    Total Energy =                       -456.6285255978922351
  Basis Set: (AUG-CC-PVTZ AUX)
    Blend: AUG-CC-PVTZ-RI
    Molecular point group: c1

    Geometry (in Angstrom), charge = 0, multiplicity = 1:

       Center              X                  Y                   Z               Mass
    ------------   -----------------  -----------------  -----------------  -----------------
         O           -1.661918009992     1.363750679645    -0.082746256492    15.994914619570
         O            3.296737990008     0.874696679645    -0.039537256492    15.994914619570
         O            2.659075490008    -1.299996920355     0.082643843508    15.994914619570
         C           -2.569629009992    -0.861599320355     0.033690743508    12.000000000000
         C           -1.449642009992     0.153070679645    -0.009969256492    12.000000000000
         C           -3.950951009992    -0.228619320355    -0.021241256492    12.000000000000
         C           -0.059830009992    -0.388427320355     0.032299743508    12.000000000000
         C            0.995396090008     0.421237279645    -0.007349856492    12.000000000000
         C            2.372013990008    -0.115578320355     0.021865743508    12.000000000000
         H           -2.440232009992    -1.461359320355     0.944285743508     1.007825032230
         H           -2.417213009992    -1.561969320355    -0.800404256492     1.007825032230
         H           -4.098418009992     0.450218679645     0.821517743508     1.007825032230
         H           -4.726786009992    -0.997675320355     0.010166743508     1.007825032230
         H           -4.073210009992     0.353106679645    -0.937207256492     1.007825032230
         H            0.089945990008    -1.464368320355     0.095980743508     1.007825032230
         H            0.869879990008     1.509113679645    -0.068801256492     1.007825032230
         H            4.166074990008     0.423012679645    -0.023385256492     1.007825032230

  Basis Set: AUG-CC-PVTZ
    Blend: AUG-CC-PVTZ
  Basis Set: (AUG-CC-PVTZ AUX)
    Blend: AUG-CC-PVTZ-JKFIT
	 Reference Energy          =    -456.6285255978922351 [Eh]
	 Singles Energy            =      -0.0000000000000000 [Eh]
	 Same-Spin Energy          =      -0.4481894455752152 [Eh]
	 Opposite-Spin Energy      =      -1.4088714040203283 [Eh]
	 Correlation Energy        =      -1.8570608495955434 [Eh]
	 Total Energy              =    -458.4855864474877762 [Eh]

	 ================> DF-SCS-MP2 Energies <==================
	-----------------------------------------------------------
	 SCS Same-Spin Scale       =       0.3333333333333333 [-]
	 SCS Opposite-Spin Scale   =       1.2000000000000000 [-]
	 SCS Same-Spin Energy      =      -0.1493964818584051 [Eh]
	 SCS Opposite-Spin Energy  =      -1.6906456848243938 [Eh]
	 SCS Correlation Energy    =      -1.8400421666827989 [Eh]
	 SCS Total Energy          =    -458.4685677645750275 [Eh]
	-----------------------------------------------------------

  Dipole Moment: [D]
     X:    -0.1290      Y:    -1.1819      Z:     0.0616     Total:     1.1905

*** Psi4 exiting successfully. Buy a developer a beer!
