                               Psi4 1.3.2 release

  ==> Input File <==

--------------------------------------------------------------------------
#psi4
#
memory 32 gb

molecule  {
0 1
  O       -1.6636540     1.3623100    -0.0826750
  O        3.2950020     0.8732560    -0.0394660
  O        2.6676780    -1.2988900     0.0825990
  C       -2.5713650    -0.8630400     0.0337620
  C       -1.4168981    -0.0450204     0.0019231
  C       -3.9526870    -0.2300600    -0.0211700
  C       -0.0615660    -0.3898680     0.0323710
  C        0.9984040     0.4317740    -0.0078830
  C        2.3702780    -0.1170190     0.0219370
  H       -2.4419680    -1.4628000     0.9443570
  H       -2.4189490    -1.5634100    -0.8003330
  H       -4.1001540     0.4487780     0.8215890
  H       -4.7285220    -0.9991160     0.0102380
  H       -4.0749460     0.3516660    -0.9371360
  H        0.0882100    -1.4658090     0.0960520
  H        0.8681440     1.5076730    -0.0687300
  H        4.1643390     0.4215720    -0.0233140
units angstrom
no_reorient  #important for SAPT in psi4, default
symmetry c1  #important for SAPT in psi4, default
}

set PROPERTIES_ORIGIN ["COM"]
properties('MP2/aug-cc-pvtz', properties = ['dipole'])
--------------------------------------------------------------------------

    Molecular point group: c1
  Charge       = 0
  Multiplicity = 1
  Basis Set: AUG-CC-PVTZ
    Blend: AUG-CC-PVTZ
  Basis Set: (AUG-CC-PVTZ AUX)
    Blend: AUG-CC-PVTZ-JKFIT

    Orbital Energies [Eh]
    ---------------------

    Doubly Occupied:

       1A    -20.633366     2A    -20.568767     3A    -20.540169
       4A    -11.412789     5A    -11.358745     6A    -11.292180
       7A    -11.278950     8A    -11.259201     9A    -11.229534
      10A     -1.478355    11A     -1.373897    12A     -1.283220
      13A     -1.121422    14A     -1.084884    15A     -0.981090
      16A     -0.906188    17A     -0.819103    18A     -0.747542
      19A     -0.719405    20A     -0.715236    21A     -0.665681
      22A     -0.651885    23A     -0.645929    24A     -0.631134
      25A     -0.598762    26A     -0.558820    27A     -0.544507
      28A     -0.529829    29A     -0.504990    30A     -0.496572
      31A     -0.479107    32A     -0.467212    33A     -0.434518
      34A     -0.387365

  @DF-RHF Final Energy:  -456.55458322594222

   => Energetics <=

    Nuclear Repulsion Energy =            412.7037240483166443
    One-Electron Energy =               -1441.7159093774307621
    Two-Electron Energy =                 572.4576021031718938
    Total Energy =                       -456.5545832259422241
  Basis Set: (AUG-CC-PVTZ AUX)
    Blend: AUG-CC-PVTZ-RI
    Molecular point group: c1

    Geometry (in Angstrom), charge = 0, multiplicity = 1:

       Center              X                  Y                   Z               Mass
    ------------   -----------------  -----------------  -----------------  -----------------
         O           -1.666885305715     1.380739140987    -0.083782930789    15.994914619570
         O            3.291770694285     0.891685140987    -0.040573930789    15.994914619570
         O            2.664446694285    -1.280460859013     0.081491069211    15.994914619570
         C           -2.574596305715    -0.844610859013     0.032654069211    12.000000000000
         C           -1.420129405715    -0.026591259013     0.000815169211    12.000000000000
         C           -3.955918305715    -0.211630859013    -0.022277930789    12.000000000000
         C           -0.064797305715    -0.371438859013     0.031263069211    12.000000000000
         C            0.995172694285     0.450203140987    -0.008990930789    12.000000000000
         C            2.367046694285    -0.098589859013     0.020829069211    12.000000000000
         H           -2.445199305715    -1.444370859013     0.943249069211     1.007825032230
         H           -2.422180305715    -1.544980859013    -0.801440930789     1.007825032230
         H           -4.103385305715     0.467207140987     0.820481069211     1.007825032230
         H           -4.731753305715    -0.980686859013     0.009130069211     1.007825032230
         H           -4.078177305715     0.370095140987    -0.938243930789     1.007825032230
         H            0.084978694285    -1.447379859013     0.094944069211     1.007825032230
         H            0.864912694285     1.526102140987    -0.069837930789     1.007825032230
         H            4.161107694285     0.440001140987    -0.024421930789     1.007825032230

  Basis Set: AUG-CC-PVTZ
    Blend: AUG-CC-PVTZ
  Basis Set: (AUG-CC-PVTZ AUX)
    Blend: AUG-CC-PVTZ-JKFIT
	 Reference Energy          =    -456.5545832259422241 [Eh]
	 Singles Energy            =      -0.0000000000000000 [Eh]
	 Same-Spin Energy          =      -0.4567052062225940 [Eh]
	 Opposite-Spin Energy      =      -1.4257217795531023 [Eh]
	 Correlation Energy        =      -1.8824269857756963 [Eh]
	 Total Energy              =    -458.4370102117179044 [Eh]

	 ================> DF-SCS-MP2 Energies <==================
	-----------------------------------------------------------
	 SCS Same-Spin Scale       =       0.3333333333333333 [-]
	 SCS Opposite-Spin Scale   =       1.2000000000000000 [-]
	 SCS Same-Spin Energy      =      -0.1522350687408647 [Eh]
	 SCS Opposite-Spin Energy  =      -1.7108661354637227 [Eh]
	 SCS Correlation Energy    =      -1.8631012042045874 [Eh]
	 SCS Total Energy          =    -458.4176844301468350 [Eh]
	-----------------------------------------------------------

  Dipole Moment: [D]
     X:    -0.2459      Y:    -1.5968      Z:     0.0823     Total:     1.6178

*** Psi4 exiting successfully. Buy a developer a beer!
