                               Psi4 1.4a3.dev225

  ==> Input File <==

--------------------------------------------------------------------------
#psi4
#
memory 32 gb

molecule  {
0 1
  O       -1.5457390    -1.4151030    -0.0000120
  O        3.4055420    -0.8324430     0.0000000
  O        2.7346890     1.3362110     0.0000030
  C       -2.4962220     0.7973420     0.0000070
  C       -1.3569730    -0.1975560    -0.0000120
  C       -3.8659970     0.1363490     0.0000100
  C        0.0231420     0.3709680    -0.0000240
  C        1.1002740    -0.4324720     0.0000170
  C        2.5085423     0.1647893     0.0000067
  H       -2.3684100     1.4519690    -0.8733630
  H       -2.3683970     1.4519470     0.8733920
  H       -3.9887950    -0.4970190    -0.8807080
  H       -4.6559460     0.8916380     0.0000190
  H       -3.9887860    -0.4970320     0.8807180
  H        0.1589340     1.4510060    -0.0000590
  H        0.9863010    -1.5124980     0.0000520
  H        4.2687480    -0.3687180    -0.0000090
units angstrom
no_reorient  #important for SAPT in psi4, default
symmetry c1  #important for SAPT in psi4, default
}

set PROPERTIES_ORIGIN ["COM"]
properties('MP2/aug-cc-pvtz', properties = ['dipole'])
--------------------------------------------------------------------------

    Molecular point group: c1
  Charge       = 0
  Multiplicity = 1
  Basis Set: AUG-CC-PVTZ
    Blend: AUG-CC-PVTZ
  Basis Set: (AUG-CC-PVTZ AUX)
    Blend: AUG-CC-PVTZ-JKFIT

    Orbital Energies [Eh]
    ---------------------

    Doubly Occupied:

       1A    -20.634142     2A    -20.566473     3A    -20.556260
       4A    -11.405880     5A    -11.346617     6A    -11.275531
       7A    -11.268840     8A    -11.249927     9A    -11.223092
      10A     -1.486323    11A     -1.388470    12A     -1.385998
      13A     -1.099632    14A     -1.061244    15A     -0.948176
      16A     -0.884282    17A     -0.799056    18A     -0.743199
      19A     -0.721658    20A     -0.716209    21A     -0.664458
      22A     -0.652033    23A     -0.638452    24A     -0.636820
      25A     -0.607008    26A     -0.568293    27A     -0.537058
      28A     -0.536840    29A     -0.522037    30A     -0.508482
      31A     -0.495660    32A     -0.471706    33A     -0.431111
      34A     -0.400021

  @DF-RHF Final Energy:  -456.62820221786859

   => Energetics <=

    Nuclear Repulsion Energy =            413.1280096520237066
    One-Electron Energy =               -1442.6504518597942024
    Two-Electron Energy =                 572.8942399899017346
    Total Energy =                       -456.6282022178686475
  Basis Set: (AUG-CC-PVTZ AUX)
    Blend: AUG-CC-PVTZ-RI
    Molecular point group: c1

    Geometry (in Angstrom), charge = 0, multiplicity = 1:

       Center              X                  Y                   Z               Mass
    ------------   -----------------  -----------------  -----------------  -----------------
         O           -1.642514088260    -1.398594782003    -0.000011646806    15.994914619570
         O            3.308766911740    -0.815934782003     0.000000353194    15.994914619570
         O            2.637913911740     1.352719217997     0.000003353194    15.994914619570
         C           -2.592997088260     0.813850217997     0.000007353194    12.000000000000
         C           -1.453748088260    -0.181047782003    -0.000011646806    12.000000000000
         C           -3.962772088260     0.152857217997     0.000010353194    12.000000000000
         C           -0.073633088260     0.387476217997    -0.000023646806    12.000000000000
         C            1.003498911740    -0.415963782003     0.000017353194    12.000000000000
         C            2.411767211740     0.181297517997     0.000007053194    12.000000000000
         H           -2.465185088260     1.468477217997    -0.873362646806     1.007825032230
         H           -2.465172088260     1.468455217997     0.873392353194     1.007825032230
         H           -4.085570088260    -0.480510782003    -0.880707646806     1.007825032230
         H           -4.752721088260     0.908146217997     0.000019353194     1.007825032230
         H           -4.085561088260    -0.480523782003     0.880718353194     1.007825032230
         H            0.062158911740     1.467514217997    -0.000058646806     1.007825032230
         H            0.889525911740    -1.495989782003     0.000052353194     1.007825032230
         H            4.171972911740    -0.352209782003    -0.000008646806     1.007825032230

  Basis Set: AUG-CC-PVTZ
    Blend: AUG-CC-PVTZ
  Basis Set: (AUG-CC-PVTZ AUX)
    Blend: AUG-CC-PVTZ-JKFIT
	 Reference Energy          =    -456.6282022178685907 [Eh]
	 Singles Energy            =      -0.0000000000000000 [Eh]
	 Same-Spin Energy          =      -0.4474503473354820 [Eh]
	 Opposite-Spin Energy      =      -1.4075185717423697 [Eh]
	 Correlation Energy        =      -1.8549689190778518 [Eh]
	 Total Energy              =    -458.4831711369464529 [Eh]

	 ================> DF-SCS-MP2 Energies <==================
	-----------------------------------------------------------
	 SCS Same-Spin Scale       =       0.3333333333333333 [-]
	 SCS Opposite-Spin Scale   =       1.2000000000000000 [-]
	 SCS Same-Spin Energy      =      -0.1491501157784940 [Eh]
	 SCS Opposite-Spin Energy  =      -1.6890222860908437 [Eh]
	 SCS Correlation Energy    =      -1.8381724018693377 [Eh]
	 SCS Total Energy          =    -458.4663746197379055 [Eh]
	-----------------------------------------------------------

  Dipole Moment: [D]
     X:     0.2305      Y:     1.2461      Z:     0.0000     Total:     1.2673

*** Psi4 exiting successfully. Buy a developer a beer!
