                               Psi4 1.3.2 release

  ==> Input File <==

--------------------------------------------------------------------------
#psi4
#
memory 32 gb

molecule  {
0 1
  O       -1.5998924     1.3717918    -0.0823712
  O        3.2950020     0.8732560    -0.0394660
  O        2.6676780    -1.2988900     0.0825990
  C       -2.5166877    -0.9201318     0.0377905
  C       -1.4513780     0.1516300    -0.0098980
  C       -3.9526870    -0.2300600    -0.0211700
  C       -0.0615660    -0.3898680     0.0323710
  C        0.9984040     0.4317740    -0.0078830
  C        2.3702780    -0.1170190     0.0219370
  H       -2.4419680    -1.4628000     0.9443570
  H       -2.4189490    -1.5634100    -0.8003330
  H       -4.1001540     0.4487780     0.8215890
  H       -4.7285220    -0.9991160     0.0102380
  H       -4.0749460     0.3516660    -0.9371360
  H        0.0882100    -1.4658090     0.0960520
  H        0.8681440     1.5076730    -0.0687300
  H        4.1643390     0.4215720    -0.0233140
units angstrom
no_reorient  #important for SAPT in psi4, default
symmetry c1  #important for SAPT in psi4, default
}

set PROPERTIES_ORIGIN ["COM"]
properties('MP2/aug-cc-pvtz', properties = ['dipole'])
--------------------------------------------------------------------------

    Molecular point group: c1
  Charge       = 0
  Multiplicity = 1
  Basis Set: AUG-CC-PVTZ
    Blend: AUG-CC-PVTZ
  Basis Set: (AUG-CC-PVTZ AUX)
    Blend: AUG-CC-PVTZ-JKFIT

    Orbital Energies [Eh]
    ---------------------

    Doubly Occupied:

       1A    -20.625787     2A    -20.563553     3A    -20.559154
       4A    -11.403130     5A    -11.351477     6A    -11.272665
       7A    -11.270569     8A    -11.252474     9A    -11.230203
      10A     -1.470310    11A     -1.392103    12A     -1.365502
      13A     -1.106705    14A     -1.061754    15A     -0.953174
      16A     -0.888496    17A     -0.801178    18A     -0.745194
      19A     -0.719902    20A     -0.710975    21A     -0.657898
      22A     -0.652480    23A     -0.642687    24A     -0.639110
      25A     -0.604498    26A     -0.567613    27A     -0.541503
      28A     -0.536627    29A     -0.514755    30A     -0.511606
      31A     -0.496103    32A     -0.468746    33A     -0.435347
      34A     -0.400982

  @DF-RHF Final Energy:  -456.62137295968245

   => Energetics <=

    Nuclear Repulsion Energy =            413.3555486894909450
    One-Electron Energy =               -1443.1253179836712661
    Two-Electron Energy =                 573.1483963344978747
    Total Energy =                       -456.6213729596825033
  Basis Set: (AUG-CC-PVTZ AUX)
    Blend: AUG-CC-PVTZ-RI
    Molecular point group: c1

    Geometry (in Angstrom), charge = 0, multiplicity = 1:

       Center              X                  Y                   Z               Mass
    ------------   -----------------  -----------------  -----------------  -----------------
         O           -1.612981232685     1.375957749556    -0.082786793548    15.994914619570
         O            3.281913167315     0.877421949556    -0.039881593548    15.994914619570
         O            2.654589167315    -1.294724050444     0.082183406452    15.994914619570
         C           -2.529776532685    -0.915965850444     0.037374906452    12.000000000000
         C           -1.464466832685     0.155795949556    -0.010313593548    12.000000000000
         C           -3.965775832685    -0.225894050444    -0.021585593548    12.000000000000
         C           -0.074654832685    -0.385702050444     0.031955406452    12.000000000000
         C            0.985315167315     0.435939949556    -0.008298593548    12.000000000000
         C            2.357189167315    -0.112853050444     0.021521406452    12.000000000000
         H           -2.455056832685    -1.458634050444     0.943941406452     1.007825032230
         H           -2.432037832685    -1.559244050444    -0.800748593548     1.007825032230
         H           -4.113242832685     0.452943949556     0.821173406452     1.007825032230
         H           -4.741610832685    -0.994950050444     0.009822406452     1.007825032230
         H           -4.088034832685     0.355831949556    -0.937551593548     1.007825032230
         H            0.075121167315    -1.461643050444     0.095636406452     1.007825032230
         H            0.855055167315     1.511838949556    -0.069145593548     1.007825032230
         H            4.151250167315     0.425737949556    -0.023729593548     1.007825032230

  Basis Set: AUG-CC-PVTZ
    Blend: AUG-CC-PVTZ
  Basis Set: (AUG-CC-PVTZ AUX)
    Blend: AUG-CC-PVTZ-JKFIT
	 Reference Energy          =    -456.6213729596824464 [Eh]
	 Singles Energy            =      -0.0000000000000000 [Eh]
	 Same-Spin Energy          =      -0.4480337652488544 [Eh]
	 Opposite-Spin Energy      =      -1.4092573416670096 [Eh]
	 Correlation Energy        =      -1.8572911069158640 [Eh]
	 Total Energy              =    -458.4786640665982986 [Eh]

	 ================> DF-SCS-MP2 Energies <==================
	-----------------------------------------------------------
	 SCS Same-Spin Scale       =       0.3333333333333333 [-]
	 SCS Opposite-Spin Scale   =       1.2000000000000000 [-]
	 SCS Same-Spin Energy      =      -0.1493445884162848 [Eh]
	 SCS Opposite-Spin Energy  =      -1.6911088100004115 [Eh]
	 SCS Correlation Energy    =      -1.8404533984166962 [Eh]
	 SCS Total Energy          =    -458.4618263580991311 [Eh]
	-----------------------------------------------------------

  Dipole Moment: [D]
     X:    -0.3700      Y:    -1.1932      Z:     0.0603     Total:     1.2507

*** Psi4 exiting successfully. Buy a developer a beer!
