                               Psi4 1.3.2 release

  ==> Input File <==

--------------------------------------------------------------------------
#psi4
#
memory 32 gb

molecule  {
0 1
  O       -1.6636540     1.3623100    -0.0826750
  O        3.2950020     0.8732560    -0.0394660
  O        2.6676780    -1.2988900     0.0825990
  C       -2.5889175    -0.8433751     0.0325412
  C       -1.4513780     0.1516300    -0.0098980
  C       -3.9526870    -0.2300600    -0.0211700
  C       -0.0523017    -0.3655588     0.0311573
  C        0.9984040     0.4317740    -0.0078830
  C        2.3702780    -0.1170190     0.0219370
  H       -2.4419680    -1.4628000     0.9443570
  H       -2.4189490    -1.5634100    -0.8003330
  H       -4.1001540     0.4487780     0.8215890
  H       -4.7285220    -0.9991160     0.0102380
  H       -4.0749460     0.3516660    -0.9371360
  H        0.0882100    -1.4658090     0.0960520
  H        0.8681440     1.5076730    -0.0687300
  H        4.1643390     0.4215720    -0.0233140
units angstrom
no_reorient  #important for SAPT in psi4, default
symmetry c1  #important for SAPT in psi4, default
}

set PROPERTIES_ORIGIN ["COM"]
properties('MP2/aug-cc-pvtz', properties = ['dipole'])
--------------------------------------------------------------------------

    Molecular point group: c1
  Charge       = 0
  Multiplicity = 1
  Basis Set: AUG-CC-PVTZ
    Blend: AUG-CC-PVTZ
  Basis Set: (AUG-CC-PVTZ AUX)
    Blend: AUG-CC-PVTZ-JKFIT

    Orbital Energies [Eh]
    ---------------------

    Doubly Occupied:

       1A    -20.627692     2A    -20.561459     3A    -20.559737
       4A    -11.405665     5A    -11.349604     6A    -11.275409
       7A    -11.272030     8A    -11.254810     9A    -11.224735
      10A     -1.472294    11A     -1.390771    12A     -1.367550
      13A     -1.112369    14A     -1.069356    15A     -0.957034
      16A     -0.888574    17A     -0.799310    18A     -0.743562
      19A     -0.718624    20A     -0.712267    21A     -0.664304
      22A     -0.643382    23A     -0.640561    24A     -0.638160
      25A     -0.607496    26A     -0.564204    27A     -0.546690
      28A     -0.540739    29A     -0.524863    30A     -0.499494
      31A     -0.492563    32A     -0.471322    33A     -0.435024
      34A     -0.408601

  @DF-RHF Final Energy:  -456.62728160391532

   => Energetics <=

    Nuclear Repulsion Energy =            413.8510413621635280
    One-Electron Energy =               -1444.0761327238446938
    Two-Electron Energy =                 573.5978097577659582
    Total Energy =                       -456.6272816039153213
  Basis Set: (AUG-CC-PVTZ AUX)
    Blend: AUG-CC-PVTZ-RI
    Molecular point group: c1

    Geometry (in Angstrom), charge = 0, multiplicity = 1:

       Center              X                  Y                   Z               Mass
    ------------   -----------------  -----------------  -----------------  -----------------
         O           -1.662877278813     1.358188934890    -0.082446962431    15.994914619570
         O            3.295778721187     0.869134934890    -0.039237962431    15.994914619570
         O            2.668454721187    -1.303011065110     0.082827037569    15.994914619570
         C           -2.588140778813    -0.847496165110     0.032769237569    12.000000000000
         C           -1.450601278813     0.147508934890    -0.009669962431    12.000000000000
         C           -3.951910278813    -0.234181065110    -0.020941962431    12.000000000000
         C           -0.051524978813    -0.369679865110     0.031385337569    12.000000000000
         C            0.999180721187     0.427652934890    -0.007654962431    12.000000000000
         C            2.371054721187    -0.121140065110     0.022165037569    12.000000000000
         H           -2.441191278813    -1.466921065110     0.944585037569     1.007825032230
         H           -2.418172278813    -1.567531065110    -0.800104962431     1.007825032230
         H           -4.099377278813     0.444656934890     0.821817037569     1.007825032230
         H           -4.727745278813    -1.003237065110     0.010466037569     1.007825032230
         H           -4.074169278813     0.347544934890    -0.936907962431     1.007825032230
         H            0.088986721187    -1.469930065110     0.096280037569     1.007825032230
         H            0.868920721187     1.503551934890    -0.068501962431     1.007825032230
         H            4.165115721187     0.417450934890    -0.023085962431     1.007825032230

  Basis Set: AUG-CC-PVTZ
    Blend: AUG-CC-PVTZ
  Basis Set: (AUG-CC-PVTZ AUX)
    Blend: AUG-CC-PVTZ-JKFIT
	 Reference Energy          =    -456.6272816039153213 [Eh]
	 Singles Energy            =      -0.0000000000000000 [Eh]
	 Same-Spin Energy          =      -0.4482465319948657 [Eh]
	 Opposite-Spin Energy      =      -1.4087556936538759 [Eh]
	 Correlation Energy        =      -1.8570022256487415 [Eh]
	 Total Energy              =    -458.4842838295640490 [Eh]

	 ================> DF-SCS-MP2 Energies <==================
	-----------------------------------------------------------
	 SCS Same-Spin Scale       =       0.3333333333333333 [-]
	 SCS Opposite-Spin Scale   =       1.2000000000000000 [-]
	 SCS Same-Spin Energy      =      -0.1494155106649552 [Eh]
	 SCS Opposite-Spin Energy  =      -1.6905068323846510 [Eh]
	 SCS Correlation Energy    =      -1.8399223430496063 [Eh]
	 SCS Total Energy          =    -458.4672039469649008 [Eh]
	-----------------------------------------------------------

  Dipole Moment: [D]
     X:    -0.2194      Y:    -1.1813      Z:     0.0610     Total:     1.2031

*** Psi4 exiting successfully. Buy a developer a beer!
