                               Psi4 1.3.2 release

  ==> Input File <==

--------------------------------------------------------------------------
#psi4
#
memory 32 gb

molecule  {
0 1
  O       -1.6424549     1.3658334    -0.0827231
  O        3.2950020     0.8732560    -0.0394660
  O        2.6676780    -1.2988900     0.0825990
  C       -2.5713650    -0.8630400     0.0337620
  C       -1.4513780     0.1516300    -0.0098980
  C       -3.9526870    -0.2300600    -0.0211700
  C       -0.0523005    -0.3655669     0.0310117
  C        0.9984040     0.4317740    -0.0078830
  C        2.3702780    -0.1170190     0.0219370
  H       -2.4419680    -1.4628000     0.9443570
  H       -2.4189490    -1.5634100    -0.8003330
  H       -4.1001540     0.4487780     0.8215890
  H       -4.7285220    -0.9991160     0.0102380
  H       -4.0749460     0.3516660    -0.9371360
  H        0.0882100    -1.4658090     0.0960520
  H        0.8681440     1.5076730    -0.0687300
  H        4.1643390     0.4215720    -0.0233140
units angstrom
no_reorient  #important for SAPT in psi4, default
symmetry c1  #important for SAPT in psi4, default
}

set PROPERTIES_ORIGIN ["COM"]
properties('MP2/aug-cc-pvtz', properties = ['dipole'])
--------------------------------------------------------------------------

    Molecular point group: c1
  Charge       = 0
  Multiplicity = 1
  Basis Set: AUG-CC-PVTZ
    Blend: AUG-CC-PVTZ
  Basis Set: (AUG-CC-PVTZ AUX)
    Blend: AUG-CC-PVTZ-JKFIT

    Orbital Energies [Eh]
    ---------------------

    Doubly Occupied:

       1A    -20.627086     2A    -20.560727     3A    -20.560722
       4A    -11.404894     5A    -11.349958     6A    -11.273727
       7A    -11.270726     8A    -11.254382     9A    -11.226424
      10A     -1.471651    11A     -1.391163    12A     -1.366880
      13A     -1.111433    14A     -1.067463    15A     -0.955707
      16A     -0.888820    17A     -0.799989    18A     -0.742882
      19A     -0.719296    20A     -0.711592    21A     -0.663087
      22A     -0.644318    23A     -0.640952    24A     -0.639187
      25A     -0.606737    26A     -0.563275    27A     -0.541189
      28A     -0.541062    29A     -0.525425    30A     -0.501557
      31A     -0.495955    32A     -0.470525    33A     -0.435631
      34A     -0.407511

  @DF-RHF Final Energy:  -456.62820161627309

   => Energetics <=

    Nuclear Repulsion Energy =            413.7887053559252877
    One-Electron Energy =               -1443.9699457604544932
    Two-Electron Energy =                 573.5530387882561172
    Total Energy =                       -456.6282016162731452
  Basis Set: (AUG-CC-PVTZ AUX)
    Blend: AUG-CC-PVTZ-RI
    Molecular point group: c1

    Geometry (in Angstrom), charge = 0, multiplicity = 1:

       Center              X                  Y                   Z               Mass
    ------------   -----------------  -----------------  -----------------  -----------------
         O           -1.645971295537     1.363115874488    -0.082589816795    15.994914619570
         O            3.291485604463     0.870538474488    -0.039332716795    15.994914619570
         O            2.664161604463    -1.301607525512     0.082732283205    15.994914619570
         C           -2.574881395537    -0.865757525512     0.033895283205    12.000000000000
         C           -1.454894395537     0.148912474488    -0.009764716795    12.000000000000
         C           -3.956203395537    -0.232777525512    -0.021036716795    12.000000000000
         C           -0.055816895537    -0.368284425512     0.031144983205    12.000000000000
         C            0.994887604463     0.429056474488    -0.007749716795    12.000000000000
         C            2.366761604463    -0.119736525512     0.022070283205    12.000000000000
         H           -2.445484395537    -1.465517525512     0.944490283205     1.007825032230
         H           -2.422465395537    -1.566127525512    -0.800199716795     1.007825032230
         H           -4.103670395537     0.446060474488     0.821722283205     1.007825032230
         H           -4.732038395537    -1.001833525512     0.010371283205     1.007825032230
         H           -4.078462395537     0.348948474488    -0.937002716795     1.007825032230
         H            0.084693604463    -1.468526525512     0.096185283205     1.007825032230
         H            0.864627604463     1.504955474488    -0.068596716795     1.007825032230
         H            4.160822604463     0.418854474488    -0.023180716795     1.007825032230

  Basis Set: AUG-CC-PVTZ
    Blend: AUG-CC-PVTZ
  Basis Set: (AUG-CC-PVTZ AUX)
    Blend: AUG-CC-PVTZ-JKFIT
	 Reference Energy          =    -456.6282016162730883 [Eh]
	 Singles Energy            =      -0.0000000000000000 [Eh]
	 Same-Spin Energy          =      -0.4480495099883740 [Eh]
	 Opposite-Spin Energy      =      -1.4085794466817065 [Eh]
	 Correlation Energy        =      -1.8566289566700807 [Eh]
	 Total Energy              =    -458.4848305729431672 [Eh]

	 ================> DF-SCS-MP2 Energies <==================
	-----------------------------------------------------------
	 SCS Same-Spin Scale       =       0.3333333333333333 [-]
	 SCS Opposite-Spin Scale   =       1.2000000000000000 [-]
	 SCS Same-Spin Energy      =      -0.1493498366627913 [Eh]
	 SCS Opposite-Spin Energy  =      -1.6902953360180477 [Eh]
	 SCS Correlation Energy    =      -1.8396451726808389 [Eh]
	 SCS Total Energy          =    -458.4678467889539206 [Eh]
	-----------------------------------------------------------

  Dipole Moment: [D]
     X:    -0.2818      Y:    -1.1885      Z:     0.0610     Total:     1.2230

*** Psi4 exiting successfully. Buy a developer a beer!
