                               Psi4 1.3.2 release

  ==> Input File <==

--------------------------------------------------------------------------
#psi4
#
memory 32 gb

molecule  {
0 1
  O       -1.6636540     1.3623100    -0.0826750
  O        3.2950020     0.8732560    -0.0394660
  O        2.6676780    -1.2988900     0.0825990
  C       -2.5713650    -0.8630400     0.0337620
  C       -1.4513780     0.1516300    -0.0098980
  C       -3.9526870    -0.2300600    -0.0211700
  C       -0.0615660    -0.3898680     0.0323710
  C        0.9911854     0.4409742    -0.0084699
  C        2.3702780    -0.1170190     0.0219370
  H       -2.4419680    -1.4628000     0.9443570
  H       -2.4189490    -1.5634100    -0.8003330
  H       -4.1001540     0.4487780     0.8215890
  H       -4.7285220    -0.9991160     0.0102380
  H       -4.0749460     0.3516660    -0.9371360
  H        0.0787989    -1.4670768     0.0960587
  H        0.8681440     1.5076730    -0.0687300
  H        4.1643390     0.4215720    -0.0233140
units angstrom
no_reorient  #important for SAPT in psi4, default
symmetry c1  #important for SAPT in psi4, default
}

set PROPERTIES_ORIGIN ["COM"]
properties('MP2/aug-cc-pvtz', properties = ['dipole'])
--------------------------------------------------------------------------

    Molecular point group: c1
  Charge       = 0
  Multiplicity = 1
  Basis Set: AUG-CC-PVTZ
    Blend: AUG-CC-PVTZ
  Basis Set: (AUG-CC-PVTZ AUX)
    Blend: AUG-CC-PVTZ-JKFIT

    Orbital Energies [Eh]
    ---------------------

    Doubly Occupied:

       1A    -20.627652     2A    -20.561682     3A    -20.560114
       4A    -11.406086     5A    -11.349293     6A    -11.277063
       7A    -11.275314     8A    -11.252264     9A    -11.225010
      10A     -1.472139    11A     -1.390202    12A     -1.367526
      13A     -1.108678    14A     -1.065371    15A     -0.956145
      16A     -0.886811    17A     -0.799165    18A     -0.748176
      19A     -0.717473    20A     -0.713155    21A     -0.660384
      22A     -0.643673    23A     -0.641864    24A     -0.638901
      25A     -0.606376    26A     -0.572541    27A     -0.539840
      28A     -0.539103    29A     -0.524210    30A     -0.500780
      31A     -0.495959    32A     -0.471012    33A     -0.434651
      34A     -0.404334

  @DF-RHF Final Energy:  -456.62836414497008

   => Energetics <=

    Nuclear Repulsion Energy =            413.3846269567407035
    One-Electron Energy =               -1443.1600931738926192
    Two-Electron Energy =                 573.1471020721818377
    Total Energy =                       -456.6283641449700781
  Basis Set: (AUG-CC-PVTZ AUX)
    Blend: AUG-CC-PVTZ-RI
    Molecular point group: c1

    Geometry (in Angstrom), charge = 0, multiplicity = 1:

       Center              X                  Y                   Z               Mass
    ------------   -----------------  -----------------  -----------------  -----------------
         O           -1.662903444587     1.361457761147    -0.082620163622    15.994914619570
         O            3.295752555413     0.872403761147    -0.039411163622    15.994914619570
         O            2.668428555413    -1.299742238853     0.082653836378    15.994914619570
         C           -2.570614444587    -0.863892238853     0.033816836378    12.000000000000
         C           -1.450627444587     0.150777761147    -0.009843163622    12.000000000000
         C           -3.951936444587    -0.230912238853    -0.021115163622    12.000000000000
         C           -0.060815444587    -0.390720238853     0.032425836378    12.000000000000
         C            0.991935955413     0.440121961147    -0.008415063622    12.000000000000
         C            2.371028555413    -0.117871238853     0.021991836378    12.000000000000
         H           -2.441217444587    -1.463652238853     0.944411836378     1.007825032230
         H           -2.418198444587    -1.564262238853    -0.800278163622     1.007825032230
         H           -4.099403444587     0.447925761147     0.821643836378     1.007825032230
         H           -4.727771444587    -0.999968238853     0.010292836378     1.007825032230
         H           -4.074195444587     0.350813761147    -0.937081163622     1.007825032230
         H            0.079549455413    -1.467929038853     0.096113536378     1.007825032230
         H            0.868894555413     1.506820761147    -0.068675163622     1.007825032230
         H            4.165089555413     0.420719761147    -0.023259163622     1.007825032230

  Basis Set: AUG-CC-PVTZ
    Blend: AUG-CC-PVTZ
  Basis Set: (AUG-CC-PVTZ AUX)
    Blend: AUG-CC-PVTZ-JKFIT
	 Reference Energy          =    -456.6283641449700781 [Eh]
	 Singles Energy            =      -0.0000000000000000 [Eh]
	 Same-Spin Energy          =      -0.4481695913401142 [Eh]
	 Opposite-Spin Energy      =      -1.4089473998520849 [Eh]
	 Correlation Energy        =      -1.8571169911921992 [Eh]
	 Total Energy              =    -458.4854811361622637 [Eh]

	 ================> DF-SCS-MP2 Energies <==================
	-----------------------------------------------------------
	 SCS Same-Spin Scale       =       0.3333333333333333 [-]
	 SCS Opposite-Spin Scale   =       1.2000000000000000 [-]
	 SCS Same-Spin Energy      =      -0.1493898637800381 [Eh]
	 SCS Opposite-Spin Energy  =      -1.6907368798225020 [Eh]
	 SCS Correlation Energy    =      -1.8401267436025401 [Eh]
	 SCS Total Energy          =    -458.4684908885726031 [Eh]
	-----------------------------------------------------------

  Dipole Moment: [D]
     X:    -0.1568      Y:    -1.1824      Z:     0.0616     Total:     1.1943

*** Psi4 exiting successfully. Buy a developer a beer!
