                               Psi4 1.4a3.dev225

  ==> Input File <==

--------------------------------------------------------------------------
#psi4
#
memory 32 gb

molecule  {
0 1
  O       -1.5457390    -1.4151030    -0.0000120
  O        3.4055420    -0.8324430     0.0000000
  O        2.7346890     1.3362110     0.0000030
  C       -2.4962220     0.7973420     0.0000070
  C       -1.3569730    -0.1975560    -0.0000120
  C       -3.8659970     0.1363490     0.0000100
  C        0.0231420     0.3709680    -0.0000240
  C        1.1002740    -0.4324720     0.0000170
  C        2.4625110     0.1452670     0.0000070
  H       -2.3684100     1.4519690    -0.8733630
  H       -2.3683970     1.4519470     0.8733920
  H       -3.9887950    -0.4970190    -0.8807080
  H       -4.6559460     0.8916380     0.0000190
  H       -3.9887860    -0.4970320     0.8807180
  H        0.1589340     1.4510060    -0.0000590
  H        0.9883999    -1.4926084     0.0000514
  H        4.2687480    -0.3687180    -0.0000090
units angstrom
no_reorient  #important for SAPT in psi4, default
symmetry c1  #important for SAPT in psi4, default
}

set PROPERTIES_ORIGIN ["COM"]
properties('MP2/aug-cc-pvtz', properties = ['dipole'])
--------------------------------------------------------------------------

    Molecular point group: c1
  Charge       = 0
  Multiplicity = 1
  Basis Set: AUG-CC-PVTZ
    Blend: AUG-CC-PVTZ
  Basis Set: (AUG-CC-PVTZ AUX)
    Blend: AUG-CC-PVTZ-JKFIT

    Orbital Energies [Eh]
    ---------------------

    Doubly Occupied:

       1A    -20.627997     2A    -20.561887     3A    -20.560896
       4A    -11.406276     5A    -11.350421     6A    -11.276708
       7A    -11.274162     8A    -11.252689     9A    -11.225195
      10A     -1.471088    11A     -1.390236    12A     -1.367312
      13A     -1.108963    14A     -1.065642    15A     -0.957224
      16A     -0.887463    17A     -0.799495    18A     -0.749455
      19A     -0.718484    20A     -0.712693    21A     -0.661171
      22A     -0.643534    23A     -0.641647    24A     -0.638723
      25A     -0.606517    26A     -0.571905    27A     -0.539972
      28A     -0.539253    29A     -0.524448    30A     -0.500970
      31A     -0.496103    32A     -0.471587    33A     -0.435552
      34A     -0.403732

  @DF-RHF Final Energy:  -456.62793634200148

   => Energetics <=

    Nuclear Repulsion Energy =            413.2549151353458114
    One-Electron Energy =               -1442.8869030691475928
    Two-Electron Energy =                 573.0040515918003621
    Total Energy =                       -456.6279363420014761
  Basis Set: (AUG-CC-PVTZ AUX)
    Blend: AUG-CC-PVTZ-RI
    Molecular point group: c1

    Geometry (in Angstrom), charge = 0, multiplicity = 1:

       Center              X                  Y                   Z               Mass
    ------------   -----------------  -----------------  -----------------  -----------------
         O           -1.638216769328    -1.396921788590    -0.000011670198    15.994914619570
         O            3.313064230672    -0.814261788590     0.000000329802    15.994914619570
         O            2.642211230672     1.354392211410     0.000003329802    15.994914619570
         C           -2.588699769328     0.815523211410     0.000007329802    12.000000000000
         C           -1.449450769328    -0.179374788590    -0.000011670198    12.000000000000
         C           -3.958474769328     0.154530211410     0.000010329802    12.000000000000
         C           -0.069335769328     0.389149211410    -0.000023670198    12.000000000000
         C            1.007796230672    -0.414290788590     0.000017329802    12.000000000000
         C            2.370033230672     0.163448211410     0.000007329802    12.000000000000
         H           -2.460887769328     1.470150211410    -0.873362670198     1.007825032230
         H           -2.460874769328     1.470128211410     0.873392329802     1.007825032230
         H           -4.081272769328    -0.478837788590    -0.880707670198     1.007825032230
         H           -4.748423769328     0.909819211410     0.000019329802     1.007825032230
         H           -4.081263769328    -0.478850788590     0.880718329802     1.007825032230
         H            0.066456230672     1.469187211410    -0.000058670198     1.007825032230
         H            0.895922130672    -1.474427188590     0.000051729802     1.007825032230
         H            4.176270230672    -0.350536788590    -0.000008670198     1.007825032230

  Basis Set: AUG-CC-PVTZ
    Blend: AUG-CC-PVTZ
  Basis Set: (AUG-CC-PVTZ AUX)
    Blend: AUG-CC-PVTZ-JKFIT
	 Reference Energy          =    -456.6279363420014761 [Eh]
	 Singles Energy            =      -0.0000000000000000 [Eh]
	 Same-Spin Energy          =      -0.4482988438271878 [Eh]
	 Opposite-Spin Energy      =      -1.4092457933240534 [Eh]
	 Correlation Energy        =      -1.8575446371512412 [Eh]
	 Total Energy              =    -458.4854809791527259 [Eh]

	 ================> DF-SCS-MP2 Energies <==================
	-----------------------------------------------------------
	 SCS Same-Spin Scale       =       0.3333333333333333 [-]
	 SCS Opposite-Spin Scale   =       1.2000000000000000 [-]
	 SCS Same-Spin Energy      =      -0.1494329479423959 [Eh]
	 SCS Opposite-Spin Energy  =      -1.6910949519888641 [Eh]
	 SCS Correlation Energy    =      -1.8405278999312600 [Eh]
	 SCS Total Energy          =    -458.4684642419327361 [Eh]
	-----------------------------------------------------------

  Dipole Moment: [D]
     X:    -0.1852      Y:     1.1828      Z:     0.0000     Total:     1.1972

*** Psi4 exiting successfully. Buy a developer a beer!
