                               Psi4 1.3.2 release

  ==> Input File <==

--------------------------------------------------------------------------
#psi4
#
memory 32 gb

molecule  {
0 1
  O       -1.6636540     1.3623100    -0.0826750
  O        3.2950020     0.8732560    -0.0394660
  O        2.6676780    -1.2988900     0.0825990
  C       -2.5713650    -0.8630400     0.0337620
  C       -1.4513780     0.1516300    -0.0098980
  C       -3.9526870    -0.2300600    -0.0211700
  C       -0.0615660    -0.3898680     0.0323710
  C        0.9984040     0.4317740    -0.0078830
  C        2.4190232    -0.3107328     0.0318798
  H       -2.4419680    -1.4628000     0.9443570
  H       -2.4189490    -1.5634100    -0.8003330
  H       -4.1001540     0.4487780     0.8215890
  H       -4.7285220    -0.9991160     0.0102380
  H       -4.0749460     0.3516660    -0.9371360
  H        0.0882100    -1.4658090     0.0960520
  H        0.8681440     1.5076730    -0.0687300
  H        4.1643390     0.4215720    -0.0233140
units angstrom
no_reorient  #important for SAPT in psi4, default
symmetry c1  #important for SAPT in psi4, default
}

set PROPERTIES_ORIGIN ["COM"]
properties('MP2/aug-cc-pvtz', properties = ['dipole'])
--------------------------------------------------------------------------

    Molecular point group: c1
  Charge       = 0
  Multiplicity = 1
  Basis Set: AUG-CC-PVTZ
    Blend: AUG-CC-PVTZ
  Basis Set: (AUG-CC-PVTZ AUX)
    Blend: AUG-CC-PVTZ-JKFIT

    Orbital Energies [Eh]
    ---------------------

    Doubly Occupied:

       1A    -20.602375     2A    -20.592936     3A    -20.551935
       4A    -11.392831     5A    -11.342387     6A    -11.275050
       7A    -11.260413     8A    -11.247708     9A    -11.221549
      10A     -1.590610    11A     -1.382711    12A     -1.368894
      13A     -1.094452    14A     -1.057918    15A     -0.932564
      16A     -0.860412    17A     -0.785334    18A     -0.757844
      19A     -0.741918    20A     -0.722462    21A     -0.698743
      22A     -0.673741    23A     -0.637029    24A     -0.634143
      25A     -0.605727    26A     -0.573182    27A     -0.535793
      28A     -0.534464    29A     -0.520590    30A     -0.520210
      31A     -0.494143    32A     -0.461628    33A     -0.423511
      34A     -0.399304

  @DF-RHF Final Energy:  -456.54820122115814

   => Energetics <=

    Nuclear Repulsion Energy =            414.5359153993258587
    One-Electron Energy =               -1445.1792112459577311
    Two-Electron Energy =                 574.0950946254737346
    Total Energy =                       -456.5482012211581377
  Basis Set: (AUG-CC-PVTZ AUX)
    Blend: AUG-CC-PVTZ-RI
    Molecular point group: c1

    Geometry (in Angstrom), charge = 0, multiplicity = 1:

       Center              X                  Y                   Z               Mass
    ------------   -----------------  -----------------  -----------------  -----------------
         O           -1.668222183111     1.380463936529    -0.083606905271    15.994914619570
         O            3.290433816889     0.891409936529    -0.040397905271    15.994914619570
         O            2.663109816889    -1.280736063471     0.081667094729    15.994914619570
         C           -2.575933183111    -0.844886063471     0.032830094729    12.000000000000
         C           -1.455946183111     0.169783936529    -0.010829905271    12.000000000000
         C           -3.957255183111    -0.211906063471    -0.022101905271    12.000000000000
         C           -0.066134183111    -0.371714063471     0.031439094729    12.000000000000
         C            0.993835816889     0.449927936529    -0.008814905271    12.000000000000
         C            2.414455016889    -0.292578863471     0.030947894729    12.000000000000
         H           -2.446536183111    -1.444646063471     0.943425094729     1.007825032230
         H           -2.423517183111    -1.545256063471    -0.801264905271     1.007825032230
         H           -4.104722183111     0.466931936529     0.820657094729     1.007825032230
         H           -4.733090183111    -0.980962063471     0.009306094729     1.007825032230
         H           -4.079514183111     0.369819936529    -0.938067905271     1.007825032230
         H            0.083641816889    -1.447655063471     0.095120094729     1.007825032230
         H            0.863575816889     1.525826936529    -0.069661905271     1.007825032230
         H            4.159770816889     0.439725936529    -0.024245905271     1.007825032230

  Basis Set: AUG-CC-PVTZ
    Blend: AUG-CC-PVTZ
  Basis Set: (AUG-CC-PVTZ AUX)
    Blend: AUG-CC-PVTZ-JKFIT
	 Reference Energy          =    -456.5482012211581377 [Eh]
	 Singles Energy            =      -0.0000000000000000 [Eh]
	 Same-Spin Energy          =      -0.4451502495950100 [Eh]
	 Opposite-Spin Energy      =      -1.4033116669679773 [Eh]
	 Correlation Energy        =      -1.8484619165629872 [Eh]
	 Total Energy              =    -458.3966631377211343 [Eh]

	 ================> DF-SCS-MP2 Energies <==================
	-----------------------------------------------------------
	 SCS Same-Spin Scale       =       0.3333333333333333 [-]
	 SCS Opposite-Spin Scale   =       1.2000000000000000 [-]
	 SCS Same-Spin Energy      =      -0.1483834165316700 [Eh]
	 SCS Opposite-Spin Energy  =      -1.6839740003615726 [Eh]
	 SCS Correlation Energy    =      -1.8323574168932426 [Eh]
	 SCS Total Energy          =    -458.3805586380513546 [Eh]
	-----------------------------------------------------------

  Dipole Moment: [D]
     X:     0.1371      Y:    -2.6647      Z:     0.1459     Total:     2.6723

*** Psi4 exiting successfully. Buy a developer a beer!
