                               Psi4 1.4a3.dev225

  ==> Input File <==

--------------------------------------------------------------------------
#psi4
#
memory 32 gb

molecule  {
0 1
  F        2.1226300     0.9082170     0.7600610
  F       -2.1226300     0.9082210    -0.7600560
  O        2.8120520    -0.8324970    -0.4615260
  O       -2.8120520    -0.8324980     0.4615220
  C        0.4856120    -0.1117560    -0.5938050
  C       -0.4856120    -0.1117600     0.5938040
  C        1.9157900    -0.1063220    -0.1389790
  C       -1.8842972    -0.2415278     0.0654620
  H        0.3463190    -0.9890650    -1.2292190
  H        0.3197670     0.7835690    -1.2005600
  H       -0.3197660     0.7835590     1.2005670
  H       -0.3463190    -0.9890750     1.2292110
units angstrom
no_reorient  #important for SAPT in psi4, default
symmetry c1  #important for SAPT in psi4, default
}

set PROPERTIES_ORIGIN ["COM"]
properties('MP2/aug-cc-pvtz', properties = ['dipole'])
--------------------------------------------------------------------------

    Molecular point group: c1
  Charge       = 0
  Multiplicity = 1
  Basis Set: AUG-CC-PVTZ
    Blend: AUG-CC-PVTZ
  Basis Set: (AUG-CC-PVTZ AUX)
    Blend: AUG-CC-PVTZ-JKFIT

    Orbital Energies [Eh]
    ---------------------

    Doubly Occupied:

       1A    -26.348577     2A    -26.320866     3A    -20.619218
       4A    -20.604843     5A    -11.449587     6A    -11.449278
       7A    -11.306134     8A    -11.300845     9A     -1.666802
      10A     -1.626781    11A     -1.470070    12A     -1.442586
      13A     -1.143449    14A     -1.003580    15A     -0.861183
      16A     -0.840480    17A     -0.768862    18A     -0.749187
      19A     -0.742329    20A     -0.728314    21A     -0.722710
      22A     -0.706112    23A     -0.676553    24A     -0.635302
      25A     -0.625237    26A     -0.596972    27A     -0.579953
      28A     -0.561686    29A     -0.544183    30A     -0.526016
      31A     -0.497737

  @DF-RHF Final Energy:  -502.60703018549987

   => Energetics <=

    Nuclear Repulsion Energy =            363.2121957895923288
    One-Electron Energy =               -1413.4075831494408249
    Two-Electron Energy =                 547.5883571743487437
    Total Energy =                       -502.6070301854998661
  Basis Set: (AUG-CC-PVTZ AUX)
    Blend: AUG-CC-PVTZ-RI
    Molecular point group: c1

    Geometry (in Angstrom), charge = 0, multiplicity = 1:

       Center              X                  Y                   Z               Mass
    ------------   -----------------  -----------------  -----------------  -----------------
         F            2.119532794612     0.903239446565     0.767290969844    18.998403162730
         F           -2.125727205388     0.903243446565    -0.752826030156    18.998403162730
         O            2.808954794612    -0.837474553435    -0.454296030156    15.994914619570
         O           -2.815149205388    -0.837475553435     0.468751969844    15.994914619570
         C            0.482514794612    -0.116733553435    -0.586575030156    12.000000000000
         C           -0.488709205388    -0.116737553435     0.601033969844    12.000000000000
         C            1.912692794612    -0.111299553435    -0.131749030156    12.000000000000
         C           -1.887394405388    -0.246505353435     0.072691969844    12.000000000000
         H            0.343221794612    -0.994042553435    -1.221989030156     1.007825032230
         H            0.316669794612     0.778591446565    -1.193330030156     1.007825032230
         H           -0.322863205388     0.778581446565     1.207796969844     1.007825032230
         H           -0.349416205388    -0.994052553435     1.236440969844     1.007825032230

  Basis Set: AUG-CC-PVTZ
    Blend: AUG-CC-PVTZ
  Basis Set: (AUG-CC-PVTZ AUX)
    Blend: AUG-CC-PVTZ-JKFIT
	 Reference Energy          =    -502.6070301854998661 [Eh]
	 Singles Energy            =      -0.0000000000000000 [Eh]
	 Same-Spin Energy          =      -0.4445099519194897 [Eh]
	 Opposite-Spin Energy      =      -1.3276725033216046 [Eh]
	 Correlation Energy        =      -1.7721824552410943 [Eh]
	 Total Energy              =    -504.3792126407409455 [Eh]

	 ================> DF-SCS-MP2 Energies <==================
	-----------------------------------------------------------
	 SCS Same-Spin Scale       =       0.3333333333333333 [-]
	 SCS Opposite-Spin Scale   =       1.2000000000000000 [-]
	 SCS Same-Spin Energy      =      -0.1481699839731632 [Eh]
	 SCS Opposite-Spin Energy  =      -1.5932070039859254 [Eh]
	 SCS Correlation Energy    =      -1.7413769879590886 [Eh]
	 SCS Total Energy          =    -504.3484071734589520 [Eh]
	-----------------------------------------------------------

  Dipole Moment: [D]
     X:    -0.0228      Y:     0.0481      Z:     0.1724     Total:     0.1804

*** Psi4 exiting successfully. Buy a developer a beer!
