                               Psi4 1.4a3.dev225

  ==> Input File <==

--------------------------------------------------------------------------
#psi4
#
memory 32 gb

molecule  {
0 1
  F        2.0765033     0.9202637     0.7558049
  F       -2.1226300     0.9082210    -0.7600560
  O        2.8120520    -0.8324970    -0.4615260
  O       -2.8120520    -0.8324980     0.4615220
  C        0.4856120    -0.1117560    -0.5938050
  C       -0.4856120    -0.1117600     0.5938040
  C        1.9157900    -0.1063220    -0.1389790
  C       -1.9157900    -0.1063230     0.1389780
  H        0.3463190    -0.9890650    -1.2292190
  H        0.3197670     0.7835690    -1.2005600
  H       -0.3197660     0.7835590     1.2005670
  H       -0.3463190    -0.9890750     1.2292110
units angstrom
no_reorient  #important for SAPT in psi4, default
symmetry c1  #important for SAPT in psi4, default
}

set PROPERTIES_ORIGIN ["COM"]
properties('MP2/aug-cc-pvtz', properties = ['dipole'])
--------------------------------------------------------------------------

    Molecular point group: c1
  Charge       = 0
  Multiplicity = 1
  Basis Set: AUG-CC-PVTZ
    Blend: AUG-CC-PVTZ
  Basis Set: (AUG-CC-PVTZ AUX)
    Blend: AUG-CC-PVTZ-JKFIT

    Orbital Energies [Eh]
    ---------------------

    Doubly Occupied:

       1A    -26.349778     2A    -26.347609     3A    -20.607780
       4A    -20.604706     5A    -11.451109     6A    -11.449232
       7A    -11.300816     8A    -11.299751     9A     -1.668123
      10A     -1.665869    11A     -1.445027    12A     -1.442296
      13A     -1.140049    14A     -1.005125    15A     -0.866640
      16A     -0.855272    17A     -0.773795    18A     -0.752538
      19A     -0.743458    20A     -0.735918    21A     -0.730218
      22A     -0.717358    23A     -0.673662    24A     -0.636855
      25A     -0.627854    26A     -0.593575    27A     -0.579417
      28A     -0.552881    29A     -0.539806    30A     -0.520702
      31A     -0.496595

  @DF-RHF Final Energy:  -502.61912098004854

   => Energetics <=

    Nuclear Repulsion Energy =            363.7986240583834388
    One-Electron Energy =               -1414.4878618188311066
    Two-Electron Energy =                 548.0701167803990757
    Total Energy =                       -502.6191209800485922
  Basis Set: (AUG-CC-PVTZ AUX)
    Blend: AUG-CC-PVTZ-RI
    Molecular point group: c1

    Geometry (in Angstrom), charge = 0, multiplicity = 1:

       Center              X                  Y                   Z               Mass
    ------------   -----------------  -----------------  -----------------  -----------------
         F            2.083685298535     0.900113576624     0.756467532905    18.998403162730
         F           -2.115448001465     0.888070876624    -0.759393367095    18.998403162730
         O            2.819233998535    -0.852647123376    -0.460863367095    15.994914619570
         O           -2.804870001465    -0.852648123376     0.462184632905    15.994914619570
         C            0.492793998535    -0.131906123376    -0.593142367095    12.000000000000
         C           -0.478430001465    -0.131910123376     0.594466632905    12.000000000000
         C            1.922971998535    -0.126472123376    -0.138316367095    12.000000000000
         C           -1.908608001465    -0.126473123376     0.139640632905    12.000000000000
         H            0.353500998535    -1.009215123376    -1.228556367095     1.007825032230
         H            0.326948998535     0.763418876624    -1.199897367095     1.007825032230
         H           -0.312584001465     0.763408876624     1.201229632905     1.007825032230
         H           -0.339137001465    -1.009225123376     1.229873632905     1.007825032230

  Basis Set: AUG-CC-PVTZ
    Blend: AUG-CC-PVTZ
  Basis Set: (AUG-CC-PVTZ AUX)
    Blend: AUG-CC-PVTZ-JKFIT
	 Reference Energy          =    -502.6191209800485353 [Eh]
	 Singles Energy            =      -0.0000000000000000 [Eh]
	 Same-Spin Energy          =      -0.4441519468766977 [Eh]
	 Opposite-Spin Energy      =      -1.3258729245826477 [Eh]
	 Correlation Energy        =      -1.7700248714593454 [Eh]
	 Total Energy              =    -504.3891458515078625 [Eh]

	 ================> DF-SCS-MP2 Energies <==================
	-----------------------------------------------------------
	 SCS Same-Spin Scale       =       0.3333333333333333 [-]
	 SCS Opposite-Spin Scale   =       1.2000000000000000 [-]
	 SCS Same-Spin Energy      =      -0.1480506489588992 [Eh]
	 SCS Opposite-Spin Energy  =      -1.5910475094991772 [Eh]
	 SCS Correlation Energy    =      -1.7390981584580765 [Eh]
	 SCS Total Energy          =    -504.3582191385066267 [Eh]
	-----------------------------------------------------------

  Dipole Moment: [D]
     X:     0.1012      Y:     0.5946      Z:     0.0122     Total:     0.6033

*** Psi4 exiting successfully. Buy a developer a beer!
