                               Psi4 1.4a3.dev225

  ==> Input File <==

--------------------------------------------------------------------------
#psi4
#
memory 32 gb

molecule  {
0 1
  F        2.1226300     0.9082170     0.7600610
  F       -2.1226300     0.9082210    -0.7600560
  O        2.8120520    -0.8324970    -0.4615260
  O       -2.8120520    -0.8324980     0.4615220
  C        0.4856120    -0.1117560    -0.5938050
  C       -0.4856120    -0.1117600     0.5938040
  C        1.9157900    -0.1063220    -0.1389790
  C       -1.9233320    -0.0693298     0.1061966
  H        0.3463190    -0.9890650    -1.2292190
  H        0.3197670     0.7835690    -1.2005600
  H       -0.3197660     0.7835590     1.2005670
  H       -0.3463190    -0.9890750     1.2292110
units angstrom
no_reorient  #important for SAPT in psi4, default
symmetry c1  #important for SAPT in psi4, default
}

set PROPERTIES_ORIGIN ["COM"]
properties('MP2/aug-cc-pvtz', properties = ['dipole'])
--------------------------------------------------------------------------

    Molecular point group: c1
  Charge       = 0
  Multiplicity = 1
  Basis Set: AUG-CC-PVTZ
    Blend: AUG-CC-PVTZ
  Basis Set: (AUG-CC-PVTZ AUX)
    Blend: AUG-CC-PVTZ-JKFIT

    Orbital Energies [Eh]
    ---------------------

    Doubly Occupied:

       1A    -26.369664     2A    -26.347650     3A    -20.604717
       4A    -20.597314     5A    -11.452208     6A    -11.449215
       7A    -11.300872     8A    -11.299958     9A     -1.701479
      10A     -1.665927    11A     -1.442318    12A     -1.420688
      13A     -1.138276    14A     -1.002198    15A     -0.883845
      16A     -0.858406    17A     -0.783302    18A     -0.763405
      19A     -0.747815    20A     -0.737772    21A     -0.736121
      22A     -0.717479    23A     -0.673146    24A     -0.635981
      25A     -0.622272    26A     -0.593710    27A     -0.577831
      28A     -0.548498    29A     -0.531359    30A     -0.516237
      31A     -0.491212

  @DF-RHF Final Energy:  -502.61710075578878

   => Energetics <=

    Nuclear Repulsion Energy =            363.5107841954051651
    One-Electron Energy =               -1413.8340202324229722
    Two-Electron Energy =                 547.7061352812289670
    Total Energy =                       -502.6171007557887833
  Basis Set: (AUG-CC-PVTZ AUX)
    Blend: AUG-CC-PVTZ-RI
    Molecular point group: c1

    Geometry (in Angstrom), charge = 0, multiplicity = 1:

       Center              X                  Y                   Z               Mass
    ------------   -----------------  -----------------  -----------------  -----------------
         F            2.123371718762     0.886304428051     0.763284876828    18.998403162730
         F           -2.121888281238     0.886308428051    -0.756832123172    18.998403162730
         O            2.812793718762    -0.854409571949    -0.458302123172    15.994914619570
         O           -2.811310281238    -0.854410571949     0.464745876828    15.994914619570
         C            0.486353718762    -0.133668571949    -0.590581123172    12.000000000000
         C           -0.484870281238    -0.133672571949     0.597027876828    12.000000000000
         C            1.916531718762    -0.128234571949    -0.135755123172    12.000000000000
         C           -1.922590281238    -0.091242371949     0.109420476828    12.000000000000
         H            0.347060718762    -1.010977571949    -1.225995123172     1.007825032230
         H            0.320508718762     0.761656428051    -1.197336123172     1.007825032230
         H           -0.319024281238     0.761646428051     1.203790876828     1.007825032230
         H           -0.345577281238    -1.010987571949     1.232434876828     1.007825032230

  Basis Set: AUG-CC-PVTZ
    Blend: AUG-CC-PVTZ
  Basis Set: (AUG-CC-PVTZ AUX)
    Blend: AUG-CC-PVTZ-JKFIT
	 Reference Energy          =    -502.6171007557887833 [Eh]
	 Singles Energy            =      -0.0000000000000000 [Eh]
	 Same-Spin Energy          =      -0.4439534981458418 [Eh]
	 Opposite-Spin Energy      =      -1.3253533103393560 [Eh]
	 Correlation Energy        =      -1.7693068084851977 [Eh]
	 Total Energy              =    -504.3864075642740090 [Eh]

	 ================> DF-SCS-MP2 Energies <==================
	-----------------------------------------------------------
	 SCS Same-Spin Scale       =       0.3333333333333333 [-]
	 SCS Opposite-Spin Scale   =       1.2000000000000000 [-]
	 SCS Same-Spin Energy      =      -0.1479844993819472 [Eh]
	 SCS Opposite-Spin Energy  =      -1.5904239724072271 [Eh]
	 SCS Correlation Energy    =      -1.7384084717891743 [Eh]
	 SCS Total Energy          =    -504.3555092275779543 [Eh]
	-----------------------------------------------------------

  Dipole Moment: [D]
     X:    -0.0486      Y:     0.9167      Z:    -0.2536     Total:     0.9524

*** Psi4 exiting successfully. Buy a developer a beer!
