                               Psi4 1.4a3.dev225

  ==> Input File <==

--------------------------------------------------------------------------
#psi4
#
memory 32 gb

molecule  {
0 1
  F        2.1226300     0.9082170     0.7600610
  F       -2.1226300     0.9082210    -0.7600560
  O        2.8120520    -0.8324970    -0.4615260
  O       -2.8120520    -0.8324980     0.4615220
  C        0.4856120    -0.1117560    -0.5938050
  C       -0.4856120    -0.1117600     0.5938040
  C        1.9157900    -0.1063220    -0.1389790
  C       -1.9188068    -0.0915257     0.1258654
  H        0.3463190    -0.9890650    -1.2292190
  H        0.3197670     0.7835690    -1.2005600
  H       -0.3197660     0.7835590     1.2005670
  H       -0.3463190    -0.9890750     1.2292110
units angstrom
no_reorient  #important for SAPT in psi4, default
symmetry c1  #important for SAPT in psi4, default
}

set PROPERTIES_ORIGIN ["COM"]
properties('MP2/aug-cc-pvtz', properties = ['dipole'])
--------------------------------------------------------------------------

    Molecular point group: c1
  Charge       = 0
  Multiplicity = 1
  Basis Set: AUG-CC-PVTZ
    Blend: AUG-CC-PVTZ
  Basis Set: (AUG-CC-PVTZ AUX)
    Blend: AUG-CC-PVTZ-JKFIT

    Orbital Energies [Eh]
    ---------------------

    Doubly Occupied:

       1A    -26.356869     2A    -26.348004     3A    -20.605114
       4A    -20.602159     5A    -11.450792     6A    -11.449647
       7A    -11.301517     8A    -11.300843     9A     -1.680134
      10A     -1.666278    11A     -1.442692    12A     -1.434118
      13A     -1.139918    14A     -1.004056    15A     -0.871906
      16A     -0.857697    17A     -0.776674    18A     -0.755205
      19A     -0.744033    20A     -0.737321    21A     -0.733659
      22A     -0.717822    23A     -0.673518    24A     -0.637087
      25A     -0.626025    26A     -0.594238    27A     -0.579295
      28A     -0.550534    29A     -0.536768    30A     -0.518757
      31A     -0.494849

  @DF-RHF Final Energy:  -502.61947964694434

   => Energetics <=

    Nuclear Repulsion Energy =            363.4219869977270605
    One-Electron Energy =               -1413.7078757985914308
    Two-Electron Energy =                 547.6664091539199717
    Total Energy =                       -502.6194796469443418
  Basis Set: (AUG-CC-PVTZ AUX)
    Blend: AUG-CC-PVTZ-RI
    Molecular point group: c1

    Geometry (in Angstrom), charge = 0, multiplicity = 1:

       Center              X                  Y                   Z               Mass
    ------------   -----------------  -----------------  -----------------  -----------------
         F            2.122926682549     0.888487310416     0.761350525139    18.998403162730
         F           -2.122333317451     0.888491310416    -0.758766474861    18.998403162730
         O            2.812348682549    -0.852226689584    -0.460236474861    15.994914619570
         O           -2.811755317451    -0.852227689584     0.462811525139    15.994914619570
         C            0.485908682549    -0.131485689584    -0.592515474861    12.000000000000
         C           -0.485315317451    -0.131489689584     0.595093525139    12.000000000000
         C            1.916086682549    -0.126051689584    -0.137689474861    12.000000000000
         C           -1.918510117451    -0.111255389584     0.127154925139    12.000000000000
         H            0.346615682549    -1.008794689584    -1.227929474861     1.007825032230
         H            0.320063682549     0.763839310416    -1.199270474861     1.007825032230
         H           -0.319469317451     0.763829310416     1.201856525139     1.007825032230
         H           -0.346022317451    -1.008804689584     1.230500525139     1.007825032230

  Basis Set: AUG-CC-PVTZ
    Blend: AUG-CC-PVTZ
  Basis Set: (AUG-CC-PVTZ AUX)
    Blend: AUG-CC-PVTZ-JKFIT
	 Reference Energy          =    -502.6194796469443418 [Eh]
	 Singles Energy            =      -0.0000000000000000 [Eh]
	 Same-Spin Energy          =      -0.4439601783431586 [Eh]
	 Opposite-Spin Energy      =      -1.3254825943733921 [Eh]
	 Correlation Energy        =      -1.7694427727165507 [Eh]
	 Total Energy              =    -504.3889224196609007 [Eh]

	 ================> DF-SCS-MP2 Energies <==================
	-----------------------------------------------------------
	 SCS Same-Spin Scale       =       0.3333333333333333 [-]
	 SCS Opposite-Spin Scale   =       1.2000000000000000 [-]
	 SCS Same-Spin Energy      =      -0.1479867261143862 [Eh]
	 SCS Opposite-Spin Energy  =      -1.5905791132480704 [Eh]
	 SCS Correlation Energy    =      -1.7385658393624566 [Eh]
	 SCS Total Energy          =    -504.3580454863068212 [Eh]
	-----------------------------------------------------------

  Dipole Moment: [D]
     X:    -0.0197      Y:     0.7300      Z:    -0.1022     Total:     0.7373

*** Psi4 exiting successfully. Buy a developer a beer!
