                               Psi4 1.4a3.dev225

  ==> Input File <==

--------------------------------------------------------------------------
#psi4
#
memory 32 gb

molecule  {
0 1
  F        2.1226300     0.9082170     0.7600610
  F       -2.1226300     0.9082210    -0.7600560
  O        2.8120520    -0.8324970    -0.4615260
  O       -2.8120520    -0.8324980     0.4615220
  C        0.4856120    -0.1117560    -0.5938050
  C       -0.4416064    -0.0192425     0.6249643
  C        1.9157900    -0.1063220    -0.1389790
  C       -1.9157900    -0.1063230     0.1389780
  H        0.3463190    -0.9890650    -1.2292190
  H        0.3197670     0.7835690    -1.2005600
  H       -0.3197660     0.7835590     1.2005670
  H       -0.3463190    -0.9890750     1.2292110
units angstrom
no_reorient  #important for SAPT in psi4, default
symmetry c1  #important for SAPT in psi4, default
}

set PROPERTIES_ORIGIN ["COM"]
properties('MP2/aug-cc-pvtz', properties = ['dipole'])
--------------------------------------------------------------------------

    Molecular point group: c1
  Charge       = 0
  Multiplicity = 1
  Basis Set: AUG-CC-PVTZ
    Blend: AUG-CC-PVTZ
  Basis Set: (AUG-CC-PVTZ AUX)
    Blend: AUG-CC-PVTZ-JKFIT

    Orbital Energies [Eh]
    ---------------------

    Doubly Occupied:

       1A    -26.348185     2A    -26.346134     3A    -20.608171
       4A    -20.604304     5A    -11.451750     6A    -11.448889
       7A    -11.302701     8A    -11.301985     9A     -1.666635
      10A     -1.665043    11A     -1.443404    12A     -1.442127
      13A     -1.139975    14A     -1.000220    15A     -0.864982
      16A     -0.857668    17A     -0.775349    18A     -0.750343
      19A     -0.740931    20A     -0.734533    21A     -0.730407
      22A     -0.718031    23A     -0.681108    24A     -0.636157
      25A     -0.624714    26A     -0.601247    27A     -0.572051
      28A     -0.556297    29A     -0.538632    30A     -0.521470
      31A     -0.492994

  @DF-RHF Final Energy:  -502.60630985937712

   => Energetics <=

    Nuclear Repulsion Energy =            363.1112701448937514
    One-Electron Energy =               -1413.1022851144548440
    Two-Electron Energy =                 547.3847051101839725
    Total Energy =                       -502.6063098593771201
  Basis Set: (AUG-CC-PVTZ AUX)
    Blend: AUG-CC-PVTZ-RI
    Molecular point group: c1

    Geometry (in Angstrom), charge = 0, multiplicity = 1:

       Center              X                  Y                   Z               Mass
    ------------   -----------------  -----------------  -----------------  -----------------
         F            2.118302208312     0.880843824278     0.756996453772    18.998403162730
         F           -2.126957791688     0.880847824278    -0.763120546228    18.998403162730
         O            2.807724208312    -0.859870175722    -0.464590546228    15.994914619570
         O           -2.816379791688    -0.859871175722     0.458457453772    15.994914619570
         C            0.481284208312    -0.139129175722    -0.596869546228    12.000000000000
         C           -0.445934191688    -0.046615675722     0.621899753772    12.000000000000
         C            1.911462208312    -0.133695175722    -0.142043546228    12.000000000000
         C           -1.920117791688    -0.133696175722     0.135913453772    12.000000000000
         H            0.341991208312    -1.016438175722    -1.232283546228     1.007825032230
         H            0.315439208312     0.756195824278    -1.203624546228     1.007825032230
         H           -0.324093791688     0.756185824278     1.197502453772     1.007825032230
         H           -0.350646791688    -1.016448175722     1.226146453772     1.007825032230

  Basis Set: AUG-CC-PVTZ
    Blend: AUG-CC-PVTZ
  Basis Set: (AUG-CC-PVTZ AUX)
    Blend: AUG-CC-PVTZ-JKFIT
	 Reference Energy          =    -502.6063098593771201 [Eh]
	 Singles Energy            =      -0.0000000000000000 [Eh]
	 Same-Spin Energy          =      -0.4439812350329050 [Eh]
	 Opposite-Spin Energy      =      -1.3261703079669012 [Eh]
	 Correlation Energy        =      -1.7701515429998063 [Eh]
	 Total Energy              =    -504.3764614023769468 [Eh]

	 ================> DF-SCS-MP2 Energies <==================
	-----------------------------------------------------------
	 SCS Same-Spin Scale       =       0.3333333333333333 [-]
	 SCS Opposite-Spin Scale   =       1.2000000000000000 [-]
	 SCS Same-Spin Energy      =      -0.1479937450109683 [Eh]
	 SCS Opposite-Spin Energy  =      -1.5914043695602813 [Eh]
	 SCS Correlation Energy    =      -1.7393981145712496 [Eh]
	 SCS Total Energy          =    -504.3457079739483788 [Eh]
	-----------------------------------------------------------

  Dipole Moment: [D]
     X:    -0.1031      Y:     0.6233      Z:    -0.0242     Total:     0.6323

*** Psi4 exiting successfully. Buy a developer a beer!
