                               Psi4 1.4a3.dev225

  ==> Input File <==

--------------------------------------------------------------------------
#psi4
#
memory 32 gb

molecule  {
0 1
  F        2.1226300     0.9082170     0.7600610
  F       -2.1226300     0.9082210    -0.7600560
  O        2.8120520    -0.8324970    -0.4615260
  O       -2.8120520    -0.8324980     0.4615220
  C        0.4856120    -0.1117560    -0.5938050
  C       -0.4856120    -0.1117600     0.5938040
  C        1.9157900    -0.1063220    -0.1389790
  C       -1.7661348     0.0149316     0.0851205
  H        0.3463190    -0.9890650    -1.2292190
  H        0.3197670     0.7835690    -1.2005600
  H       -0.3197660     0.7835590     1.2005670
  H       -0.3463190    -0.9890750     1.2292110
units angstrom
no_reorient  #important for SAPT in psi4, default
symmetry c1  #important for SAPT in psi4, default
}

set PROPERTIES_ORIGIN ["COM"]
properties('MP2/aug-cc-pvtz', properties = ['dipole'])
--------------------------------------------------------------------------

    Molecular point group: c1
  Charge       = 0
  Multiplicity = 1
  Basis Set: AUG-CC-PVTZ
    Blend: AUG-CC-PVTZ
  Basis Set: (AUG-CC-PVTZ AUX)
    Blend: AUG-CC-PVTZ-JKFIT

    Orbital Energies [Eh]
    ---------------------

    Doubly Occupied:

       1A    -26.396981     2A    -26.355298     3A    -20.612464
       4A    -20.570809     5A    -11.466999     6A    -11.457221
       7A    -11.313639     8A    -11.305780     9A     -1.738335
      10A     -1.673528    11A     -1.449705    12A     -1.309527
      13A     -1.171694    14A     -1.034368    15A     -0.907603
      16A     -0.869265    17A     -0.804643    18A     -0.786063
      19A     -0.760814    20A     -0.747149    21A     -0.743184
      22A     -0.718164    23A     -0.687874    24A     -0.643530
      25A     -0.615163    26A     -0.597897    27A     -0.574818
      28A     -0.549534    29A     -0.517713    30A     -0.471681
      31A     -0.461663

  @DF-RHF Final Energy:  -502.54578638794152

   => Energetics <=

    Nuclear Repulsion Energy =            364.2605545249973034
    One-Electron Energy =               -1414.9864695194380602
    Two-Electron Energy =                 548.1801286064992382
    Total Energy =                       -502.5457863879414617
  Basis Set: (AUG-CC-PVTZ AUX)
    Blend: AUG-CC-PVTZ-RI
    Molecular point group: c1

    Geometry (in Angstrom), charge = 0, multiplicity = 1:

       Center              X                  Y                   Z               Mass
    ------------   -----------------  -----------------  -----------------  -----------------
         F            2.107911971887     0.878017639767     0.765357631121    18.998403162730
         F           -2.137348028113     0.878021639767    -0.754759368879    18.998403162730
         O            2.797333971887    -0.862696360233    -0.456229368879    15.994914619570
         O           -2.826770028113    -0.862697360233     0.466818631121    15.994914619570
         C            0.470893971887    -0.141955360233    -0.588508368879    12.000000000000
         C           -0.500330028113    -0.141959360233     0.599100631121    12.000000000000
         C            1.901071971887    -0.136521360233    -0.133682368879    12.000000000000
         C           -1.780852828113    -0.015267760233     0.090417131121    12.000000000000
         H            0.331600971887    -1.019264360233    -1.223922368879     1.007825032230
         H            0.305048971887     0.753369639767    -1.195263368879     1.007825032230
         H           -0.334484028113     0.753359639767     1.205863631121     1.007825032230
         H           -0.361037028113    -1.019274360233     1.234507631121     1.007825032230

  Basis Set: AUG-CC-PVTZ
    Blend: AUG-CC-PVTZ
  Basis Set: (AUG-CC-PVTZ AUX)
    Blend: AUG-CC-PVTZ-JKFIT
	 Reference Energy          =    -502.5457863879415186 [Eh]
	 Singles Energy            =      -0.0000000000000000 [Eh]
	 Same-Spin Energy          =      -0.4498028733082203 [Eh]
	 Opposite-Spin Energy      =      -1.3367529006423755 [Eh]
	 Correlation Energy        =      -1.7865557739505957 [Eh]
	 Total Energy              =    -504.3323421618920861 [Eh]

	 ================> DF-SCS-MP2 Energies <==================
	-----------------------------------------------------------
	 SCS Same-Spin Scale       =       0.3333333333333333 [-]
	 SCS Opposite-Spin Scale   =       1.2000000000000000 [-]
	 SCS Same-Spin Energy      =      -0.1499342911027401 [Eh]
	 SCS Opposite-Spin Energy  =      -1.6041034807708505 [Eh]
	 SCS Correlation Energy    =      -1.7540377718735907 [Eh]
	 SCS Total Energy          =    -504.2998241598151026 [Eh]
	-----------------------------------------------------------

  Dipole Moment: [D]
     X:     0.8980      Y:     1.4558      Z:    -0.4715     Total:     1.7743

*** Psi4 exiting successfully. Buy a developer a beer!
