                               Psi4 1.4a3.dev225

  ==> Input File <==

--------------------------------------------------------------------------
#psi4
#
memory 32 gb

molecule  {
0 1
  F        2.1456024     0.9017292     0.7617786
  F       -2.1226300     0.9082210    -0.7600560
  O        2.8120520    -0.8324970    -0.4615260
  O       -2.8120520    -0.8324980     0.4615220
  C        0.4856120    -0.1117560    -0.5938050
  C       -0.4856120    -0.1117600     0.5938040
  C        1.9157900    -0.1063220    -0.1389790
  C       -1.9157900    -0.1063230     0.1389780
  H        0.3463190    -0.9890650    -1.2292190
  H        0.3197670     0.7835690    -1.2005600
  H       -0.3197660     0.7835590     1.2005670
  H       -0.3463190    -0.9890750     1.2292110
units angstrom
no_reorient  #important for SAPT in psi4, default
symmetry c1  #important for SAPT in psi4, default
}

set PROPERTIES_ORIGIN ["COM"]
properties('MP2/aug-cc-pvtz', properties = ['dipole'])
--------------------------------------------------------------------------

    Molecular point group: c1
  Charge       = 0
  Multiplicity = 1
  Basis Set: AUG-CC-PVTZ
    Blend: AUG-CC-PVTZ
  Basis Set: (AUG-CC-PVTZ AUX)
    Blend: AUG-CC-PVTZ-JKFIT

    Orbital Energies [Eh]
    ---------------------

    Doubly Occupied:

       1A    -26.348564     2A    -26.347438     3A    -20.605723
       4A    -20.604184     5A    -11.450291     6A    -11.449366
       7A    -11.302835     8A    -11.302093     9A     -1.666868
      10A     -1.665725    11A     -1.443277    12A     -1.441879
      13A     -1.141569    14A     -1.005672    15A     -0.865937
      16A     -0.855750    17A     -0.773416    18A     -0.751614
      19A     -0.743297    20A     -0.735023    21A     -0.730779
      22A     -0.717004    23A     -0.674107    24A     -0.637765
      25A     -0.627665    26A     -0.595188    27A     -0.580616
      28A     -0.552254    29A     -0.539368    30A     -0.520288
      31A     -0.496977

  @DF-RHF Final Energy:  -502.62013475180686

   => Energetics <=

    Nuclear Repulsion Energy =            363.1678917306288099
    One-Electron Energy =               -1413.2309885116469559
    Two-Electron Energy =                 547.4429620292113441
    Total Energy =                       -502.6201347518068587
  Basis Set: (AUG-CC-PVTZ AUX)
    Blend: AUG-CC-PVTZ-RI
    Molecular point group: c1

    Geometry (in Angstrom), charge = 0, multiplicity = 1:

       Center              X                  Y                   Z               Mass
    ------------   -----------------  -----------------  -----------------  -----------------
         F            2.142025549415     0.884464930260     0.761511117506    18.998403162730
         F           -2.126206850585     0.890956730260    -0.760323482494    18.998403162730
         O            2.808475149415    -0.849761269740    -0.461793482494    15.994914619570
         O           -2.815628850585    -0.849762269740     0.461254517506    15.994914619570
         C            0.482035149415    -0.129020269740    -0.594072482494    12.000000000000
         C           -0.489188850585    -0.129024269740     0.593536517506    12.000000000000
         C            1.912213149415    -0.123586269740    -0.139246482494    12.000000000000
         C           -1.919366850585    -0.123587269740     0.138710517506    12.000000000000
         H            0.342742149415    -1.006329269740    -1.229486482494     1.007825032230
         H            0.316190149415     0.766304730260    -1.200827482494     1.007825032230
         H           -0.323342850585     0.766294730260     1.200299517506     1.007825032230
         H           -0.349895850585    -1.006339269740     1.228943517506     1.007825032230

  Basis Set: AUG-CC-PVTZ
    Blend: AUG-CC-PVTZ
  Basis Set: (AUG-CC-PVTZ AUX)
    Blend: AUG-CC-PVTZ-JKFIT
	 Reference Energy          =    -502.6201347518068587 [Eh]
	 Singles Energy            =      -0.0000000000000000 [Eh]
	 Same-Spin Energy          =      -0.4439183791876994 [Eh]
	 Opposite-Spin Energy      =      -1.3255012070953962 [Eh]
	 Correlation Energy        =      -1.7694195862830955 [Eh]
	 Total Energy              =    -504.3895543380899653 [Eh]

	 ================> DF-SCS-MP2 Energies <==================
	-----------------------------------------------------------
	 SCS Same-Spin Scale       =       0.3333333333333333 [-]
	 SCS Opposite-Spin Scale   =       1.2000000000000000 [-]
	 SCS Same-Spin Energy      =      -0.1479727930625664 [Eh]
	 SCS Opposite-Spin Energy  =      -1.5906014485144755 [Eh]
	 SCS Correlation Energy    =      -1.7385742415770420 [Eh]
	 SCS Total Energy          =    -504.3587089933839138 [Eh]
	-----------------------------------------------------------

  Dipole Moment: [D]
     X:    -0.0499      Y:     0.6093      Z:    -0.0055     Total:     0.6114

*** Psi4 exiting successfully. Buy a developer a beer!
