                               Psi4 1.4a3.dev225

  ==> Input File <==

--------------------------------------------------------------------------
#psi4
#
memory 32 gb

molecule  {
0 1
  F        2.0301808     0.9310596     0.7504586
  F       -2.1226300     0.9082210    -0.7600560
  O        2.8120520    -0.8324970    -0.4615260
  O       -2.8120520    -0.8324980     0.4615220
  C        0.4856120    -0.1117560    -0.5938050
  C       -0.4856120    -0.1117600     0.5938040
  C        1.9157900    -0.1063220    -0.1389790
  C       -1.9157900    -0.1063230     0.1389780
  H        0.3463190    -0.9890650    -1.2292190
  H        0.3197670     0.7835690    -1.2005600
  H       -0.3197660     0.7835590     1.2005670
  H       -0.3463190    -0.9890750     1.2292110
units angstrom
no_reorient  #important for SAPT in psi4, default
symmetry c1  #important for SAPT in psi4, default
}

set PROPERTIES_ORIGIN ["COM"]
properties('MP2/aug-cc-pvtz', properties = ['dipole'])
--------------------------------------------------------------------------

    Molecular point group: c1
  Charge       = 0
  Multiplicity = 1
  Basis Set: AUG-CC-PVTZ
    Blend: AUG-CC-PVTZ
  Basis Set: (AUG-CC-PVTZ AUX)
    Blend: AUG-CC-PVTZ-JKFIT

    Orbital Energies [Eh]
    ---------------------

    Doubly Occupied:

       1A    -26.351177     2A    -26.346952     3A    -20.610145
       4A    -20.604000     5A    -11.452280     6A    -11.448493
       7A    -11.299718     8A    -11.297865     9A     -1.669748
      10A     -1.665221    11A     -1.447045    12A     -1.441631
      13A     -1.139006    14A     -1.004796    15A     -0.867161
      16A     -0.854792    17A     -0.774238    18A     -0.753353
      19A     -0.743630    20A     -0.736362    21A     -0.729647
      22A     -0.717489    23A     -0.673457    24A     -0.636170
      25A     -0.627784    26A     -0.592546    27A     -0.578525
      28A     -0.553353    29A     -0.539824    30A     -0.520849
      31A     -0.496172

  @DF-RHF Final Energy:  -502.61748499780248

   => Energetics <=

    Nuclear Repulsion Energy =            364.2583352505195080
    One-Electron Energy =               -1415.4047811972186537
    Two-Electron Energy =                 548.5289609488967244
    Total Energy =                       -502.6174849978025350
  Basis Set: (AUG-CC-PVTZ AUX)
    Blend: AUG-CC-PVTZ-RI
    Molecular point group: c1

    Geometry (in Angstrom), charge = 0, multiplicity = 1:

       Center              X                  Y                   Z               Mass
    ------------   -----------------  -----------------  -----------------  -----------------
         F            2.044575291727     0.909228536363     0.751953661041    18.998403162730
         F           -2.108235508273     0.886389936363    -0.758560938959    18.998403162730
         O            2.826446491727    -0.854328063637    -0.460030938959    15.994914619570
         O           -2.797657508273    -0.854329063637     0.463017061041    15.994914619570
         C            0.500006491727    -0.133587063637    -0.592309938959    12.000000000000
         C           -0.471217508273    -0.133591063637     0.595299061041    12.000000000000
         C            1.930184491727    -0.128153063637    -0.137483938959    12.000000000000
         C           -1.901395508273    -0.128154063637     0.140473061041    12.000000000000
         H            0.360713491727    -1.010896063637    -1.227723938959     1.007825032230
         H            0.334161491727     0.761737936363    -1.199064938959     1.007825032230
         H           -0.305371508273     0.761727936363     1.202062061041     1.007825032230
         H           -0.331924508273    -1.010906063637     1.230706061041     1.007825032230

  Basis Set: AUG-CC-PVTZ
    Blend: AUG-CC-PVTZ
  Basis Set: (AUG-CC-PVTZ AUX)
    Blend: AUG-CC-PVTZ-JKFIT
	 Reference Energy          =    -502.6174849978024781 [Eh]
	 Singles Energy            =      -0.0000000000000000 [Eh]
	 Same-Spin Energy          =      -0.4443370910869364 [Eh]
	 Opposite-Spin Energy      =      -1.3261812130979447 [Eh]
	 Correlation Energy        =      -1.7705183041848811 [Eh]
	 Total Energy              =    -504.3880033019873395 [Eh]

	 ================> DF-SCS-MP2 Energies <==================
	-----------------------------------------------------------
	 SCS Same-Spin Scale       =       0.3333333333333333 [-]
	 SCS Opposite-Spin Scale   =       1.2000000000000000 [-]
	 SCS Same-Spin Energy      =      -0.1481123636956455 [Eh]
	 SCS Opposite-Spin Energy  =      -1.5914174557175336 [Eh]
	 SCS Correlation Energy    =      -1.7395298194131790 [Eh]
	 SCS Total Energy          =    -504.3570148172156564 [Eh]
	-----------------------------------------------------------

  Dipole Moment: [D]
     X:     0.2042      Y:     0.5874      Z:     0.0262     Total:     0.6224

*** Psi4 exiting successfully. Buy a developer a beer!
