                               Psi4 1.4a3.dev225

  ==> Input File <==

--------------------------------------------------------------------------
#psi4
#
memory 32 gb

molecule  {
0 1
  F        2.2592749     0.8647268     0.7662433
  F       -2.1226300     0.9082210    -0.7600560
  O        2.8120520    -0.8324970    -0.4615260
  O       -2.8120520    -0.8324980     0.4615220
  C        0.4856120    -0.1117560    -0.5938050
  C       -0.4856120    -0.1117600     0.5938040
  C        1.9157900    -0.1063220    -0.1389790
  C       -1.9157900    -0.1063230     0.1389780
  H        0.3463190    -0.9890650    -1.2292190
  H        0.3197670     0.7835690    -1.2005600
  H       -0.3197660     0.7835590     1.2005670
  H       -0.3463190    -0.9890750     1.2292110
units angstrom
no_reorient  #important for SAPT in psi4, default
symmetry c1  #important for SAPT in psi4, default
}

set PROPERTIES_ORIGIN ["COM"]
properties('MP2/aug-cc-pvtz', properties = ['dipole'])
--------------------------------------------------------------------------

    Molecular point group: c1
  Charge       = 0
  Multiplicity = 1
  Basis Set: AUG-CC-PVTZ
    Blend: AUG-CC-PVTZ
  Basis Set: (AUG-CC-PVTZ AUX)
    Blend: AUG-CC-PVTZ-JKFIT

    Orbital Energies [Eh]
    ---------------------

    Doubly Occupied:

       1A    -26.350069     2A    -26.342888     3A    -20.607315
       4A    -20.598035     5A    -11.451934     6A    -11.446495
       7A    -11.307316     8A    -11.304550     9A     -1.668342
      10A     -1.662083    11A     -1.444774    12A     -1.436375
      13A     -1.143983    14A     -1.006683    15A     -0.865215
      16A     -0.855638    17A     -0.773385    18A     -0.750900
      19A     -0.743435    20A     -0.733104    21A     -0.730769
      22A     -0.715878    23A     -0.675087    24A     -0.639086
      25A     -0.626614    26A     -0.597941    27A     -0.582275
      28A     -0.551644    29A     -0.537478    30A     -0.519165
      31A     -0.496776

  @DF-RHF Final Energy:  -502.61807836432462

   => Energetics <=

    Nuclear Repulsion Energy =            362.2706910281222576
    One-Electron Energy =               -1411.4470788326082129
    Two-Electron Energy =                 546.5583094401614517
    Total Energy =                       -502.6180783643245604
  Basis Set: (AUG-CC-PVTZ AUX)
    Blend: AUG-CC-PVTZ-RI
    Molecular point group: c1

    Geometry (in Angstrom), charge = 0, multiplicity = 1:

       Center              X                  Y                   Z               Mass
    ------------   -----------------  -----------------  -----------------  -----------------
         F            2.237999044992     0.853223867798     0.765280656011    18.998403162730
         F           -2.143905855008     0.896718067798    -0.761018643989    18.998403162730
         O            2.790776144992    -0.843999932202    -0.462488643989    15.994914619570
         O           -2.833327855008    -0.844000932202     0.460559356011    15.994914619570
         C            0.464336144992    -0.123258932202    -0.594767643989    12.000000000000
         C           -0.506887855008    -0.123262932202     0.592841356011    12.000000000000
         C            1.894514144992    -0.117824932202    -0.139941643989    12.000000000000
         C           -1.937065855008    -0.117825932202     0.138015356011    12.000000000000
         H            0.325043144992    -1.000567932202    -1.230181643989     1.007825032230
         H            0.298491144992     0.772066067798    -1.201522643989     1.007825032230
         H           -0.341041855008     0.772056067798     1.199604356011     1.007825032230
         H           -0.367594855008    -1.000577932202     1.228248356011     1.007825032230

  Basis Set: AUG-CC-PVTZ
    Blend: AUG-CC-PVTZ
  Basis Set: (AUG-CC-PVTZ AUX)
    Blend: AUG-CC-PVTZ-JKFIT
	 Reference Energy          =    -502.6180783643246173 [Eh]
	 Singles Energy            =      -0.0000000000000000 [Eh]
	 Same-Spin Energy          =      -0.4436424378358534 [Eh]
	 Opposite-Spin Energy      =      -1.3251205024872843 [Eh]
	 Correlation Energy        =      -1.7687629403231377 [Eh]
	 Total Energy              =    -504.3868413046477599 [Eh]

	 ================> DF-SCS-MP2 Energies <==================
	-----------------------------------------------------------
	 SCS Same-Spin Scale       =       0.3333333333333333 [-]
	 SCS Opposite-Spin Scale   =       1.2000000000000000 [-]
	 SCS Same-Spin Energy      =      -0.1478808126119511 [Eh]
	 SCS Opposite-Spin Energy  =      -1.5901446029847410 [Eh]
	 SCS Correlation Energy    =      -1.7380254155966921 [Eh]
	 SCS Total Energy          =    -504.3561037799212841 [Eh]
	-----------------------------------------------------------

  Dipole Moment: [D]
     X:    -0.2925      Y:     0.6435      Z:    -0.0266     Total:     0.7073

*** Psi4 exiting successfully. Buy a developer a beer!
