                               Psi4 1.4a3.dev225

  ==> Input File <==

--------------------------------------------------------------------------
#psi4
#
memory 32 gb

molecule  {
0 1
  F        2.1226300     0.9082170     0.7600610
  F       -2.1226300     0.9082210    -0.7600560
  O        2.8120520    -0.8324970    -0.4615260
  O       -2.8120520    -0.8324980     0.4615220
  C        0.4856120    -0.1117560    -0.5938050
  C       -0.4856120    -0.1117600     0.5938040
  C        1.9157900    -0.1063220    -0.1389790
  C       -1.9308740    -0.0323366     0.0734152
  H        0.3463190    -0.9890650    -1.2292190
  H        0.3197670     0.7835690    -1.2005600
  H       -0.3197660     0.7835590     1.2005670
  H       -0.3463190    -0.9890750     1.2292110
units angstrom
no_reorient  #important for SAPT in psi4, default
symmetry c1  #important for SAPT in psi4, default
}

set PROPERTIES_ORIGIN ["COM"]
properties('MP2/aug-cc-pvtz', properties = ['dipole'])
--------------------------------------------------------------------------

    Molecular point group: c1
  Charge       = 0
  Multiplicity = 1
  Basis Set: AUG-CC-PVTZ
    Blend: AUG-CC-PVTZ
  Basis Set: (AUG-CC-PVTZ AUX)
    Blend: AUG-CC-PVTZ-JKFIT

    Orbital Energies [Eh]
    ---------------------

    Doubly Occupied:

       1A    -26.390820     2A    -26.347096     3A    -20.604095
       4A    -20.589097     5A    -11.454912     6A    -11.448530
       7A    -11.299958     8A    -11.298708     9A     -1.739754
      10A     -1.665377    11A     -1.441734    12A     -1.397942
      13A     -1.135761    14A     -1.000268    15A     -0.906784
      16A     -0.858304    17A     -0.799538    18A     -0.784108
      19A     -0.753017    20A     -0.738788    21A     -0.734568
      22A     -0.715433    23A     -0.673057    24A     -0.633918
      25A     -0.613099    26A     -0.592715    27A     -0.575295
      28A     -0.546391    29A     -0.521306    30A     -0.511329
      31A     -0.483618

  @DF-RHF Final Energy:  -502.60826366347163

   => Energetics <=

    Nuclear Repulsion Energy =            363.6952710970034559
    One-Electron Energy =               -1414.0964301710694144
    Two-Electron Energy =                 547.7928954105943831
    Total Energy =                       -502.6082636634716891
  Basis Set: (AUG-CC-PVTZ AUX)
    Blend: AUG-CC-PVTZ-RI
    Molecular point group: c1

    Geometry (in Angstrom), charge = 0, multiplicity = 1:

       Center              X                  Y                   Z               Mass
    ------------   -----------------  -----------------  -----------------  -----------------
         F            2.124113445783     0.882666287498     0.766508802866    18.998403162730
         F           -2.121146554217     0.882670287498    -0.753608197134    18.998403162730
         O            2.813535445783    -0.858047712502    -0.455078197134    15.994914619570
         O           -2.810568554217    -0.858048712502     0.467969802866    15.994914619570
         C            0.487095445783    -0.137306712502    -0.587357197134    12.000000000000
         C           -0.484128554217    -0.137310712502     0.600251802866    12.000000000000
         C            1.917273445783    -0.131872712502    -0.132531197134    12.000000000000
         C           -1.929390554217    -0.057887312502     0.079863002866    12.000000000000
         H            0.347802445783    -1.014615712502    -1.222771197134     1.007825032230
         H            0.321250445783     0.758018287498    -1.194112197134     1.007825032230
         H           -0.318282554217     0.758008287498     1.207014802866     1.007825032230
         H           -0.344835554217    -1.014625712502     1.235658802866     1.007825032230

  Basis Set: AUG-CC-PVTZ
    Blend: AUG-CC-PVTZ
  Basis Set: (AUG-CC-PVTZ AUX)
    Blend: AUG-CC-PVTZ-JKFIT
	 Reference Energy          =    -502.6082636634716323 [Eh]
	 Singles Energy            =      -0.0000000000000000 [Eh]
	 Same-Spin Energy          =      -0.4440467670117021 [Eh]
	 Opposite-Spin Energy      =      -1.3253260548713752 [Eh]
	 Correlation Energy        =      -1.7693728218830773 [Eh]
	 Total Energy              =    -504.3776364853546852 [Eh]

	 ================> DF-SCS-MP2 Energies <==================
	-----------------------------------------------------------
	 SCS Same-Spin Scale       =       0.3333333333333333 [-]
	 SCS Opposite-Spin Scale   =       1.2000000000000000 [-]
	 SCS Same-Spin Energy      =      -0.1480155890039007 [Eh]
	 SCS Opposite-Spin Energy  =      -1.5903912658456503 [Eh]
	 SCS Correlation Energy    =      -1.7384068548495510 [Eh]
	 SCS Total Energy          =    -504.3466705183211616 [Eh]
	-----------------------------------------------------------

  Dipole Moment: [D]
     X:    -0.0947      Y:     1.2237      Z:    -0.5020     Total:     1.3260

*** Psi4 exiting successfully. Buy a developer a beer!
