                               Psi4 1.4a3.dev225

  ==> Input File <==

--------------------------------------------------------------------------
#psi4
#
memory 32 gb

molecule  {
0 1
  F        2.1226300     0.9082170     0.7600610
  F       -2.1226300     0.9082210    -0.7600560
  O        2.8120520    -0.8324970    -0.4615260
  O       -2.8120520    -0.8324980     0.4615220
  C        0.4186211    -0.2509323    -0.6377336
  C       -0.4856120    -0.1117600     0.5938040
  C        1.9157900    -0.1063220    -0.1389790
  C       -1.9157900    -0.1063230     0.1389780
  H        0.3463190    -0.9890650    -1.2292190
  H        0.3197670     0.7835690    -1.2005600
  H       -0.3197660     0.7835590     1.2005670
  H       -0.3463190    -0.9890750     1.2292110
units angstrom
no_reorient  #important for SAPT in psi4, default
symmetry c1  #important for SAPT in psi4, default
}

set PROPERTIES_ORIGIN ["COM"]
properties('MP2/aug-cc-pvtz', properties = ['dipole'])
--------------------------------------------------------------------------

    Molecular point group: c1
  Charge       = 0
  Multiplicity = 1
  Basis Set: AUG-CC-PVTZ
    Blend: AUG-CC-PVTZ
  Basis Set: (AUG-CC-PVTZ AUX)
    Blend: AUG-CC-PVTZ-JKFIT

    Orbital Energies [Eh]
    ---------------------

    Doubly Occupied:

       1A    -26.353342     2A    -26.347250     3A    -20.603975
       4A    -20.600744     5A    -11.450629     6A    -11.447840
       7A    -11.305481     8A    -11.302568     9A     -1.667845
      10A     -1.665586    11A     -1.441789    12A     -1.439557
      13A     -1.138589    14A     -0.996319    15A     -0.868728
      16A     -0.860021    17A     -0.775122    18A     -0.753021
      19A     -0.739511    20A     -0.734988    21A     -0.727415
      22A     -0.718531    23A     -0.675416    24A     -0.635662
      25A     -0.628050    26A     -0.618503    27A     -0.573302
      28A     -0.552396    29A     -0.535013    30A     -0.513026
      31A     -0.483836

  @DF-RHF Final Energy:  -502.58775427705655

   => Energetics <=

    Nuclear Repulsion Energy =            362.4552255028526133
    One-Electron Energy =               -1411.7778491061735622
    Two-Electron Energy =                 546.7348693262645156
    Total Energy =                       -502.5877542770565469
  Basis Set: (AUG-CC-PVTZ AUX)
    Blend: AUG-CC-PVTZ-RI
    Molecular point group: c1

    Geometry (in Angstrom), charge = 0, multiplicity = 1:

       Center              X                  Y                   Z               Mass
    ------------   -----------------  -----------------  -----------------  -----------------
         F            2.129218292021     0.903630028488     0.764381161560    18.998403162730
         F           -2.116041707979     0.903634028488    -0.755735838440    18.998403162730
         O            2.818640292021    -0.837083971512    -0.457205838440    15.994914619570
         O           -2.805463707979    -0.837084971512     0.465842161560    15.994914619570
         C            0.425209392021    -0.255519271512    -0.633413438440    12.000000000000
         C           -0.479023707979    -0.116346971512     0.598124161560    12.000000000000
         C            1.922378292021    -0.110908971512    -0.134658838440    12.000000000000
         C           -1.909201707979    -0.110909971512     0.143298161560    12.000000000000
         H            0.352907292021    -0.993651971512    -1.224898838440     1.007825032230
         H            0.326355292021     0.778982028488    -1.196239838440     1.007825032230
         H           -0.313177707979     0.778972028488     1.204887161560     1.007825032230
         H           -0.339730707979    -0.993661971512     1.233531161560     1.007825032230

  Basis Set: AUG-CC-PVTZ
    Blend: AUG-CC-PVTZ
  Basis Set: (AUG-CC-PVTZ AUX)
    Blend: AUG-CC-PVTZ-JKFIT
	 Reference Energy          =    -502.5877542770565469 [Eh]
	 Singles Energy            =      -0.0000000000000000 [Eh]
	 Same-Spin Energy          =      -0.4440121742187511 [Eh]
	 Opposite-Spin Energy      =      -1.3265042384457602 [Eh]
	 Correlation Energy        =      -1.7705164126645112 [Eh]
	 Total Energy              =    -504.3582706897210528 [Eh]

	 ================> DF-SCS-MP2 Energies <==================
	-----------------------------------------------------------
	 SCS Same-Spin Scale       =       0.3333333333333333 [-]
	 SCS Opposite-Spin Scale   =       1.2000000000000000 [-]
	 SCS Same-Spin Energy      =      -0.1480040580729170 [Eh]
	 SCS Opposite-Spin Energy  =      -1.5918050861349122 [Eh]
	 SCS Correlation Energy    =      -1.7398091442078292 [Eh]
	 SCS Total Energy          =    -504.3275634212643581 [Eh]
	-----------------------------------------------------------

  Dipole Moment: [D]
     X:     0.0116      Y:     0.5869      Z:     0.0511     Total:     0.5892

*** Psi4 exiting successfully. Buy a developer a beer!
