                               Psi4 1.4a3.dev225

  ==> Input File <==

--------------------------------------------------------------------------
#psi4
#
memory 32 gb

molecule  {
0 1
  F        2.1226300     0.9082170     0.7600610
  F       -2.1226300     0.9082210    -0.7600560
  O        2.8120520    -0.8324970    -0.4615260
  O       -2.8120520    -0.8324980     0.4615220
  C        0.4856120    -0.1117560    -0.5938050
  C       -0.4856120    -0.1117600     0.5938040
  C        1.9157900    -0.1063220    -0.1389790
  C       -1.9157900    -0.1063230     0.1389780
  H        0.3463190    -0.9890650    -1.2292190
  H        0.3197670     0.7835690    -1.2005600
  H       -0.3121876     0.8244712     1.2282935
  H       -0.3463190    -0.9890750     1.2292110
units angstrom
no_reorient  #important for SAPT in psi4, default
symmetry c1  #important for SAPT in psi4, default
}

set PROPERTIES_ORIGIN ["COM"]
properties('MP2/aug-cc-pvtz', properties = ['dipole'])
--------------------------------------------------------------------------

    Molecular point group: c1
  Charge       = 0
  Multiplicity = 1
  Basis Set: AUG-CC-PVTZ
    Blend: AUG-CC-PVTZ
  Basis Set: (AUG-CC-PVTZ AUX)
    Blend: AUG-CC-PVTZ-JKFIT

    Orbital Energies [Eh]
    ---------------------

    Doubly Occupied:

       1A    -26.348128     2A    -26.348053     3A    -20.605426
       4A    -20.605363     5A    -11.450072     6A    -11.449980
       7A    -11.306900     8A    -11.302039     9A     -1.666571
      10A     -1.666187    11A     -1.443085    12A     -1.442825
      13A     -1.139299    14A     -1.003929    15A     -0.865926
      16A     -0.854243    17A     -0.772396    18A     -0.751513
      19A     -0.743124    20A     -0.735186    21A     -0.729770
      22A     -0.716493    23A     -0.670745    24A     -0.636924
      25A     -0.627426    26A     -0.594410    27A     -0.578183
      28A     -0.551247    29A     -0.538601    30A     -0.519726
      31A     -0.496807

  @DF-RHF Final Energy:  -502.61777259905176

   => Energetics <=

    Nuclear Repulsion Energy =            363.1380401126943411
    One-Electron Energy =               -1413.1904690983158162
    Two-Electron Energy =                 547.4346563865697135
    Total Energy =                       -502.6177725990517047
  Basis Set: (AUG-CC-PVTZ AUX)
    Blend: AUG-CC-PVTZ-RI
    Molecular point group: c1

    Geometry (in Angstrom), charge = 0, multiplicity = 1:

       Center              X                  Y                   Z               Mass
    ------------   -----------------  -----------------  -----------------  -----------------
         F            2.122567396834     0.889604648289     0.759831939697    18.998403162730
         F           -2.122692603166     0.889608648289    -0.760285060303    18.998403162730
         O            2.811989396834    -0.851109351711    -0.461755060303    15.994914619570
         O           -2.812114603166    -0.851110351711     0.461292939697    15.994914619570
         C            0.485549396834    -0.130368351711    -0.594034060303    12.000000000000
         C           -0.485674603166    -0.130372351711     0.593574939697    12.000000000000
         C            1.915727396834    -0.124934351711    -0.139208060303    12.000000000000
         C           -1.915852603166    -0.124935351711     0.138748939697    12.000000000000
         H            0.346256396834    -1.007677351711    -1.229448060303     1.007825032230
         H            0.319704396834     0.764956648289    -1.200789060303     1.007825032230
         H           -0.312250203166     0.805858848289     1.228064439697     1.007825032230
         H           -0.346381603166    -1.007687351711     1.228981939697     1.007825032230

  Basis Set: AUG-CC-PVTZ
    Blend: AUG-CC-PVTZ
  Basis Set: (AUG-CC-PVTZ AUX)
    Blend: AUG-CC-PVTZ-JKFIT
	 Reference Energy          =    -502.6177725990517615 [Eh]
	 Singles Energy            =      -0.0000000000000000 [Eh]
	 Same-Spin Energy          =      -0.4440545428695167 [Eh]
	 Opposite-Spin Energy      =      -1.3259729607864343 [Eh]
	 Correlation Energy        =      -1.7700275036559510 [Eh]
	 Total Energy              =    -504.3878001027077289 [Eh]

	 ================> DF-SCS-MP2 Energies <==================
	-----------------------------------------------------------
	 SCS Same-Spin Scale       =       0.3333333333333333 [-]
	 SCS Opposite-Spin Scale   =       1.2000000000000000 [-]
	 SCS Same-Spin Energy      =      -0.1480181809565056 [Eh]
	 SCS Opposite-Spin Energy  =      -1.5911675529437213 [Eh]
	 SCS Correlation Energy    =      -1.7391857339002268 [Eh]
	 SCS Total Energy          =    -504.3569583329519901 [Eh]
	-----------------------------------------------------------

  Dipole Moment: [D]
     X:     0.0091      Y:     0.6080      Z:    -0.0004     Total:     0.6080

*** Psi4 exiting successfully. Buy a developer a beer!
