                               Psi4 1.4a3.dev225

  ==> Input File <==

--------------------------------------------------------------------------
#psi4
#
memory 32 gb

molecule  {
0 1
  F        2.1685047     0.8949343     0.7632218
  F       -2.1226300     0.9082210    -0.7600560
  O        2.8120520    -0.8324970    -0.4615260
  O       -2.8120520    -0.8324980     0.4615220
  C        0.4856120    -0.1117560    -0.5938050
  C       -0.4856120    -0.1117600     0.5938040
  C        1.9157900    -0.1063220    -0.1389790
  C       -1.9157900    -0.1063230     0.1389780
  H        0.3463190    -0.9890650    -1.2292190
  H        0.3197670     0.7835690    -1.2005600
  H       -0.3197660     0.7835590     1.2005670
  H       -0.3463190    -0.9890750     1.2292110
units angstrom
no_reorient  #important for SAPT in psi4, default
symmetry c1  #important for SAPT in psi4, default
}

set PROPERTIES_ORIGIN ["COM"]
properties('MP2/aug-cc-pvtz', properties = ['dipole'])
--------------------------------------------------------------------------

    Molecular point group: c1
  Charge       = 0
  Multiplicity = 1
  Basis Set: AUG-CC-PVTZ
    Blend: AUG-CC-PVTZ
  Basis Set: (AUG-CC-PVTZ AUX)
    Blend: AUG-CC-PVTZ-JKFIT

    Orbital Energies [Eh]
    ---------------------

    Doubly Occupied:

       1A    -26.348874     2A    -26.346593     3A    -20.606052
       4A    -20.602970     5A    -11.450632     6A    -11.448788
       7A    -11.303711     8A    -11.302638     9A     -1.667161
      10A     -1.664981    11A     -1.443583    12A     -1.440814
      13A     -1.142064    14A     -1.005866    15A     -0.865737
      16A     -0.855829    17A     -0.773356    18A     -0.751390
      19A     -0.743278    20A     -0.734667    21A     -0.730881
      22A     -0.716837    23A     -0.674285    24A     -0.638045
      25A     -0.627525    26A     -0.595737    27A     -0.580981
      28A     -0.552083    29A     -0.539106    30A     -0.520103
      31A     -0.497029

  @DF-RHF Final Energy:  -502.62009616932954

   => Energetics <=

    Nuclear Repulsion Energy =            362.9731522023116099
    One-Electron Energy =               -1412.8433051701088061
    Two-Electron Energy =                 547.2500567984676536
    Total Energy =                       -502.6200961693294857
  Basis Set: (AUG-CC-PVTZ AUX)
    Blend: AUG-CC-PVTZ-RI
    Molecular point group: c1

    Geometry (in Angstrom), charge = 0, multiplicity = 1:

       Center              X                  Y                   Z               Mass
    ------------   -----------------  -----------------  -----------------  -----------------
         F            2.161361921781     0.878728007917     0.762729608775    18.998403162730
         F           -2.129772778219     0.892014707917    -0.760548191225    18.998403162730
         O            2.804909221781    -0.848703292083    -0.462018191225    15.994914619570
         O           -2.819194778219    -0.848704292083     0.461029808775    15.994914619570
         C            0.478469221781    -0.127962292083    -0.594297191225    12.000000000000
         C           -0.492754778219    -0.127966292083     0.593311808775    12.000000000000
         C            1.908647221781    -0.122528292083    -0.139471191225    12.000000000000
         C           -1.922932778219    -0.122529292083     0.138485808775    12.000000000000
         H            0.339176221781    -1.005271292083    -1.229711191225     1.007825032230
         H            0.312624221781     0.767362707917    -1.201052191225     1.007825032230
         H           -0.326908778219     0.767352707917     1.200074808775     1.007825032230
         H           -0.353461778219    -1.005281292083     1.228718808775     1.007825032230

  Basis Set: AUG-CC-PVTZ
    Blend: AUG-CC-PVTZ
  Basis Set: (AUG-CC-PVTZ AUX)
    Blend: AUG-CC-PVTZ-JKFIT
	 Reference Energy          =    -502.6200961693295426 [Eh]
	 Singles Energy            =      -0.0000000000000000 [Eh]
	 Same-Spin Energy          =      -0.4438519978983523 [Eh]
	 Opposite-Spin Energy      =      -1.3254011621203730 [Eh]
	 Correlation Energy        =      -1.7692531600187253 [Eh]
	 Total Energy              =    -504.3893493293482493 [Eh]

	 ================> DF-SCS-MP2 Energies <==================
	-----------------------------------------------------------
	 SCS Same-Spin Scale       =       0.3333333333333333 [-]
	 SCS Opposite-Spin Scale   =       1.2000000000000000 [-]
	 SCS Same-Spin Energy      =      -0.1479506659661174 [Eh]
	 SCS Opposite-Spin Energy  =      -1.5904813945444476 [Eh]
	 SCS Correlation Energy    =      -1.7384320605105650 [Eh]
	 SCS Total Energy          =    -504.3585282298400898 [Eh]
	-----------------------------------------------------------

  Dipole Moment: [D]
     X:    -0.0994      Y:     0.6152      Z:    -0.0105     Total:     0.6233

*** Psi4 exiting successfully. Buy a developer a beer!
