                               Psi4 1.4a3.dev225

  ==> Input File <==

--------------------------------------------------------------------------
#psi4
#
memory 32 gb

molecule  {
0 1
  F        2.1226300     0.9082170     0.7600610
  F       -2.1226300     0.9082210    -0.7600560
  O        2.8120520    -0.8324970    -0.4615260
  O       -2.8120520    -0.8324980     0.4615220
  C        0.4856120    -0.1117560    -0.5938050
  C       -0.4856120    -0.1117600     0.5938040
  C        1.9157900    -0.1063220    -0.1389790
  C       -1.9532038    -0.1366367     0.1524424
  H        0.3463190    -0.9890650    -1.2292190
  H        0.3197670     0.7835690    -1.2005600
  H       -0.3197660     0.7835590     1.2005670
  H       -0.3463190    -0.9890750     1.2292110
units angstrom
no_reorient  #important for SAPT in psi4, default
symmetry c1  #important for SAPT in psi4, default
}

set PROPERTIES_ORIGIN ["COM"]
properties('MP2/aug-cc-pvtz', properties = ['dipole'])
--------------------------------------------------------------------------

    Molecular point group: c1
  Charge       = 0
  Multiplicity = 1
  Basis Set: AUG-CC-PVTZ
    Blend: AUG-CC-PVTZ
  Basis Set: (AUG-CC-PVTZ AUX)
    Blend: AUG-CC-PVTZ-JKFIT

    Orbital Energies [Eh]
    ---------------------

    Doubly Occupied:

       1A    -26.346544     2A    -26.333654     3A    -20.613336
       4A    -20.603684     5A    -11.448174     6A    -11.443935
       7A    -11.300966     8A    -11.298943     9A     -1.664831
      10A     -1.648041    11A     -1.483076    12A     -1.441317
      13A     -1.134389    14A     -0.997402    15A     -0.860967
      16A     -0.847698    17A     -0.768613    18A     -0.749627
      19A     -0.744737    20A     -0.732925    21A     -0.726273
      22A     -0.715969    23A     -0.674617    24A     -0.635546
      25A     -0.628247    26A     -0.595378    27A     -0.581666
      28A     -0.561835    29A     -0.542349    30A     -0.523051
      31A     -0.495634

  @DF-RHF Final Energy:  -502.61997186286698

   => Energetics <=

    Nuclear Repulsion Energy =            363.3064794494892453
    One-Electron Energy =               -1413.5660493814041274
    Two-Electron Energy =                 547.6395980690479064
    Total Energy =                       -502.6199718628670325
  Basis Set: (AUG-CC-PVTZ AUX)
    Blend: AUG-CC-PVTZ-RI
    Molecular point group: c1

    Geometry (in Angstrom), charge = 0, multiplicity = 1:

       Center              X                  Y                   Z               Mass
    ------------   -----------------  -----------------  -----------------  -----------------
         F            2.126309496704     0.892923805730     0.758736778248    18.998403162730
         F           -2.118950503296     0.892927805730    -0.761380221752    18.998403162730
         O            2.815731496704    -0.847790194270    -0.462850221752    15.994914619570
         O           -2.808372503296    -0.847791194270     0.460197778248    15.994914619570
         C            0.489291496704    -0.127049194270    -0.595129221752    12.000000000000
         C           -0.481932503296    -0.127053194270     0.592479778248    12.000000000000
         C            1.919469496704    -0.121615194270    -0.140303221752    12.000000000000
         C           -1.949524303296    -0.151929894270     0.151118178248    12.000000000000
         H            0.349998496704    -1.004358194270    -1.230543221752     1.007825032230
         H            0.323446496704     0.768275805730    -1.201884221752     1.007825032230
         H           -0.316086503296     0.768265805730     1.199242778248     1.007825032230
         H           -0.342639503296    -1.004368194270     1.227886778248     1.007825032230

  Basis Set: AUG-CC-PVTZ
    Blend: AUG-CC-PVTZ
  Basis Set: (AUG-CC-PVTZ AUX)
    Blend: AUG-CC-PVTZ-JKFIT
	 Reference Energy          =    -502.6199718628669757 [Eh]
	 Singles Energy            =      -0.0000000000000000 [Eh]
	 Same-Spin Energy          =      -0.4428879753383866 [Eh]
	 Opposite-Spin Energy      =      -1.3234428553700990 [Eh]
	 Correlation Energy        =      -1.7663308307084855 [Eh]
	 Total Energy              =    -504.3863026935754874 [Eh]

	 ================> DF-SCS-MP2 Energies <==================
	-----------------------------------------------------------
	 SCS Same-Spin Scale       =       0.3333333333333333 [-]
	 SCS Opposite-Spin Scale   =       1.2000000000000000 [-]
	 SCS Same-Spin Energy      =      -0.1476293251127955 [Eh]
	 SCS Opposite-Spin Energy  =      -1.5881314264441186 [Eh]
	 SCS Correlation Energy    =      -1.7357607515569142 [Eh]
	 SCS Total Energy          =    -504.3557326144239141 [Eh]
	-----------------------------------------------------------

  Dipole Moment: [D]
     X:    -0.2703      Y:     0.3367      Z:     0.1509     Total:     0.4574

*** Psi4 exiting successfully. Buy a developer a beer!
