                               Psi4 1.4a3.dev225

  ==> Input File <==

--------------------------------------------------------------------------
#psi4
#
memory 32 gb

molecule  {
0 1
  F        2.1226300     0.9082170     0.7600610
  F       -2.1226300     0.9082210    -0.7600560
  O        2.8120520    -0.8324970    -0.4615260
  O       -2.8120520    -0.8324980     0.4615220
  C        0.5056106    -0.0652885    -0.5762427
  C       -0.4856120    -0.1117600     0.5938040
  C        1.9157900    -0.1063220    -0.1389790
  C       -1.9157900    -0.1063230     0.1389780
  H        0.3463190    -0.9890650    -1.2292190
  H        0.3197670     0.7835690    -1.2005600
  H       -0.3197660     0.7835590     1.2005670
  H       -0.3463190    -0.9890750     1.2292110
units angstrom
no_reorient  #important for SAPT in psi4, default
symmetry c1  #important for SAPT in psi4, default
}

set PROPERTIES_ORIGIN ["COM"]
properties('MP2/aug-cc-pvtz', properties = ['dipole'])
--------------------------------------------------------------------------

    Molecular point group: c1
  Charge       = 0
  Multiplicity = 1
  Basis Set: AUG-CC-PVTZ
    Blend: AUG-CC-PVTZ
  Basis Set: (AUG-CC-PVTZ AUX)
    Blend: AUG-CC-PVTZ-JKFIT

    Orbital Energies [Eh]
    ---------------------

    Doubly Occupied:

       1A    -26.348670     2A    -26.346479     3A    -20.607081
       4A    -20.605974     5A    -11.450822     6A    -11.450050
       7A    -11.302514     8A    -11.301838     9A     -1.666975
      10A     -1.666250    11A     -1.444080    12A     -1.443436
      13A     -1.142736    14A     -1.009665    15A     -0.866626
      16A     -0.854544    17A     -0.774683    18A     -0.751323
      19A     -0.745367    20A     -0.735788    21A     -0.731894
      22A     -0.717191    23A     -0.673849    24A     -0.638344
      25A     -0.629491    26A     -0.593936    27A     -0.573042
      28A     -0.551608    29A     -0.539164    30A     -0.521084
      31A     -0.500161

  @DF-RHF Final Energy:  -502.61629546721679

   => Energetics <=

    Nuclear Repulsion Energy =            363.6749260446911762
    One-Electron Energy =               -1414.2131132302306469
    Two-Electron Energy =                 547.9218917183227404
    Total Energy =                       -502.6162954672167871
  Basis Set: (AUG-CC-PVTZ AUX)
    Blend: AUG-CC-PVTZ-RI
    Molecular point group: c1

    Geometry (in Angstrom), charge = 0, multiplicity = 1:

       Center              X                  Y                   Z               Mass
    ------------   -----------------  -----------------  -----------------  -----------------
         F            2.120663205475     0.885372666672     0.758333765366    18.998403162730
         F           -2.124596794525     0.885376666672    -0.761783234634    18.998403162730
         O            2.810085205475    -0.855341333328    -0.463253234634    15.994914619570
         O           -2.814018794525    -0.855342333328     0.459794765366    15.994914619570
         C            0.503643805475    -0.088132833328    -0.577969934634    12.000000000000
         C           -0.487578794525    -0.134604333328     0.592076765366    12.000000000000
         C            1.913823205475    -0.129166333328    -0.140706234634    12.000000000000
         C           -1.917756794525    -0.129167333328     0.137250765366    12.000000000000
         H            0.344352205475    -1.011909333328    -1.230946234634     1.007825032230
         H            0.317800205475     0.760724666672    -1.202287234634     1.007825032230
         H           -0.321732794525     0.760714666672     1.198839765366     1.007825032230
         H           -0.348285794525    -1.011919333328     1.227483765366     1.007825032230

  Basis Set: AUG-CC-PVTZ
    Blend: AUG-CC-PVTZ
  Basis Set: (AUG-CC-PVTZ AUX)
    Blend: AUG-CC-PVTZ-JKFIT
	 Reference Energy          =    -502.6162954672167871 [Eh]
	 Singles Energy            =      -0.0000000000000000 [Eh]
	 Same-Spin Energy          =      -0.4442802191867209 [Eh]
	 Opposite-Spin Energy      =      -1.3261540259725439 [Eh]
	 Correlation Energy        =      -1.7704342451592647 [Eh]
	 Total Energy              =    -504.3867297123760522 [Eh]

	 ================> DF-SCS-MP2 Energies <==================
	-----------------------------------------------------------
	 SCS Same-Spin Scale       =       0.3333333333333333 [-]
	 SCS Opposite-Spin Scale   =       1.2000000000000000 [-]
	 SCS Same-Spin Energy      =      -0.1480934063955736 [Eh]
	 SCS Opposite-Spin Energy  =      -1.5913848311670526 [Eh]
	 SCS Correlation Energy    =      -1.7394782375626263 [Eh]
	 SCS Total Energy          =    -504.3557737047794376 [Eh]
	-----------------------------------------------------------

  Dipole Moment: [D]
     X:    -0.0022      Y:     0.6138      Z:    -0.0006     Total:     0.6138

*** Psi4 exiting successfully. Buy a developer a beer!
