                               Psi4 1.4a3.dev225

  ==> Input File <==

--------------------------------------------------------------------------
#psi4
#
memory 32 gb

molecule  {
0 1
  F        2.1226300     0.9082170     0.7600610
  F       -2.1226300     0.9082210    -0.7600560
  O        2.8120520    -0.8324970    -0.4615260
  O       -2.8120520    -0.8324980     0.4615220
  C        0.4856120    -0.1117560    -0.5938050
  C       -0.4856120    -0.1117600     0.5938040
  C        1.9157900    -0.1063220    -0.1389790
  C       -1.9236554    -0.1503818     0.1662002
  H        0.3463190    -0.9890650    -1.2292190
  H        0.3197670     0.7835690    -1.2005600
  H       -0.3197660     0.7835590     1.2005670
  H       -0.3463190    -0.9890750     1.2292110
units angstrom
no_reorient  #important for SAPT in psi4, default
symmetry c1  #important for SAPT in psi4, default
}

set PROPERTIES_ORIGIN ["COM"]
properties('MP2/aug-cc-pvtz', properties = ['dipole'])
--------------------------------------------------------------------------

    Molecular point group: c1
  Charge       = 0
  Multiplicity = 1
  Basis Set: AUG-CC-PVTZ
    Blend: AUG-CC-PVTZ
  Basis Set: (AUG-CC-PVTZ AUX)
    Blend: AUG-CC-PVTZ-JKFIT

    Orbital Energies [Eh]
    ---------------------

    Doubly Occupied:

       1A    -26.348097     2A    -26.325167     3A    -20.614975
       4A    -20.605262     5A    -11.449830     6A    -11.446099
       7A    -11.303346     8A    -11.301403     9A     -1.666373
      10A     -1.634496    11A     -1.475658    12A     -1.442822
      13A     -1.140686    14A     -1.005292    15A     -0.861687
      16A     -0.841885    17A     -0.768064    18A     -0.749191
      19A     -0.744257    20A     -0.730629    21A     -0.724014
      22A     -0.710351    23A     -0.675287    24A     -0.635163
      25A     -0.629286    26A     -0.595959    27A     -0.582272
      28A     -0.561505    29A     -0.543623    30A     -0.524975
      31A     -0.499427

  @DF-RHF Final Energy:  -502.61872593892775

   => Energetics <=

    Nuclear Repulsion Energy =            363.2731680546654047
    One-Electron Energy =               -1413.5096267019343941
    Two-Electron Energy =                 547.6177327083412365
    Total Energy =                       -502.6187259389278097
  Basis Set: (AUG-CC-PVTZ AUX)
    Blend: AUG-CC-PVTZ-RI
    Molecular point group: c1

    Geometry (in Angstrom), charge = 0, multiplicity = 1:

       Center              X                  Y                   Z               Mass
    ------------   -----------------  -----------------  -----------------  -----------------
         F            2.123403523922     0.894275584049     0.757383750933    18.998403162730
         F           -2.121856476078     0.894279584049    -0.762733249067    18.998403162730
         O            2.812825523922    -0.846438415951    -0.464203249067    15.994914619570
         O           -2.811278476078    -0.846439415951     0.458844750933    15.994914619570
         C            0.486385523922    -0.125697415951    -0.596482249067    12.000000000000
         C           -0.484838476078    -0.125701415951     0.591126750933    12.000000000000
         C            1.916563523922    -0.120263415951    -0.141656249067    12.000000000000
         C           -1.922881876078    -0.164323215951     0.163522950933    12.000000000000
         H            0.347092523922    -1.003006415951    -1.231896249067     1.007825032230
         H            0.320540523922     0.769627584049    -1.203237249067     1.007825032230
         H           -0.318992476078     0.769617584049     1.197889750933     1.007825032230
         H           -0.345545476078    -1.003016415951     1.226533750933     1.007825032230

  Basis Set: AUG-CC-PVTZ
    Blend: AUG-CC-PVTZ
  Basis Set: (AUG-CC-PVTZ AUX)
    Blend: AUG-CC-PVTZ-JKFIT
	 Reference Energy          =    -502.6187259389277528 [Eh]
	 Singles Energy            =      -0.0000000000000000 [Eh]
	 Same-Spin Energy          =      -0.4436394743353257 [Eh]
	 Opposite-Spin Energy      =      -1.3250436326304000 [Eh]
	 Correlation Energy        =      -1.7686831069657258 [Eh]
	 Total Energy              =    -504.3874090458934916 [Eh]

	 ================> DF-SCS-MP2 Energies <==================
	-----------------------------------------------------------
	 SCS Same-Spin Scale       =       0.3333333333333333 [-]
	 SCS Opposite-Spin Scale   =       1.2000000000000000 [-]
	 SCS Same-Spin Energy      =      -0.1478798247784419 [Eh]
	 SCS Opposite-Spin Energy  =      -1.5900523591564799 [Eh]
	 SCS Correlation Energy    =      -1.7379321839349218 [Eh]
	 SCS Total Energy          =    -504.3566581228626546 [Eh]
	-----------------------------------------------------------

  Dipole Moment: [D]
     X:    -0.0661      Y:     0.2406      Z:     0.2599     Total:     0.3603

*** Psi4 exiting successfully. Buy a developer a beer!
