                               Psi4 1.4a3.dev225

  ==> Input File <==

--------------------------------------------------------------------------
#psi4
#
memory 32 gb

molecule  {
0 1
  F        2.1226300     0.9082170     0.7600610
  F       -2.1226300     0.9082210    -0.7600560
  O        2.8120520    -0.8324970    -0.4615260
  O       -2.8120520    -0.8324980     0.4615220
  C        0.4856120    -0.1117560    -0.5938050
  C       -0.4856120    -0.1117600     0.5938040
  C        1.9157900    -0.1063220    -0.1389790
  C       -1.9280943    -0.0161280     0.1908092
  H        0.3463190    -0.9890650    -1.2292190
  H        0.3197670     0.7835690    -1.2005600
  H       -0.3197660     0.7835590     1.2005670
  H       -0.3463190    -0.9890750     1.2292110
units angstrom
no_reorient  #important for SAPT in psi4, default
symmetry c1  #important for SAPT in psi4, default
}

set PROPERTIES_ORIGIN ["COM"]
properties('MP2/aug-cc-pvtz', properties = ['dipole'])
--------------------------------------------------------------------------

    Molecular point group: c1
  Charge       = 0
  Multiplicity = 1
  Basis Set: AUG-CC-PVTZ
    Blend: AUG-CC-PVTZ
  Basis Set: (AUG-CC-PVTZ AUX)
    Blend: AUG-CC-PVTZ-JKFIT

    Orbital Energies [Eh]
    ---------------------

    Doubly Occupied:

       1A    -26.362975     2A    -26.348379     3A    -20.606115
       4A    -20.599028     5A    -11.454170     6A    -11.450732
       7A    -11.302994     8A    -11.301297     9A     -1.688607
      10A     -1.666684    11A     -1.443540    12A     -1.415430
      13A     -1.140583    14A     -1.007878    15A     -0.876557
      16A     -0.858647    17A     -0.778253    18A     -0.758678
      19A     -0.745006    20A     -0.737962    21A     -0.735523
      22A     -0.715282    23A     -0.673628    24A     -0.634911
      25A     -0.625868    26A     -0.593296    27A     -0.580037
      28A     -0.548491    29A     -0.529246    30A     -0.515506
      31A     -0.494075

  @DF-RHF Final Energy:  -502.61084676753285

   => Energetics <=

    Nuclear Repulsion Energy =            363.1141602436152311
    One-Electron Energy =               -1413.0712590192322295
    Two-Electron Energy =                 547.3462520080840932
    Total Energy =                       -502.6108467675328484
  Basis Set: (AUG-CC-PVTZ AUX)
    Blend: AUG-CC-PVTZ-RI
    Molecular point group: c1

    Geometry (in Angstrom), charge = 0, multiplicity = 1:

       Center              X                  Y                   Z               Mass
    ------------   -----------------  -----------------  -----------------  -----------------
         F            2.123840072858     0.881072233322     0.754963549359    18.998403162730
         F           -2.121419927142     0.881076233322    -0.765153450641    18.998403162730
         O            2.813262072858    -0.859641766678    -0.466623450641    15.994914619570
         O           -2.810841927142    -0.859642766678     0.456424549359    15.994914619570
         C            0.486822072858    -0.138900766678    -0.598902450641    12.000000000000
         C           -0.484401927142    -0.138904766678     0.588706549359    12.000000000000
         C            1.917000072858    -0.133466766678    -0.144076450641    12.000000000000
         C           -1.926884227142    -0.043272766678     0.185711749359    12.000000000000
         H            0.347529072858    -1.016209766678    -1.234316450641     1.007825032230
         H            0.320977072858     0.756424233322    -1.205657450641     1.007825032230
         H           -0.318555927142     0.756414233322     1.195469549359     1.007825032230
         H           -0.345108927142    -1.016219766678     1.224113549359     1.007825032230

  Basis Set: AUG-CC-PVTZ
    Blend: AUG-CC-PVTZ
  Basis Set: (AUG-CC-PVTZ AUX)
    Blend: AUG-CC-PVTZ-JKFIT
	 Reference Energy          =    -502.6108467675328484 [Eh]
	 Singles Energy            =      -0.0000000000000000 [Eh]
	 Same-Spin Energy          =      -0.4446868454409046 [Eh]
	 Opposite-Spin Energy      =      -1.3270761435923850 [Eh]
	 Correlation Energy        =      -1.7717629890332898 [Eh]
	 Total Energy              =    -504.3826097565661257 [Eh]

	 ================> DF-SCS-MP2 Energies <==================
	-----------------------------------------------------------
	 SCS Same-Spin Scale       =       0.3333333333333333 [-]
	 SCS Opposite-Spin Scale   =       1.2000000000000000 [-]
	 SCS Same-Spin Energy      =      -0.1482289484803015 [Eh]
	 SCS Opposite-Spin Energy  =      -1.5924913723108620 [Eh]
	 SCS Correlation Energy    =      -1.7407203207911635 [Eh]
	 SCS Total Energy          =    -504.3515670883240318 [Eh]
	-----------------------------------------------------------

  Dipole Moment: [D]
     X:     0.0535      Y:     0.9203      Z:    -0.0861     Total:     0.9259

*** Psi4 exiting successfully. Buy a developer a beer!
