                               Psi4 1.4a3.dev225

  ==> Input File <==

--------------------------------------------------------------------------
#psi4
#
memory 32 gb

molecule  {
0 1
  F        2.1226300     0.9082170     0.7600610
  F       -2.1226300     0.9082210    -0.7600560
  O        2.8120520    -0.8324970    -0.4615260
  O       -2.8120520    -0.8324980     0.4615220
  C        0.4856120    -0.1117560    -0.5938050
  C       -0.4856120    -0.1117600     0.5938040
  C        1.9157900    -0.1063220    -0.1389790
  C       -1.9127732    -0.1211203     0.1520906
  H        0.3463190    -0.9890650    -1.2292190
  H        0.3197670     0.7835690    -1.2005600
  H       -0.3197660     0.7835590     1.2005670
  H       -0.3463190    -0.9890750     1.2292110
units angstrom
no_reorient  #important for SAPT in psi4, default
symmetry c1  #important for SAPT in psi4, default
}

set PROPERTIES_ORIGIN ["COM"]
properties('MP2/aug-cc-pvtz', properties = ['dipole'])
--------------------------------------------------------------------------

    Molecular point group: c1
  Charge       = 0
  Multiplicity = 1
  Basis Set: AUG-CC-PVTZ
    Blend: AUG-CC-PVTZ
  Basis Set: (AUG-CC-PVTZ AUX)
    Blend: AUG-CC-PVTZ-JKFIT

    Orbital Energies [Eh]
    ---------------------

    Doubly Occupied:

       1A    -26.348505     2A    -26.339538     3A    -20.608640
       4A    -20.605674     5A    -11.450251     6A    -11.449180
       7A    -11.302710     8A    -11.302005     9A     -1.666782
      10A     -1.653399    11A     -1.451650    12A     -1.443214
      13A     -1.142263    14A     -1.007027    15A     -0.863514
      16A     -0.851022    17A     -0.771151    18A     -0.749955
      19A     -0.743668    20A     -0.732815    21A     -0.727541
      22A     -0.715059    23A     -0.674457    24A     -0.637359
      25A     -0.628979    26A     -0.595123    27A     -0.581128
      28A     -0.554804    29A     -0.541632    30A     -0.522151
      31A     -0.498631

  @DF-RHF Final Energy:  -502.61969778692912

   => Energetics <=

    Nuclear Repulsion Energy =            363.3239333776220406
    One-Electron Energy =               -1413.5676097691221003
    Two-Electron Energy =                 547.6239786045708797
    Total Energy =                       -502.6196977869291231
  Basis Set: (AUG-CC-PVTZ AUX)
    Blend: AUG-CC-PVTZ-RI
    Molecular point group: c1

    Geometry (in Angstrom), charge = 0, multiplicity = 1:

       Center              X                  Y                   Z               Mass
    ------------   -----------------  -----------------  -----------------  -----------------
         F            2.122333300932     0.891397826792     0.758771376441    18.998403162730
         F           -2.122926699068     0.891401826792    -0.761345623559    18.998403162730
         O            2.811755300932    -0.849316173208    -0.462815623559    15.994914619570
         O           -2.812348699068    -0.849317173208     0.460232376441    15.994914619570
         C            0.485315300932    -0.128575173208    -0.595094623559    12.000000000000
         C           -0.485908699068    -0.128579173208     0.592514376441    12.000000000000
         C            1.915493300932    -0.123141173208    -0.140268623559    12.000000000000
         C           -1.913069899068    -0.137939473208     0.150800976441    12.000000000000
         H            0.346022300932    -1.005884173208    -1.230508623559     1.007825032230
         H            0.319470300932     0.766749826792    -1.201849623559     1.007825032230
         H           -0.320062699068     0.766739826792     1.199277376441     1.007825032230
         H           -0.346615699068    -1.005894173208     1.227921376441     1.007825032230

  Basis Set: AUG-CC-PVTZ
    Blend: AUG-CC-PVTZ
  Basis Set: (AUG-CC-PVTZ AUX)
    Blend: AUG-CC-PVTZ-JKFIT
	 Reference Energy          =    -502.6196977869291231 [Eh]
	 Singles Energy            =      -0.0000000000000000 [Eh]
	 Same-Spin Energy          =      -0.4440401403846993 [Eh]
	 Opposite-Spin Energy      =      -1.3257755406287219 [Eh]
	 Correlation Energy        =      -1.7698156810134211 [Eh]
	 Total Energy              =    -504.3895134679425496 [Eh]

	 ================> DF-SCS-MP2 Energies <==================
	-----------------------------------------------------------
	 SCS Same-Spin Scale       =       0.3333333333333333 [-]
	 SCS Opposite-Spin Scale   =       1.2000000000000000 [-]
	 SCS Same-Spin Energy      =      -0.1480133801282331 [Eh]
	 SCS Opposite-Spin Energy  =      -1.5909306487544663 [Eh]
	 SCS Correlation Energy    =      -1.7389440288826994 [Eh]
	 SCS Total Energy          =    -504.3586418158118363 [Eh]
	-----------------------------------------------------------

  Dipole Moment: [D]
     X:     0.0200      Y:     0.4765      Z:     0.1034     Total:     0.4880

*** Psi4 exiting successfully. Buy a developer a beer!
