                               Psi4 1.4a3.dev225

  ==> Input File <==

--------------------------------------------------------------------------
#psi4
#
memory 32 gb

molecule  {
0 1
  F        2.1226300     0.9082170     0.7600610
  F       -2.1226300     0.9082210    -0.7600560
  O        2.8120520    -0.8324970    -0.4615260
  O       -2.8120520    -0.8324980     0.4615220
  C        0.4856120    -0.1117560    -0.5938050
  C       -0.4856120    -0.1117600     0.5938040
  C        1.9157900    -0.1063220    -0.1389790
  C       -1.9157900    -0.1063230     0.1389780
  H        0.3463190    -0.9890650    -1.2292190
  H        0.3197670     0.7835690    -1.2005600
  H       -0.3273444     0.7426468     1.1728405
  H       -0.3463190    -0.9890750     1.2292110
units angstrom
no_reorient  #important for SAPT in psi4, default
symmetry c1  #important for SAPT in psi4, default
}

set PROPERTIES_ORIGIN ["COM"]
properties('MP2/aug-cc-pvtz', properties = ['dipole'])
--------------------------------------------------------------------------

    Molecular point group: c1
  Charge       = 0
  Multiplicity = 1
  Basis Set: AUG-CC-PVTZ
    Blend: AUG-CC-PVTZ
  Basis Set: (AUG-CC-PVTZ AUX)
    Blend: AUG-CC-PVTZ-JKFIT

    Orbital Energies [Eh]
    ---------------------

    Doubly Occupied:

       1A    -26.348459     2A    -26.348359     3A    -20.605454
       4A    -20.605360     5A    -11.449920     6A    -11.449854
       7A    -11.301491     8A    -11.296385     9A     -1.666867
      10A     -1.666472    11A     -1.443095    12A     -1.442827
      13A     -1.143258    14A     -1.007333    15A     -0.866512
      16A     -0.857212    17A     -0.774912    18A     -0.752320
      19A     -0.743611    20A     -0.735566    21A     -0.731610
      22A     -0.717843    23A     -0.677274    24A     -0.638037
      25A     -0.628088    26A     -0.595023    27A     -0.582164
      28A     -0.553577    29A     -0.540261    30A     -0.520981
      31A     -0.496962

  @DF-RHF Final Energy:  -502.61909210902519

   => Energetics <=

    Nuclear Repulsion Energy =            363.6150682946851020
    One-Electron Energy =               -1414.0941458862882882
    Two-Electron Energy =                 547.8599854825779403
    Total Energy =                       -502.6190921090251322
  Basis Set: (AUG-CC-PVTZ AUX)
    Blend: AUG-CC-PVTZ-RI
    Molecular point group: c1

    Geometry (in Angstrom), charge = 0, multiplicity = 1:

       Center              X                  Y                   Z               Mass
    ------------   -----------------  -----------------  -----------------  -----------------
         F            2.122692586646     0.890280488919     0.760289961882    18.998403162730
         F           -2.122567413354     0.890284488919    -0.759827038118    18.998403162730
         O            2.812114586646    -0.850433511081    -0.461297038118    15.994914619570
         O           -2.811989413354    -0.850434511081     0.461750961882    15.994914619570
         C            0.485674586646    -0.129692511081    -0.593576038118    12.000000000000
         C           -0.485549413354    -0.129696511081     0.594032961882    12.000000000000
         C            1.915852586646    -0.124258511081    -0.138750038118    12.000000000000
         C           -1.915727413354    -0.124259511081     0.139206961882    12.000000000000
         H            0.346381586646    -1.007001511081    -1.228990038118     1.007825032230
         H            0.319829586646     0.765632488919    -1.200331038118     1.007825032230
         H           -0.327281813354     0.724710288919     1.173069461882     1.007825032230
         H           -0.346256413354    -1.007011511081     1.229439961882     1.007825032230

  Basis Set: AUG-CC-PVTZ
    Blend: AUG-CC-PVTZ
  Basis Set: (AUG-CC-PVTZ AUX)
    Blend: AUG-CC-PVTZ-JKFIT
	 Reference Energy          =    -502.6190921090251891 [Eh]
	 Singles Energy            =      -0.0000000000000000 [Eh]
	 Same-Spin Energy          =      -0.4439395558917437 [Eh]
	 Opposite-Spin Energy      =      -1.3253277868398414 [Eh]
	 Correlation Energy        =      -1.7692673427315850 [Eh]
	 Total Energy              =    -504.3883594517567985 [Eh]

	 ================> DF-SCS-MP2 Energies <==================
	-----------------------------------------------------------
	 SCS Same-Spin Scale       =       0.3333333333333333 [-]
	 SCS Opposite-Spin Scale   =       1.2000000000000000 [-]
	 SCS Same-Spin Energy      =      -0.1479798519639146 [Eh]
	 SCS Opposite-Spin Energy  =      -1.5903933442078098 [Eh]
	 SCS Correlation Energy    =      -1.7383731961717244 [Eh]
	 SCS Total Energy          =    -504.3574653051969108 [Eh]
	-----------------------------------------------------------

  Dipole Moment: [D]
     X:    -0.0092      Y:     0.5987      Z:    -0.0010     Total:     0.5988

*** Psi4 exiting successfully. Buy a developer a beer!
