                               Psi4 1.4a3.dev225

  ==> Input File <==

--------------------------------------------------------------------------
#psi4
#
memory 32 gb

molecule  {
0 1
  F        2.1226300     0.9082170     0.7600610
  F       -2.1226300     0.9082210    -0.7600560
  O        2.8120520    -0.8324970    -0.4615260
  O       -2.8120520    -0.8324980     0.4615220
  C        0.4856120    -0.1117560    -0.5938050
  C       -0.4856120    -0.1117600     0.5938040
  C        1.9157900    -0.1063220    -0.1389790
  C       -1.9082480    -0.1433162     0.1717594
  H        0.3463190    -0.9890650    -1.2292190
  H        0.3197670     0.7835690    -1.2005600
  H       -0.3197660     0.7835590     1.2005670
  H       -0.3463190    -0.9890750     1.2292110
units angstrom
no_reorient  #important for SAPT in psi4, default
symmetry c1  #important for SAPT in psi4, default
}

set PROPERTIES_ORIGIN ["COM"]
properties('MP2/aug-cc-pvtz', properties = ['dipole'])
--------------------------------------------------------------------------

    Molecular point group: c1
  Charge       = 0
  Multiplicity = 1
  Basis Set: AUG-CC-PVTZ
    Blend: AUG-CC-PVTZ
  Basis Set: (AUG-CC-PVTZ AUX)
    Blend: AUG-CC-PVTZ-JKFIT

    Orbital Energies [Eh]
    ---------------------

    Doubly Occupied:

       1A    -26.348903     2A    -26.326262     3A    -20.613588
       4A    -20.606118     5A    -11.450725     6A    -11.448201
       7A    -11.303983     8A    -11.302754     9A     -1.667177
      10A     -1.634619    11A     -1.464371    12A     -1.443631
      13A     -1.144140    14A     -1.009511    15A     -0.862664
      16A     -0.842207    17A     -0.768725    18A     -0.749138
      19A     -0.744199    20A     -0.729945    21A     -0.724129
      22A     -0.709351    23A     -0.675080    24A     -0.635971
      25A     -0.629921    26A     -0.595996    27A     -0.582328
      28A     -0.558767    29A     -0.543599    30A     -0.524622
      31A     -0.500755

  @DF-RHF Final Energy:  -502.61789529258431

   => Energetics <=

    Nuclear Repulsion Energy =            363.2625007194232580
    One-Electron Energy =               -1413.4780270569328877
    Two-Electron Energy =                 547.5976310449252651
    Total Energy =                       -502.6178952925843078
  Basis Set: (AUG-CC-PVTZ AUX)
    Blend: AUG-CC-PVTZ-RI
    Molecular point group: c1

    Geometry (in Angstrom), charge = 0, multiplicity = 1:

       Center              X                  Y                   Z               Mass
    ------------   -----------------  -----------------  -----------------  -----------------
         F            2.121888264719     0.893580709156     0.756837024752    18.998403162730
         F           -2.123371735281     0.893584709156    -0.763279975248    18.998403162730
         O            2.811310264719    -0.847133290844    -0.464749975248    15.994914619570
         O           -2.812793735281    -0.847134290844     0.458298024752    15.994914619570
         C            0.484870264719    -0.126392290844    -0.597028975248    12.000000000000
         C           -0.486353735281    -0.126396290844     0.590580024752    12.000000000000
         C            1.915048264719    -0.120958290844    -0.142202975248    12.000000000000
         C           -1.908989735281    -0.157952490844     0.168535424752    12.000000000000
         H            0.345577264719    -1.003701290844    -1.232442975248     1.007825032230
         H            0.319025264719     0.768932709156    -1.203783975248     1.007825032230
         H           -0.320507735281     0.768922709156     1.197343024752     1.007825032230
         H           -0.347060735281    -1.003711290844     1.225987024752     1.007825032230

  Basis Set: AUG-CC-PVTZ
    Blend: AUG-CC-PVTZ
  Basis Set: (AUG-CC-PVTZ AUX)
    Blend: AUG-CC-PVTZ-JKFIT
	 Reference Energy          =    -502.6178952925843078 [Eh]
	 Singles Energy            =      -0.0000000000000000 [Eh]
	 Same-Spin Energy          =      -0.4441471110645783 [Eh]
	 Opposite-Spin Energy      =      -1.3260687168331429 [Eh]
	 Correlation Energy        =      -1.7702158278977211 [Eh]
	 Total Energy              =    -504.3881111204820513 [Eh]

	 ================> DF-SCS-MP2 Energies <==================
	-----------------------------------------------------------
	 SCS Same-Spin Scale       =       0.3333333333333333 [-]
	 SCS Opposite-Spin Scale   =       1.2000000000000000 [-]
	 SCS Same-Spin Energy      =      -0.1480490370215261 [Eh]
	 SCS Opposite-Spin Energy  =      -1.5912824601997715 [Eh]
	 SCS Correlation Energy    =      -1.7393314972212977 [Eh]
	 SCS Total Energy          =    -504.3572267898056225 [Eh]
	-----------------------------------------------------------

  Dipole Moment: [D]
     X:     0.0504      Y:     0.2826      Z:     0.2608     Total:     0.3878

*** Psi4 exiting successfully. Buy a developer a beer!
