                               Psi4 1.4a3.dev225

  ==> Input File <==

--------------------------------------------------------------------------
#psi4
#
memory 32 gb

molecule  {
0 1
  F        2.1226300     0.9082170     0.7600610
  F       -2.1226300     0.9082210    -0.7600560
  O        2.8120520    -0.8324970    -0.4615260
  O       -2.8120520    -0.8324980     0.4615220
  C        0.4856120    -0.1117560    -0.5938050
  C       -0.4856120    -0.1117600     0.5938040
  C        1.9157900    -0.1063220    -0.1389790
  C       -1.8965181    -0.1965445     0.0893627
  H        0.3463190    -0.9890650    -1.2292190
  H        0.3197670     0.7835690    -1.2005600
  H       -0.3197660     0.7835590     1.2005670
  H       -0.3463190    -0.9890750     1.2292110
units angstrom
no_reorient  #important for SAPT in psi4, default
symmetry c1  #important for SAPT in psi4, default
}

set PROPERTIES_ORIGIN ["COM"]
properties('MP2/aug-cc-pvtz', properties = ['dipole'])
--------------------------------------------------------------------------

    Molecular point group: c1
  Charge       = 0
  Multiplicity = 1
  Basis Set: AUG-CC-PVTZ
    Blend: AUG-CC-PVTZ
  Basis Set: (AUG-CC-PVTZ AUX)
    Blend: AUG-CC-PVTZ-JKFIT

    Orbital Energies [Eh]
    ---------------------

    Doubly Occupied:

       1A    -26.348391     2A    -26.330556     3A    -20.614073
       4A    -20.604941     5A    -11.449420     6A    -11.448813
       7A    -11.304165     8A    -11.300989     9A     -1.666634
      10A     -1.640552    11A     -1.463270    12A     -1.442626
      13A     -1.142412    14A     -1.003964    15A     -0.861687
      16A     -0.846174    17A     -0.770095    18A     -0.749030
      19A     -0.743118    20A     -0.730122    21A     -0.725380
      22A     -0.711558    23A     -0.675954    24A     -0.636837
      25A     -0.626671    26A     -0.596365    27A     -0.580066
      28A     -0.559075    29A     -0.543397    30A     -0.524530
      31A     -0.497755

  @DF-RHF Final Energy:  -502.61454918775843

   => Energetics <=

    Nuclear Repulsion Energy =            363.3387878274886589
    One-Electron Energy =               -1413.6294281777356900
    Two-Electron Energy =                 547.6760911624885466
    Total Energy =                       -502.6145491877584845
  Basis Set: (AUG-CC-PVTZ AUX)
    Blend: AUG-CC-PVTZ-RI
    Molecular point group: c1

    Geometry (in Angstrom), charge = 0, multiplicity = 1:

       Center              X                  Y                   Z               Mass
    ------------   -----------------  -----------------  -----------------  -----------------
         F            2.120734673657     0.898815510060     0.764940426882    18.998403162730
         F           -2.124525326343     0.898819510060    -0.755176573118    18.998403162730
         O            2.810156673657    -0.841898489940    -0.456646573118    15.994914619570
         O           -2.813947326343    -0.841899489940     0.466401426882    15.994914619570
         C            0.483716673657    -0.121157489940    -0.588925573118    12.000000000000
         C           -0.487507326343    -0.121161489940     0.598683426882    12.000000000000
         C            1.913894673657    -0.115723489940    -0.134099573118    12.000000000000
         C           -1.898413426343    -0.205945989940     0.094242126882    12.000000000000
         H            0.344423673657    -0.998466489940    -1.224339573118     1.007825032230
         H            0.317871673657     0.774167510060    -1.195680573118     1.007825032230
         H           -0.321661326343     0.774157510060     1.205446426882     1.007825032230
         H           -0.348214326343    -0.998476489940     1.234090426882     1.007825032230

  Basis Set: AUG-CC-PVTZ
    Blend: AUG-CC-PVTZ
  Basis Set: (AUG-CC-PVTZ AUX)
    Blend: AUG-CC-PVTZ-JKFIT
	 Reference Energy          =    -502.6145491877584277 [Eh]
	 Singles Energy            =      -0.0000000000000000 [Eh]
	 Same-Spin Energy          =      -0.4441291546249925 [Eh]
	 Opposite-Spin Energy      =      -1.3264373189672249 [Eh]
	 Correlation Energy        =      -1.7705664735922175 [Eh]
	 Total Energy              =    -504.3851156613506532 [Eh]

	 ================> DF-SCS-MP2 Energies <==================
	-----------------------------------------------------------
	 SCS Same-Spin Scale       =       0.3333333333333333 [-]
	 SCS Opposite-Spin Scale   =       1.2000000000000000 [-]
	 SCS Same-Spin Energy      =      -0.1480430515416641 [Eh]
	 SCS Opposite-Spin Energy  =      -1.5917247827606700 [Eh]
	 SCS Correlation Energy    =      -1.7397678343023342 [Eh]
	 SCS Total Energy          =    -504.3543170220607408 [Eh]
	-----------------------------------------------------------

  Dipole Moment: [D]
     X:    -0.0241      Y:     0.2403      Z:     0.1096     Total:     0.2652

*** Psi4 exiting successfully. Buy a developer a beer!
