                               Psi4 1.4a3.dev225

  ==> Input File <==

--------------------------------------------------------------------------
#psi4
#
memory 32 gb

molecule  {
0 1
  F        2.1226300     0.9082170     0.7600610
  F       -2.1226300     0.9082210    -0.7600560
  O        2.8120520    -0.8324970    -0.4615260
  O       -2.8120520    -0.8324980     0.4615220
  C        0.4856120    -0.1117560    -0.5938050
  C       -0.4856120    -0.1117600     0.5938040
  C        1.9307555    -0.1184475    -0.1443648
  C       -1.9157900    -0.1063230     0.1389780
  H        0.3463190    -0.9890650    -1.2292190
  H        0.3197670     0.7835690    -1.2005600
  H       -0.3197660     0.7835590     1.2005670
  H       -0.3463190    -0.9890750     1.2292110
units angstrom
no_reorient  #important for SAPT in psi4, default
symmetry c1  #important for SAPT in psi4, default
}

set PROPERTIES_ORIGIN ["COM"]
properties('MP2/aug-cc-pvtz', properties = ['dipole'])
--------------------------------------------------------------------------

    Molecular point group: c1
  Charge       = 0
  Multiplicity = 1
  Basis Set: AUG-CC-PVTZ
    Blend: AUG-CC-PVTZ
  Basis Set: (AUG-CC-PVTZ AUX)
    Blend: AUG-CC-PVTZ-JKFIT

    Orbital Energies [Eh]
    ---------------------

    Doubly Occupied:

       1A    -26.347567     2A    -26.342549     3A    -20.608571
       4A    -20.604706     5A    -11.449236     6A    -11.447639
       7A    -11.301510     8A    -11.300536     9A     -1.665851
      10A     -1.659077    11A     -1.458774    12A     -1.442295
      13A     -1.138334    14A     -1.002270    15A     -0.863700
      16A     -0.852768    17A     -0.771365    18A     -0.750167
      19A     -0.743740    20A     -0.734238    21A     -0.728742
      22A     -0.717099    23A     -0.674177    24A     -0.636836
      25A     -0.628245    26A     -0.593993    27A     -0.580366
      28A     -0.556306    29A     -0.541897    30A     -0.521740
      31A     -0.496658

  @DF-RHF Final Energy:  -502.62119027159389

   => Energetics <=

    Nuclear Repulsion Energy =            363.3350330659582710
    One-Electron Energy =               -1413.5905436035363891
    Two-Electron Energy =                 547.6343202659842291
    Total Energy =                       -502.6211902715939459
  Basis Set: (AUG-CC-PVTZ AUX)
    Blend: AUG-CC-PVTZ-RI
    Molecular point group: c1

    Geometry (in Angstrom), charge = 0, multiplicity = 1:

       Center              X                  Y                   Z               Mass
    ------------   -----------------  -----------------  -----------------  -----------------
         F            2.121158191722     0.891135065421     0.760590623740    18.998403162730
         F           -2.124101808278     0.891139065421    -0.759526376260    18.998403162730
         O            2.810580191722    -0.849578934579    -0.460996376260    15.994914619570
         O           -2.813523808278    -0.849579934579     0.462051623740    15.994914619570
         C            0.484140191722    -0.128837934579    -0.593275376260    12.000000000000
         C           -0.487083808278    -0.128841934579     0.594333623740    12.000000000000
         C            1.929283691722    -0.135529434579    -0.143835176260    12.000000000000
         C           -1.917261808278    -0.123404934579     0.139507623740    12.000000000000
         H            0.344847191722    -1.006146934579    -1.228689376260     1.007825032230
         H            0.318295191722     0.766487065421    -1.200030376260     1.007825032230
         H           -0.321237808278     0.766477065421     1.201096623740     1.007825032230
         H           -0.347790808278    -1.006156934579     1.229740623740     1.007825032230

  Basis Set: AUG-CC-PVTZ
    Blend: AUG-CC-PVTZ
  Basis Set: (AUG-CC-PVTZ AUX)
    Blend: AUG-CC-PVTZ-JKFIT
	 Reference Energy          =    -502.6211902715938891 [Eh]
	 Singles Energy            =      -0.0000000000000000 [Eh]
	 Same-Spin Energy          =      -0.4435341421975985 [Eh]
	 Opposite-Spin Energy      =      -1.3247139184727612 [Eh]
	 Correlation Energy        =      -1.7682480606703597 [Eh]
	 Total Energy              =    -504.3894383322642625 [Eh]

	 ================> DF-SCS-MP2 Energies <==================
	-----------------------------------------------------------
	 SCS Same-Spin Scale       =       0.3333333333333333 [-]
	 SCS Opposite-Spin Scale   =       1.2000000000000000 [-]
	 SCS Same-Spin Energy      =      -0.1478447140658661 [Eh]
	 SCS Opposite-Spin Energy  =      -1.5896567021673134 [Eh]
	 SCS Correlation Energy    =      -1.7375014162331794 [Eh]
	 SCS Total Energy          =    -504.3586916878270472 [Eh]
	-----------------------------------------------------------

  Dipole Moment: [D]
     X:     0.1063      Y:     0.4996      Z:    -0.0587     Total:     0.5142

*** Psi4 exiting successfully. Buy a developer a beer!
