                               Psi4 1.4a3.dev225

  ==> Input File <==

--------------------------------------------------------------------------
#psi4
#
memory 32 gb

molecule  {
0 1
  F        2.1226300     0.9082170     0.7600610
  F       -2.1226300     0.9082210    -0.7600560
  O        2.8120520    -0.8324970    -0.4615260
  O       -2.8120520    -0.8324980     0.4615220
  C        0.4856120    -0.1117560    -0.5938050
  C       -0.4856120    -0.1117600     0.5938040
  C        1.9157900    -0.1063220    -0.1389790
  C       -1.9157900    -0.1063230     0.1389780
  H        0.3463190    -0.9890650    -1.2292190
  H        0.3197670     0.7835690    -1.2005600
  H       -0.3046091     0.8653835     1.2560199
  H       -0.3463190    -0.9890750     1.2292110
units angstrom
no_reorient  #important for SAPT in psi4, default
symmetry c1  #important for SAPT in psi4, default
}

set PROPERTIES_ORIGIN ["COM"]
properties('MP2/aug-cc-pvtz', properties = ['dipole'])
--------------------------------------------------------------------------

    Molecular point group: c1
  Charge       = 0
  Multiplicity = 1
  Basis Set: AUG-CC-PVTZ
    Blend: AUG-CC-PVTZ
  Basis Set: (AUG-CC-PVTZ AUX)
    Blend: AUG-CC-PVTZ-JKFIT

    Orbital Energies [Eh]
    ---------------------

    Doubly Occupied:

       1A    -26.347995     2A    -26.347869     3A    -20.605471
       4A    -20.605376     5A    -11.450233     6A    -11.450027
       7A    -11.311791     8A    -11.302399     9A     -1.666435
      10A     -1.666030    11A     -1.443116    12A     -1.442847
      13A     -1.137887    14A     -1.002640    15A     -0.865771
      16A     -0.853067    17A     -0.771521    18A     -0.751209
      19A     -0.742968    20A     -0.735050    21A     -0.729045
      22A     -0.715912    23A     -0.667816    24A     -0.636411
      25A     -0.627063    26A     -0.594306    27A     -0.576144
      28A     -0.550077    29A     -0.537276    30A     -0.518693
      31A     -0.496708

  @DF-RHF Final Energy:  -502.61321583645906

   => Energetics <=

    Nuclear Repulsion Energy =            362.9166598478526566
    One-Electron Energy =               -1412.7614490242920056
    Two-Electron Energy =                 547.2315733399804003
    Total Energy =                       -502.6132158364590623
  Basis Set: (AUG-CC-PVTZ AUX)
    Blend: AUG-CC-PVTZ-RI
    Molecular point group: c1

    Geometry (in Angstrom), charge = 0, multiplicity = 1:

       Center              X                  Y                   Z               Mass
    ------------   -----------------  -----------------  -----------------  -----------------
         F            2.122504801102     0.889266727147     0.759602929431    18.998403162730
         F           -2.122755198898     0.889270727147    -0.760514070569    18.998403162730
         O            2.811926801102    -0.851447272853    -0.461984070569    15.994914619570
         O           -2.812177198898    -0.851448272853     0.461063929431    15.994914619570
         C            0.485486801102    -0.130706272853    -0.594263070569    12.000000000000
         C           -0.485737198898    -0.130710272853     0.593345929431    12.000000000000
         C            1.915664801102    -0.125272272853    -0.139437070569    12.000000000000
         C           -1.915915198898    -0.125273272853     0.138519929431    12.000000000000
         H            0.346193801102    -1.008015272853    -1.229677070569     1.007825032230
         H            0.319641801102     0.764618727147    -1.201018070569     1.007825032230
         H           -0.304734298898     0.846433227147     1.255561829431     1.007825032230
         H           -0.346444198898    -1.008025272853     1.228752929431     1.007825032230

  Basis Set: AUG-CC-PVTZ
    Blend: AUG-CC-PVTZ
  Basis Set: (AUG-CC-PVTZ AUX)
    Blend: AUG-CC-PVTZ-JKFIT
	 Reference Energy          =    -502.6132158364590623 [Eh]
	 Singles Energy            =      -0.0000000000000000 [Eh]
	 Same-Spin Energy          =      -0.4441280757847845 [Eh]
	 Opposite-Spin Energy      =      -1.3263944608553322 [Eh]
	 Correlation Energy        =      -1.7705225366401167 [Eh]
	 Total Energy              =    -504.3837383730991633 [Eh]

	 ================> DF-SCS-MP2 Energies <==================
	-----------------------------------------------------------
	 SCS Same-Spin Scale       =       0.3333333333333333 [-]
	 SCS Opposite-Spin Scale   =       1.2000000000000000 [-]
	 SCS Same-Spin Energy      =      -0.1480426919282615 [Eh]
	 SCS Opposite-Spin Energy  =      -1.5916733530263987 [Eh]
	 SCS Correlation Energy    =      -1.7397160449546603 [Eh]
	 SCS Total Energy          =    -504.3529318814137241 [Eh]
	-----------------------------------------------------------

  Dipole Moment: [D]
     X:     0.0180      Y:     0.6108      Z:    -0.0021     Total:     0.6111

*** Psi4 exiting successfully. Buy a developer a beer!
