                               Psi4 1.4a3.dev225

  ==> Input File <==

--------------------------------------------------------------------------
#psi4
#
memory 32 gb

molecule  {
0 1
  F        2.1226300     0.9082170     0.7600610
  F       -2.1226300     0.9082210    -0.7600560
  O        2.8120520    -0.8324970    -0.4615260
  O       -2.8120520    -0.8324980     0.4615220
  C        0.5419620     0.0274202    -0.5368647
  C       -0.4856120    -0.1117600     0.5938040
  C        1.9157900    -0.1063220    -0.1389790
  C       -1.9157900    -0.1063230     0.1389780
  H        0.3463190    -0.9890650    -1.2292190
  H        0.3197670     0.7835690    -1.2005600
  H       -0.3197660     0.7835590     1.2005670
  H       -0.3463190    -0.9890750     1.2292110
units angstrom
no_reorient  #important for SAPT in psi4, default
symmetry c1  #important for SAPT in psi4, default
}

set PROPERTIES_ORIGIN ["COM"]
properties('MP2/aug-cc-pvtz', properties = ['dipole'])
--------------------------------------------------------------------------

    Molecular point group: c1
  Charge       = 0
  Multiplicity = 1
  Basis Set: AUG-CC-PVTZ
    Blend: AUG-CC-PVTZ
  Basis Set: (AUG-CC-PVTZ AUX)
    Blend: AUG-CC-PVTZ-JKFIT

    Orbital Energies [Eh]
    ---------------------

    Doubly Occupied:

       1A    -26.349585     2A    -26.343122     3A    -20.610580
       4A    -20.607247     5A    -11.452751     6A    -11.450978
       7A    -11.305125     8A    -11.304436     9A     -1.667816
      10A     -1.666479    11A     -1.446225    12A     -1.444586
      13A     -1.147003    14A     -1.018269    15A     -0.868415
      16A     -0.853989    17A     -0.778891    18A     -0.750748
      19A     -0.749910    20A     -0.737044    21A     -0.734558
      22A     -0.717636    23A     -0.674283    24A     -0.639943
      25A     -0.631490    26A     -0.600155    27A     -0.563613
      28A     -0.548101    29A     -0.535175    30A     -0.511294
      31A     -0.504943

  @DF-RHF Final Energy:  -502.59241521573517

   => Energetics <=

    Nuclear Repulsion Energy =            364.2545397809259384
    One-Electron Energy =               -1415.2651355198295278
    Two-Electron Energy =                 548.4181805231685303
    Total Energy =                       -502.5924152157351728
  Basis Set: (AUG-CC-PVTZ AUX)
    Blend: AUG-CC-PVTZ-RI
    Molecular point group: c1

    Geometry (in Angstrom), charge = 0, multiplicity = 1:

       Center              X                  Y                   Z               Mass
    ------------   -----------------  -----------------  -----------------  -----------------
         F            2.117088183512     0.876255118554     0.754461088801    18.998403162730
         F           -2.128171816488     0.876259118554    -0.765655911199    18.998403162730
         O            2.806510183512    -0.864458881446    -0.467125911199    15.994914619570
         O           -2.817593816488    -0.864459881446     0.455922088801    15.994914619570
         C            0.536420183512    -0.004541681446    -0.542464611199    12.000000000000
         C           -0.491153816488    -0.143721881446     0.588204088801    12.000000000000
         C            1.910248183512    -0.138283881446    -0.144578911199    12.000000000000
         C           -1.921331816488    -0.138284881446     0.133378088801    12.000000000000
         H            0.340777183512    -1.021026881446    -1.234818911199     1.007825032230
         H            0.314225183512     0.751607118554    -1.206159911199     1.007825032230
         H           -0.325307816488     0.751597118554     1.194967088801     1.007825032230
         H           -0.351860816488    -1.021036881446     1.223611088801     1.007825032230

  Basis Set: AUG-CC-PVTZ
    Blend: AUG-CC-PVTZ
  Basis Set: (AUG-CC-PVTZ AUX)
    Blend: AUG-CC-PVTZ-JKFIT
	 Reference Energy          =    -502.5924152157351728 [Eh]
	 Singles Energy            =      -0.0000000000000000 [Eh]
	 Same-Spin Energy          =      -0.4452727038419041 [Eh]
	 Opposite-Spin Energy      =      -1.3283100563926387 [Eh]
	 Correlation Energy        =      -1.7735827602345429 [Eh]
	 Total Energy              =    -504.3659979759697194 [Eh]

	 ================> DF-SCS-MP2 Energies <==================
	-----------------------------------------------------------
	 SCS Same-Spin Scale       =       0.3333333333333333 [-]
	 SCS Opposite-Spin Scale   =       1.2000000000000000 [-]
	 SCS Same-Spin Energy      =      -0.1484242346139680 [Eh]
	 SCS Opposite-Spin Energy  =      -1.5939720676711664 [Eh]
	 SCS Correlation Energy    =      -1.7423963022851345 [Eh]
	 SCS Total Energy          =    -504.3348115180203308 [Eh]
	-----------------------------------------------------------

  Dipole Moment: [D]
     X:    -0.0004      Y:     0.6427      Z:     0.0221     Total:     0.6431

*** Psi4 exiting successfully. Buy a developer a beer!
