                               Psi4 1.4a3.dev225

  ==> Input File <==

--------------------------------------------------------------------------
#psi4
#
memory 32 gb

molecule  {
0 1
  F        2.1226300     0.9082170     0.7600610
  F       -2.1226300     0.9082210    -0.7600560
  O        2.8120520    -0.8324970    -0.4615260
  O       -2.8120520    -0.8324980     0.4615220
  C        0.4856120    -0.1117560    -0.5938050
  C       -0.4750462    -0.0886130     0.6021429
  C        1.9157900    -0.1063220    -0.1389790
  C       -1.9157900    -0.1063230     0.1389780
  H        0.3463190    -0.9890650    -1.2292190
  H        0.3197670     0.7835690    -1.2005600
  H       -0.3197660     0.7835590     1.2005670
  H       -0.3463190    -0.9890750     1.2292110
units angstrom
no_reorient  #important for SAPT in psi4, default
symmetry c1  #important for SAPT in psi4, default
}

set PROPERTIES_ORIGIN ["COM"]
properties('MP2/aug-cc-pvtz', properties = ['dipole'])
--------------------------------------------------------------------------

    Molecular point group: c1
  Charge       = 0
  Multiplicity = 1
  Basis Set: AUG-CC-PVTZ
    Blend: AUG-CC-PVTZ
  Basis Set: (AUG-CC-PVTZ AUX)
    Blend: AUG-CC-PVTZ-JKFIT

    Orbital Energies [Eh]
    ---------------------

    Doubly Occupied:

       1A    -26.348195     2A    -26.347723     3A    -20.606142
       4A    -20.605085     5A    -11.450383     6A    -11.449643
       7A    -11.301983     8A    -11.301390     9A     -1.666590
      10A     -1.666089    11A     -1.443112    12A     -1.442675
      13A     -1.140659    14A     -1.004010    15A     -0.865791
      16A     -0.855833    17A     -0.773649    18A     -0.751473
      19A     -0.742758    20A     -0.735133    21A     -0.730423
      22A     -0.717273    23A     -0.675891    24A     -0.636797
      25A     -0.626903    26A     -0.594558    27A     -0.579757
      28A     -0.553415    29A     -0.540342    30A     -0.520980
      31A     -0.496103

  @DF-RHF Final Energy:  -502.61923046614868

   => Energetics <=

    Nuclear Repulsion Energy =            363.3058115993663932
    One-Electron Energy =               -1413.5085648377178131
    Two-Electron Energy =                 547.5835227722026275
    Total Energy =                       -502.6192304661486787
  Basis Set: (AUG-CC-PVTZ AUX)
    Blend: AUG-CC-PVTZ-RI
    Molecular point group: c1

    Geometry (in Angstrom), charge = 0, multiplicity = 1:

       Center              X                  Y                   Z               Mass
    ------------   -----------------  -----------------  -----------------  -----------------
         F            2.121590885487     0.887666149171     0.759240851684    18.998403162730
         F           -2.123669114513     0.887670149171    -0.760876148316    18.998403162730
         O            2.811012885487    -0.853047850829    -0.462346148316    15.994914619570
         O           -2.813091114513    -0.853048850829     0.460701851684    15.994914619570
         C            0.484572885487    -0.132306850829    -0.594625148316    12.000000000000
         C           -0.476085314513    -0.109163850829     0.601322751684    12.000000000000
         C            1.914750885487    -0.126872850829    -0.139799148316    12.000000000000
         C           -1.916829114513    -0.126873850829     0.138157851684    12.000000000000
         H            0.345279885487    -1.009615850829    -1.230039148316     1.007825032230
         H            0.318727885487     0.763018149171    -1.201380148316     1.007825032230
         H           -0.320805114513     0.763008149171     1.199746851684     1.007825032230
         H           -0.347358114513    -1.009625850829     1.228390851684     1.007825032230

  Basis Set: AUG-CC-PVTZ
    Blend: AUG-CC-PVTZ
  Basis Set: (AUG-CC-PVTZ AUX)
    Blend: AUG-CC-PVTZ-JKFIT
	 Reference Energy          =    -502.6192304661486787 [Eh]
	 Singles Energy            =      -0.0000000000000000 [Eh]
	 Same-Spin Energy          =      -0.4439365519627056 [Eh]
	 Opposite-Spin Energy      =      -1.3256150686116157 [Eh]
	 Correlation Energy        =      -1.7695516205743214 [Eh]
	 Total Energy              =    -504.3887820867229834 [Eh]

	 ================> DF-SCS-MP2 Energies <==================
	-----------------------------------------------------------
	 SCS Same-Spin Scale       =       0.3333333333333333 [-]
	 SCS Opposite-Spin Scale   =       1.2000000000000000 [-]
	 SCS Same-Spin Energy      =      -0.1479788506542352 [Eh]
	 SCS Opposite-Spin Energy  =      -1.5907380823339388 [Eh]
	 SCS Correlation Energy    =      -1.7387169329881740 [Eh]
	 SCS Total Energy          =    -504.3579473991368332 [Eh]
	-----------------------------------------------------------

  Dipole Moment: [D]
     X:    -0.0277      Y:     0.6091      Z:    -0.0034     Total:     0.6097

*** Psi4 exiting successfully. Buy a developer a beer!
