                               Psi4 1.4a3.dev225

  ==> Input File <==

--------------------------------------------------------------------------
#psi4
#
memory 32 gb

molecule  {
0 1
  F        2.1226300     0.9082170     0.7600610
  F       -2.1226300     0.9082210    -0.7600560
  O        2.8120520    -0.8324970    -0.4615260
  O       -2.8120520    -0.8324980     0.4615220
  C        0.4856120    -0.1117560    -0.5938050
  C       -0.4856120    -0.1117600     0.5938040
  C        1.9157900    -0.1063220    -0.1389790
  C       -1.9070199    -0.1514579     0.1138780
  H        0.3463190    -0.9890650    -1.2292190
  H        0.3197670     0.7835690    -1.2005600
  H       -0.3197660     0.7835590     1.2005670
  H       -0.3463190    -0.9890750     1.2292110
units angstrom
no_reorient  #important for SAPT in psi4, default
symmetry c1  #important for SAPT in psi4, default
}

set PROPERTIES_ORIGIN ["COM"]
properties('MP2/aug-cc-pvtz', properties = ['dipole'])
--------------------------------------------------------------------------

    Molecular point group: c1
  Charge       = 0
  Multiplicity = 1
  Basis Set: AUG-CC-PVTZ
    Blend: AUG-CC-PVTZ
  Basis Set: (AUG-CC-PVTZ AUX)
    Blend: AUG-CC-PVTZ-JKFIT

    Orbital Energies [Eh]
    ---------------------

    Doubly Occupied:

       1A    -26.348283     2A    -26.339722     3A    -20.609458
       4A    -20.605125     5A    -11.449643     6A    -11.448949
       7A    -11.302741     8A    -11.301252     9A     -1.666544
      10A     -1.653887    11A     -1.454160    12A     -1.442748
      13A     -1.141622    14A     -1.004602    15A     -0.863035
      16A     -0.851670    17A     -0.771624    18A     -0.749776
      19A     -0.743427    20A     -0.732767    21A     -0.727739
      22A     -0.715542    23A     -0.674905    24A     -0.637656
      25A     -0.627473    26A     -0.595530    27A     -0.580144
      28A     -0.555810    29A     -0.542051    30A     -0.522632
      31A     -0.497506

  @DF-RHF Final Energy:  -502.61896581052616

   => Energetics <=

    Nuclear Repulsion Energy =            363.3914152299270768
    One-Electron Energy =               -1413.7047115528732775
    Two-Electron Energy =                 547.6943305124200378
    Total Energy =                       -502.6189658105261060
  Basis Set: (AUG-CC-PVTZ AUX)
    Blend: AUG-CC-PVTZ-RI
    Molecular point group: c1

    Geometry (in Angstrom), charge = 0, multiplicity = 1:

       Center              X                  Y                   Z               Mass
    ------------   -----------------  -----------------  -----------------  -----------------
         F            2.121767485754     0.894381414392     0.762529440347    18.998403162730
         F           -2.123492514246     0.894385414392    -0.757587559653    18.998403162730
         O            2.811189485754    -0.846332585608    -0.459057559653    15.994914619570
         O           -2.812914514246    -0.846333585608     0.463990440347    15.994914619570
         C            0.484749485754    -0.125591585608    -0.591336559653    12.000000000000
         C           -0.486474514246    -0.125595585608     0.596272440347    12.000000000000
         C            1.914927485754    -0.120157585608    -0.136510559653    12.000000000000
         C           -1.907882414246    -0.165293485608     0.116346440347    12.000000000000
         H            0.345456485754    -1.002900585608    -1.226750559653     1.007825032230
         H            0.318904485754     0.769733414392    -1.198091559653     1.007825032230
         H           -0.320628514246     0.769723414392     1.203035440347     1.007825032230
         H           -0.347181514246    -1.002910585608     1.231679440347     1.007825032230

  Basis Set: AUG-CC-PVTZ
    Blend: AUG-CC-PVTZ
  Basis Set: (AUG-CC-PVTZ AUX)
    Blend: AUG-CC-PVTZ-JKFIT
	 Reference Energy          =    -502.6189658105261628 [Eh]
	 Singles Energy            =      -0.0000000000000000 [Eh]
	 Same-Spin Energy          =      -0.4439555112338620 [Eh]
	 Opposite-Spin Energy      =      -1.3257475117426272 [Eh]
	 Correlation Energy        =      -1.7697030229764892 [Eh]
	 Total Energy              =    -504.3886688335026633 [Eh]

	 ================> DF-SCS-MP2 Energies <==================
	-----------------------------------------------------------
	 SCS Same-Spin Scale       =       0.3333333333333333 [-]
	 SCS Opposite-Spin Scale   =       1.2000000000000000 [-]
	 SCS Same-Spin Energy      =      -0.1479851704112873 [Eh]
	 SCS Opposite-Spin Energy  =      -1.5908970140911525 [Eh]
	 SCS Correlation Energy    =      -1.7388821845024398 [Eh]
	 SCS Total Energy          =    -504.3578479950285782 [Eh]
	-----------------------------------------------------------

  Dipole Moment: [D]
     X:    -0.0164      Y:     0.4265      Z:     0.0520     Total:     0.4300

*** Psi4 exiting successfully. Buy a developer a beer!
