                               Psi4 1.4a3.dev225

  ==> Input File <==

--------------------------------------------------------------------------
#psi4
#
memory 32 gb

molecule  {
0 1
  F        2.1226300     0.9082170     0.7600610
  F       -2.1226300     0.9082210    -0.7600560
  O        2.8120520    -0.8324970    -0.4615260
  O       -2.8120520    -0.8324980     0.4615220
  C        0.4856120    -0.1117560    -0.5938050
  C       -0.4856120    -0.1117600     0.5938040
  C        1.9157900    -0.1063220    -0.1389790
  C       -1.9157900    -0.1063230     0.1389780
  H        0.3463190    -0.9890650    -1.2292190
  H        0.3197670     0.7835690    -1.2005600
  H       -0.3167346     0.7999239     1.2116576
  H       -0.3463190    -0.9890750     1.2292110
units angstrom
no_reorient  #important for SAPT in psi4, default
symmetry c1  #important for SAPT in psi4, default
}

set PROPERTIES_ORIGIN ["COM"]
properties('MP2/aug-cc-pvtz', properties = ['dipole'])
--------------------------------------------------------------------------

    Molecular point group: c1
  Charge       = 0
  Multiplicity = 1
  Basis Set: AUG-CC-PVTZ
    Blend: AUG-CC-PVTZ
  Basis Set: (AUG-CC-PVTZ AUX)
    Blend: AUG-CC-PVTZ-JKFIT

    Orbital Energies [Eh]
    ---------------------

    Doubly Occupied:

       1A    -26.348203     2A    -26.348170     3A    -20.605403
       4A    -20.605374     5A    -11.449991     6A    -11.449958
       7A    -11.303871     8A    -11.301821     9A     -1.666655
      10A     -1.666279    11A     -1.443077    12A     -1.442822
      13A     -1.140314    14A     -1.004828    15A     -0.866053
      16A     -0.855049    17A     -0.773031    18A     -0.751725
      19A     -0.743243    20A     -0.735280    21A     -0.730272
      22A     -0.716877    23A     -0.672639    24A     -0.637252
      25A     -0.627633    26A     -0.594534    27A     -0.579421
      28A     -0.551970    29A     -0.539222    30A     -0.520190
      31A     -0.496856

  @DF-RHF Final Energy:  -502.61942630790071

   => Energetics <=

    Nuclear Repulsion Energy =            363.2760303101862291
    One-Electron Energy =               -1413.4548900836859957
    Two-Electron Energy =                 547.5594334655991133
    Total Energy =                       -502.6194263079007669
  Basis Set: (AUG-CC-PVTZ AUX)
    Blend: AUG-CC-PVTZ-RI
    Molecular point group: c1

    Geometry (in Angstrom), charge = 0, multiplicity = 1:

       Center              X                  Y                   Z               Mass
    ------------   -----------------  -----------------  -----------------  -----------------
         F            2.122604953448     0.889807400312     0.759969346353    18.998403162730
         F           -2.122655046552     0.889811400312    -0.760147653647    18.998403162730
         O            2.812026953448    -0.850906599688    -0.461617653647    15.994914619570
         O           -2.812077046552    -0.850907599688     0.461430346353    15.994914619570
         C            0.485586953448    -0.130165599688    -0.593896653647    12.000000000000
         C           -0.485637046552    -0.130169599688     0.593712346353    12.000000000000
         C            1.915764953448    -0.124731599688    -0.139070653647    12.000000000000
         C           -1.915815046552    -0.124732599688     0.138886346353    12.000000000000
         H            0.346293953448    -1.007474599688    -1.229310653647     1.007825032230
         H            0.319741953448     0.765159400312    -1.200651653647     1.007825032230
         H           -0.316759646552     0.781514300312     1.211565946353     1.007825032230
         H           -0.346344046552    -1.007484599688     1.229119346353     1.007825032230

  Basis Set: AUG-CC-PVTZ
    Blend: AUG-CC-PVTZ
  Basis Set: (AUG-CC-PVTZ AUX)
    Blend: AUG-CC-PVTZ-JKFIT
	 Reference Energy          =    -502.6194263079007101 [Eh]
	 Singles Energy            =      -0.0000000000000000 [Eh]
	 Same-Spin Energy          =      -0.4440147347600109 [Eh]
	 Opposite-Spin Energy      =      -1.3257489304346584 [Eh]
	 Correlation Energy        =      -1.7697636651946693 [Eh]
	 Total Energy              =    -504.3891899730953696 [Eh]

	 ================> DF-SCS-MP2 Energies <==================
	-----------------------------------------------------------
	 SCS Same-Spin Scale       =       0.3333333333333333 [-]
	 SCS Opposite-Spin Scale   =       1.2000000000000000 [-]
	 SCS Same-Spin Energy      =      -0.1480049115866703 [Eh]
	 SCS Opposite-Spin Energy  =      -1.5908987165215900 [Eh]
	 SCS Correlation Energy    =      -1.7389036281082602 [Eh]
	 SCS Total Energy          =    -504.3583299360089427 [Eh]
	-----------------------------------------------------------

  Dipole Moment: [D]
     X:     0.0036      Y:     0.6057      Z:     0.0000     Total:     0.6057

*** Psi4 exiting successfully. Buy a developer a beer!
