                               Psi4 1.4a3.dev225

  ==> Input File <==

--------------------------------------------------------------------------
#psi4
#
memory 32 gb

molecule  {
0 1
  F        2.1226300     0.9082170     0.7600610
  F       -2.1226300     0.9082210    -0.7600560
  O        2.8120520    -0.8324970    -0.4615260
  O       -2.8120520    -0.8324980     0.4615220
  C        0.5244016    -0.0188775    -0.5572549
  C       -0.4856120    -0.1117600     0.5938040
  C        1.9157900    -0.1063220    -0.1389790
  C       -1.9157900    -0.1063230     0.1389780
  H        0.3463190    -0.9890650    -1.2292190
  H        0.3197670     0.7835690    -1.2005600
  H       -0.3197660     0.7835590     1.2005670
  H       -0.3463190    -0.9890750     1.2292110
units angstrom
no_reorient  #important for SAPT in psi4, default
symmetry c1  #important for SAPT in psi4, default
}

set PROPERTIES_ORIGIN ["COM"]
properties('MP2/aug-cc-pvtz', properties = ['dipole'])
--------------------------------------------------------------------------

    Molecular point group: c1
  Charge       = 0
  Multiplicity = 1
  Basis Set: AUG-CC-PVTZ
    Blend: AUG-CC-PVTZ
  Basis Set: (AUG-CC-PVTZ AUX)
    Blend: AUG-CC-PVTZ-JKFIT

    Orbital Energies [Eh]
    ---------------------

    Doubly Occupied:

       1A    -26.349118     2A    -26.344750     3A    -20.608817
       4A    -20.606598     5A    -11.451762     6A    -11.450386
       7A    -11.303507     8A    -11.302872     9A     -1.667378
      10A     -1.666245    11A     -1.445158    12A     -1.444001
      13A     -1.144736    14A     -1.013982    15A     -0.867399
      16A     -0.853992    17A     -0.776557    18A     -0.750885
      19A     -0.747628    20A     -0.736361    21A     -0.733219
      22A     -0.717373    23A     -0.673972    24A     -0.639059
      25A     -0.630836    26A     -0.596833    27A     -0.566283
      28A     -0.549746    29A     -0.537137    30A     -0.518891
      31A     -0.502973

  @DF-RHF Final Energy:  -502.60680311561282

   => Energetics <=

    Nuclear Repulsion Energy =            363.9713667310515461
    One-Electron Energy =               -1414.7594326399728288
    Two-Electron Energy =                 548.1812627933084059
    Total Energy =                       -502.6068031156128200
  Basis Set: (AUG-CC-PVTZ AUX)
    Blend: AUG-CC-PVTZ-RI
    Molecular point group: c1

    Geometry (in Angstrom), charge = 0, multiplicity = 1:

       Center              X                  Y                   Z               Mass
    ------------   -----------------  -----------------  -----------------  -----------------
         F            2.118815182079     0.880808321301     0.756466387437    18.998403162730
         F           -2.126444817921     0.880812321301    -0.763650612563    18.998403162730
         O            2.808237182079    -0.859905678699    -0.465120612563    15.994914619570
         O           -2.815866817921    -0.859906678699     0.457927387437    15.994914619570
         C            0.520586782079    -0.046286178699    -0.560849512563    12.000000000000
         C           -0.489426817921    -0.139168678699     0.590209387437    12.000000000000
         C            1.911975182079    -0.133730678699    -0.142573612563    12.000000000000
         C           -1.919604817921    -0.133731678699     0.135383387437    12.000000000000
         H            0.342504182079    -1.016473678699    -1.232813612563     1.007825032230
         H            0.315952182079     0.756160321301    -1.204154612563     1.007825032230
         H           -0.323580817921     0.756150321301     1.196972387437     1.007825032230
         H           -0.350133817921    -1.016483678699     1.225616387437     1.007825032230

  Basis Set: AUG-CC-PVTZ
    Blend: AUG-CC-PVTZ
  Basis Set: (AUG-CC-PVTZ AUX)
    Blend: AUG-CC-PVTZ-JKFIT
	 Reference Energy          =    -502.6068031156128200 [Eh]
	 Singles Energy            =      -0.0000000000000000 [Eh]
	 Same-Spin Energy          =      -0.4447092794994260 [Eh]
	 Opposite-Spin Energy      =      -1.3270614955822000 [Eh]
	 Correlation Energy        =      -1.7717707750816261 [Eh]
	 Total Energy              =    -504.3785738906944403 [Eh]

	 ================> DF-SCS-MP2 Energies <==================
	-----------------------------------------------------------
	 SCS Same-Spin Scale       =       0.3333333333333333 [-]
	 SCS Opposite-Spin Scale   =       1.2000000000000000 [-]
	 SCS Same-Spin Energy      =      -0.1482364264998087 [Eh]
	 SCS Opposite-Spin Energy  =      -1.5924737946986400 [Eh]
	 SCS Correlation Energy    =      -1.7407102211984486 [Eh]
	 SCS Total Energy          =    -504.3475133368112893 [Eh]
	-----------------------------------------------------------

  Dipole Moment: [D]
     X:    -0.0026      Y:     0.6265      Z:     0.0068     Total:     0.6266

*** Psi4 exiting successfully. Buy a developer a beer!
