                               Psi4 1.4a3.dev225

  ==> Input File <==

--------------------------------------------------------------------------
#psi4
#
memory 32 gb

molecule  {
0 1
  F        2.1226300     0.9082170     0.7600610
  F       -2.1226300     0.9082210    -0.7600560
  O        2.8120520    -0.8324970    -0.4615260
  O       -2.8120520    -0.8324980     0.4615220
  C        0.4856120    -0.1117560    -0.5938050
  C       -0.5248859    -0.2042775     0.5568578
  C        1.9157900    -0.1063220    -0.1389790
  C       -1.9157900    -0.1063230     0.1389780
  H        0.3463190    -0.9890650    -1.2292190
  H        0.3197670     0.7835690    -1.2005600
  H       -0.3197660     0.7835590     1.2005670
  H       -0.3463190    -0.9890750     1.2292110
units angstrom
no_reorient  #important for SAPT in psi4, default
symmetry c1  #important for SAPT in psi4, default
}

set PROPERTIES_ORIGIN ["COM"]
properties('MP2/aug-cc-pvtz', properties = ['dipole'])
--------------------------------------------------------------------------

    Molecular point group: c1
  Charge       = 0
  Multiplicity = 1
  Basis Set: AUG-CC-PVTZ
    Blend: AUG-CC-PVTZ
  Basis Set: (AUG-CC-PVTZ AUX)
    Blend: AUG-CC-PVTZ-JKFIT

    Orbital Energies [Eh]
    ---------------------

    Doubly Occupied:

       1A    -26.350252     2A    -26.348704     3A    -20.606794
       4A    -20.601984     5A    -11.451368     6A    -11.448388
       7A    -11.303905     8A    -11.302710     9A     -1.667811
      10A     -1.666822    11A     -1.444088    12A     -1.442346
      13A     -1.143417    14A     -1.011657    15A     -0.867976
      16A     -0.856273    17A     -0.775051    18A     -0.754013
      19A     -0.745070    20A     -0.736320    21A     -0.732096
      22A     -0.717321    23A     -0.666240    24A     -0.641698
      25A     -0.630993    26A     -0.603461    27A     -0.575590
      28A     -0.551509    29A     -0.531064    30A     -0.513235
      31A     -0.498600

  @DF-RHF Final Energy:  -502.60857311811054

   => Energetics <=

    Nuclear Repulsion Energy =            363.6078037980282716
    One-Electron Energy =               -1414.0592416065803718
    Two-Electron Energy =                 547.8428646904415018
    Total Energy =                       -502.6085731181105984
  Basis Set: (AUG-CC-PVTZ AUX)
    Blend: AUG-CC-PVTZ-RI
    Molecular point group: c1

    Geometry (in Angstrom), charge = 0, multiplicity = 1:

       Center              X                  Y                   Z               Mass
    ------------   -----------------  -----------------  -----------------  -----------------
         F            2.126492430466     0.899041312929     0.763694469071    18.998403162730
         F           -2.118767569534     0.899045312929    -0.756422530929    18.998403162730
         O            2.815914430466    -0.841672687071    -0.457892530929    15.994914619570
         O           -2.808189569534    -0.841673687071     0.465155469071    15.994914619570
         C            0.489474430466    -0.120931687071    -0.590171530929    12.000000000000
         C           -0.521023469534    -0.213453187071     0.560491269071    12.000000000000
         C            1.919652430466    -0.115497687071    -0.135345530929    12.000000000000
         C           -1.911927569534    -0.115498687071     0.142611469071    12.000000000000
         H            0.350181430466    -0.998240687071    -1.225585530929     1.007825032230
         H            0.323629430466     0.774393312929    -1.196926530929     1.007825032230
         H           -0.315903569534     0.774383312929     1.204200469071     1.007825032230
         H           -0.342456569534    -0.998250687071     1.232844469071     1.007825032230

  Basis Set: AUG-CC-PVTZ
    Blend: AUG-CC-PVTZ
  Basis Set: (AUG-CC-PVTZ AUX)
    Blend: AUG-CC-PVTZ-JKFIT
	 Reference Energy          =    -502.6085731181105416 [Eh]
	 Singles Energy            =      -0.0000000000000000 [Eh]
	 Same-Spin Energy          =      -0.4445212525205635 [Eh]
	 Opposite-Spin Energy      =      -1.3264251122971551 [Eh]
	 Correlation Energy        =      -1.7709463648177186 [Eh]
	 Total Energy              =    -504.3795194829282877 [Eh]

	 ================> DF-SCS-MP2 Energies <==================
	-----------------------------------------------------------
	 SCS Same-Spin Scale       =       0.3333333333333333 [-]
	 SCS Opposite-Spin Scale   =       1.2000000000000000 [-]
	 SCS Same-Spin Energy      =      -0.1481737508401878 [Eh]
	 SCS Opposite-Spin Energy  =      -1.5917101347565861 [Eh]
	 SCS Correlation Energy    =      -1.7398838855967740 [Eh]
	 SCS Total Energy          =    -504.3484570037073240 [Eh]
	-----------------------------------------------------------

  Dipole Moment: [D]
     X:     0.1232      Y:     0.5821      Z:    -0.0008     Total:     0.5950

*** Psi4 exiting successfully. Buy a developer a beer!
