                               Psi4 1.4a3.dev225

  ==> Input File <==

--------------------------------------------------------------------------
#psi4
#
memory 32 gb

molecule  {
0 1
  F        2.1226300     0.9082170     0.7600610
  F       -2.1226300     0.9082210    -0.7600560
  O        2.8120520    -0.8324970    -0.4615260
  O       -2.8120520    -0.8324980     0.4615220
  C        0.4856120    -0.1117560    -0.5938050
  C       -0.4856120    -0.1117600     0.5938040
  C        1.9157900    -0.1063220    -0.1389790
  C       -1.9195222    -0.0837546     0.1517377
  H        0.3463190    -0.9890650    -1.2292190
  H        0.3197670     0.7835690    -1.2005600
  H       -0.3197660     0.7835590     1.2005670
  H       -0.3463190    -0.9890750     1.2292110
units angstrom
no_reorient  #important for SAPT in psi4, default
symmetry c1  #important for SAPT in psi4, default
}

set PROPERTIES_ORIGIN ["COM"]
properties('MP2/aug-cc-pvtz', properties = ['dipole'])
--------------------------------------------------------------------------

    Molecular point group: c1
  Charge       = 0
  Multiplicity = 1
  Basis Set: AUG-CC-PVTZ
    Blend: AUG-CC-PVTZ
  Basis Set: (AUG-CC-PVTZ AUX)
    Blend: AUG-CC-PVTZ-JKFIT

    Orbital Energies [Eh]
    ---------------------

    Doubly Occupied:

       1A    -26.352242     2A    -26.348260     3A    -20.605549
       4A    -20.603569     5A    -11.450741     6A    -11.450121
       7A    -11.302138     8A    -11.301339     9A     -1.672501
      10A     -1.666538    11A     -1.443078    12A     -1.436640
      13A     -1.140874    14A     -1.006010    15A     -0.868478
      16A     -0.856815    17A     -0.774589    18A     -0.753351
      19A     -0.743394    20A     -0.736402    21A     -0.732117
      22A     -0.717157    23A     -0.673626    24A     -0.637002
      25A     -0.627697    26A     -0.594231    27A     -0.580264
      28A     -0.551031    29A     -0.537652    30A     -0.519294
      31A     -0.496399

  @DF-RHF Final Energy:  -502.61913706681969

   => Energetics <=

    Nuclear Repulsion Energy =            363.3326227483861430
    One-Electron Energy =               -1413.5453217296594630
    Two-Electron Energy =                 547.5935619144535167
    Total Energy =                       -502.6191370668196896
  Basis Set: (AUG-CC-PVTZ AUX)
    Blend: AUG-CC-PVTZ-RI
    Molecular point group: c1

    Geometry (in Angstrom), charge = 0, multiplicity = 1:

       Center              X                  Y                   Z               Mass
    ------------   -----------------  -----------------  -----------------  -----------------
         F            2.122997039419     0.887723052280     0.758806082814    18.998403162730
         F           -2.122262960581     0.887727052280    -0.761310917186    18.998403162730
         O            2.812419039419    -0.852990947720    -0.462780917186    15.994914619570
         O           -2.811684960581    -0.852991947720     0.460267082814    15.994914619570
         C            0.485979039419    -0.132249947720    -0.595059917186    12.000000000000
         C           -0.485244960581    -0.132253947720     0.592549082814    12.000000000000
         C            1.916157039419    -0.126815947720    -0.140233917186    12.000000000000
         C           -1.919155160581    -0.104248547720     0.150482782814    12.000000000000
         H            0.346686039419    -1.009558947720    -1.230473917186     1.007825032230
         H            0.320134039419     0.763075052280    -1.201814917186     1.007825032230
         H           -0.319398960581     0.763065052280     1.199312082814     1.007825032230
         H           -0.345951960581    -1.009568947720     1.227956082814     1.007825032230

  Basis Set: AUG-CC-PVTZ
    Blend: AUG-CC-PVTZ
  Basis Set: (AUG-CC-PVTZ AUX)
    Blend: AUG-CC-PVTZ-JKFIT
	 Reference Energy          =    -502.6191370668196896 [Eh]
	 Singles Energy            =      -0.0000000000000000 [Eh]
	 Same-Spin Energy          =      -0.4440863803756145 [Eh]
	 Opposite-Spin Energy      =      -1.3257589923531512 [Eh]
	 Correlation Energy        =      -1.7698453727287657 [Eh]
	 Total Energy              =    -504.3889824395484425 [Eh]

	 ================> DF-SCS-MP2 Energies <==================
	-----------------------------------------------------------
	 SCS Same-Spin Scale       =       0.3333333333333333 [-]
	 SCS Opposite-Spin Scale   =       1.2000000000000000 [-]
	 SCS Same-Spin Energy      =      -0.1480287934585381 [Eh]
	 SCS Opposite-Spin Energy  =      -1.5909107908237814 [Eh]
	 SCS Correlation Energy    =      -1.7389395842823197 [Eh]
	 SCS Total Energy          =    -504.3580766511020101 [Eh]
	-----------------------------------------------------------

  Dipole Moment: [D]
     X:     0.0111      Y:     0.6884      Z:    -0.0238     Total:     0.6889

*** Psi4 exiting successfully. Buy a developer a beer!
