                               Psi4 1.4a3.dev225

  ==> Input File <==

--------------------------------------------------------------------------
#psi4
#
memory 32 gb

molecule  {
0 1
  F        2.1226300     0.9082170     0.7600610
  F       -2.1226300     0.9082210    -0.7600560
  O        2.8120520    -0.8324970    -0.4615260
  O       -2.8120520    -0.8324980     0.4615220
  C        0.4856120    -0.1117560    -0.5938050
  C       -0.4856120    -0.1117600     0.5938040
  C        1.9157900    -0.1063220    -0.1389790
  C       -1.9061822    -0.0622709     0.1123099
  H        0.3463190    -0.9890650    -1.2292190
  H        0.3197670     0.7835690    -1.2005600
  H       -0.3197660     0.7835590     1.2005670
  H       -0.3463190    -0.9890750     1.2292110
units angstrom
no_reorient  #important for SAPT in psi4, default
symmetry c1  #important for SAPT in psi4, default
}

set PROPERTIES_ORIGIN ["COM"]
properties('MP2/aug-cc-pvtz', properties = ['dipole'])
--------------------------------------------------------------------------

    Molecular point group: c1
  Charge       = 0
  Multiplicity = 1
  Basis Set: AUG-CC-PVTZ
    Blend: AUG-CC-PVTZ
  Basis Set: (AUG-CC-PVTZ AUX)
    Blend: AUG-CC-PVTZ-JKFIT

    Orbital Energies [Eh]
    ---------------------

    Doubly Occupied:

       1A    -26.370117     2A    -26.348551     3A    -20.605669
       4A    -20.595752     5A    -11.453850     6A    -11.450213
       7A    -11.302337     8A    -11.300941     9A     -1.701014
      10A     -1.666825    11A     -1.443220    12A     -1.409773
      13A     -1.141870    14A     -1.006509    15A     -0.883606
      16A     -0.859565    17A     -0.783727    18A     -0.763524
      19A     -0.748129    20A     -0.738151    21A     -0.736620
      22A     -0.716522    23A     -0.673906    24A     -0.636674
      25A     -0.621673    26A     -0.595659    27A     -0.578921
      28A     -0.548517    29A     -0.526830    30A     -0.515183
      31A     -0.492082

  @DF-RHF Final Energy:  -502.61422070687183

   => Energetics <=

    Nuclear Repulsion Energy =            363.5275368601090236
    One-Electron Energy =               -1413.8516536561514840
    Two-Electron Energy =                 547.7098960891706838
    Total Energy =                       -502.6142207068718335
  Basis Set: (AUG-CC-PVTZ AUX)
    Blend: AUG-CC-PVTZ-RI
    Molecular point group: c1

    Geometry (in Angstrom), charge = 0, multiplicity = 1:

       Center              X                  Y                   Z               Mass
    ------------   -----------------  -----------------  -----------------  -----------------
         F            2.121685101144     0.885610212078     0.762683657019    18.998403162730
         F           -2.123574898856     0.885614212078    -0.757433342981    18.998403162730
         O            2.811107101144    -0.855103787922    -0.458903342981    15.994914619570
         O           -2.812996898856    -0.855104787922     0.464144657019    15.994914619570
         C            0.484667101144    -0.134362787922    -0.591182342981    12.000000000000
         C           -0.486556898856    -0.134366787922     0.596426657019    12.000000000000
         C            1.914845101144    -0.128928787922    -0.136356342981    12.000000000000
         C           -1.907127098856    -0.084877687922     0.114932557019    12.000000000000
         H            0.345374101144    -1.011671787922    -1.226596342981     1.007825032230
         H            0.318822101144     0.760962212078    -1.197937342981     1.007825032230
         H           -0.320710898856     0.760952212078     1.203189657019     1.007825032230
         H           -0.347263898856    -1.011681787922     1.231833657019     1.007825032230

  Basis Set: AUG-CC-PVTZ
    Blend: AUG-CC-PVTZ
  Basis Set: (AUG-CC-PVTZ AUX)
    Blend: AUG-CC-PVTZ-JKFIT
	 Reference Energy          =    -502.6142207068718335 [Eh]
	 Singles Energy            =      -0.0000000000000000 [Eh]
	 Same-Spin Energy          =      -0.4444751842322742 [Eh]
	 Opposite-Spin Energy      =      -1.3264141964957630 [Eh]
	 Correlation Energy        =      -1.7708893807280373 [Eh]
	 Total Energy              =    -504.3851100875998554 [Eh]

	 ================> DF-SCS-MP2 Energies <==================
	-----------------------------------------------------------
	 SCS Same-Spin Scale       =       0.3333333333333333 [-]
	 SCS Opposite-Spin Scale   =       1.2000000000000000 [-]
	 SCS Same-Spin Energy      =      -0.1481583947440914 [Eh]
	 SCS Opposite-Spin Energy  =      -1.5916970357949156 [Eh]
	 SCS Correlation Energy    =      -1.7398554305390070 [Eh]
	 SCS Total Energy          =    -504.3540761374108570 [Eh]
	-----------------------------------------------------------

  Dipole Moment: [D]
     X:     0.0759      Y:     0.9487      Z:    -0.2446     Total:     0.9826

*** Psi4 exiting successfully. Buy a developer a beer!
