                               Psi4 1.4a3.dev225

  ==> Input File <==

--------------------------------------------------------------------------
#psi4
#
memory 32 gb

molecule  {
0 1
  F        2.1226300     0.9082170     0.7600610
  F       -2.1226300     0.9082210    -0.7600560
  O        2.8120520    -0.8324970    -0.4615260
  O       -2.8120520    -0.8324980     0.4615220
  C        0.4856120    -0.1117560    -0.5938050
  C       -0.4856120    -0.1117600     0.5938040
  C        1.9906176    -0.1669493    -0.1659080
  C       -1.9157900    -0.1063230     0.1389780
  H        0.3463190    -0.9890650    -1.2292190
  H        0.3197670     0.7835690    -1.2005600
  H       -0.3197660     0.7835590     1.2005670
  H       -0.3463190    -0.9890750     1.2292110
units angstrom
no_reorient  #important for SAPT in psi4, default
symmetry c1  #important for SAPT in psi4, default
}

set PROPERTIES_ORIGIN ["COM"]
properties('MP2/aug-cc-pvtz', properties = ['dipole'])
--------------------------------------------------------------------------

    Molecular point group: c1
  Charge       = 0
  Multiplicity = 1
  Basis Set: AUG-CC-PVTZ
    Blend: AUG-CC-PVTZ
  Basis Set: (AUG-CC-PVTZ AUX)
    Blend: AUG-CC-PVTZ-JKFIT

    Orbital Energies [Eh]
    ---------------------

    Doubly Occupied:

       1A    -26.344848     2A    -26.317889     3A    -20.621333
       4A    -20.601992     5A    -11.446408     6A    -11.437097
       7A    -11.300203     8A    -11.296257     9A     -1.663145
      10A     -1.631010    11A     -1.523872    12A     -1.439698
      13A     -1.128236    14A     -0.989263    15A     -0.857730
      16A     -0.838745    17A     -0.765404    18A     -0.757357
      19A     -0.743153    20A     -0.732074    21A     -0.723384
      22A     -0.713634    23A     -0.674728    24A     -0.632486
      25A     -0.626912    26A     -0.606559    27A     -0.583673
      28A     -0.563724    29A     -0.540630    30A     -0.523173
      31A     -0.492389

  @DF-RHF Final Energy:  -502.60834110340483

   => Energetics <=

    Nuclear Repulsion Energy =            363.3314467853938368
    One-Electron Energy =               -1413.6455660131405239
    Two-Electron Energy =                 547.7057781243418049
    Total Energy =                       -502.6083411034048822
  Basis Set: (AUG-CC-PVTZ AUX)
    Blend: AUG-CC-PVTZ-RI
    Molecular point group: c1

    Geometry (in Angstrom), charge = 0, multiplicity = 1:

       Center              X                  Y                   Z               Mass
    ------------   -----------------  -----------------  -----------------  -----------------
         F            2.115270981814     0.895905033022     0.762709315542    18.998403162730
         F           -2.129989018186     0.895909033022    -0.757407684458    18.998403162730
         O            2.804692981814    -0.844808966978    -0.458877684458    15.994914619570
         O           -2.819411018186    -0.844809966978     0.464170315542    15.994914619570
         C            0.478252981814    -0.124067966978    -0.591156684458    12.000000000000
         C           -0.492971018186    -0.124071966978     0.596452315542    12.000000000000
         C            1.983258581814    -0.179261266978    -0.163259684458    12.000000000000
         C           -1.923149018186    -0.118634966978     0.141626315542    12.000000000000
         H            0.338959981814    -1.001376966978    -1.226570684458     1.007825032230
         H            0.312407981814     0.771257033022    -1.197911684458     1.007825032230
         H           -0.327125018186     0.771247033022     1.203215315542     1.007825032230
         H           -0.353678018186    -1.001386966978     1.231859315542     1.007825032230

  Basis Set: AUG-CC-PVTZ
    Blend: AUG-CC-PVTZ
  Basis Set: (AUG-CC-PVTZ AUX)
    Blend: AUG-CC-PVTZ-JKFIT
	 Reference Energy          =    -502.6083411034048254 [Eh]
	 Singles Energy            =      -0.0000000000000000 [Eh]
	 Same-Spin Energy          =      -0.4418911881500714 [Eh]
	 Opposite-Spin Energy      =      -1.3214970247418041 [Eh]
	 Correlation Energy        =      -1.7633882128918756 [Eh]
	 Total Energy              =    -504.3717293162966939 [Eh]

	 ================> DF-SCS-MP2 Energies <==================
	-----------------------------------------------------------
	 SCS Same-Spin Scale       =       0.3333333333333333 [-]
	 SCS Opposite-Spin Scale   =       1.2000000000000000 [-]
	 SCS Same-Spin Energy      =      -0.1472970627166905 [Eh]
	 SCS Opposite-Spin Energy  =      -1.5857964296901648 [Eh]
	 SCS Correlation Energy    =      -1.7330934924068553 [Eh]
	 SCS Total Energy          =    -504.3414345958116769 [Eh]
	-----------------------------------------------------------

  Dipole Moment: [D]
     X:     0.5531      Y:     0.0491      Z:    -0.3152     Total:     0.6385

*** Psi4 exiting successfully. Buy a developer a beer!
