                               Psi4 1.4a3.dev225

  ==> Input File <==

--------------------------------------------------------------------------
#psi4
#
memory 32 gb

molecule  {
0 1
  F        2.1226300     0.9082170     0.7600610
  F       -2.1226300     0.9082210    -0.7600560
  O        2.8120520    -0.8324970    -0.4615260
  O       -2.8120520    -0.8324980     0.4615220
  C        0.4644301    -0.1582235    -0.6099204
  C       -0.4856120    -0.1117600     0.5938040
  C        1.9157900    -0.1063220    -0.1389790
  C       -1.9157900    -0.1063230     0.1389780
  H        0.3463190    -0.9890650    -1.2292190
  H        0.3197670     0.7835690    -1.2005600
  H       -0.3197660     0.7835590     1.2005670
  H       -0.3463190    -0.9890750     1.2292110
units angstrom
no_reorient  #important for SAPT in psi4, default
symmetry c1  #important for SAPT in psi4, default
}

set PROPERTIES_ORIGIN ["COM"]
properties('MP2/aug-cc-pvtz', properties = ['dipole'])
--------------------------------------------------------------------------

    Molecular point group: c1
  Charge       = 0
  Multiplicity = 1
  Basis Set: AUG-CC-PVTZ
    Blend: AUG-CC-PVTZ
  Basis Set: (AUG-CC-PVTZ AUX)
    Blend: AUG-CC-PVTZ-JKFIT

    Orbital Energies [Eh]
    ---------------------

    Doubly Occupied:

       1A    -26.350013     2A    -26.347868     3A    -20.604854
       4A    -20.603759     5A    -11.450036     6A    -11.449146
       7A    -11.302352     8A    -11.301454     9A     -1.666928
      10A     -1.666126    11A     -1.442516    12A     -1.441803
      13A     -1.139793    14A     -1.001662    15A     -0.866133
      16A     -0.857129    17A     -0.773195    18A     -0.752419
      19A     -0.741636    20A     -0.735068    21A     -0.729467
      22A     -0.717317    23A     -0.674252    24A     -0.636378
      25A     -0.625903    26A     -0.603834    27A     -0.580094
      28A     -0.552571    29A     -0.538773    30A     -0.518645
      31A     -0.493117

  @DF-RHF Final Energy:  -502.61699932802009

   => Energetics <=

    Nuclear Repulsion Energy =            363.0626060344029611
    One-Electron Energy =               -1413.0307292309380500
    Two-Electron Energy =                 547.3511238685150602
    Total Energy =                       -502.6169993280200288
  Basis Set: (AUG-CC-PVTZ AUX)
    Blend: AUG-CC-PVTZ-RI
    Molecular point group: c1

    Geometry (in Angstrom), charge = 0, multiplicity = 1:

       Center              X                  Y                   Z               Mass
    ------------   -----------------  -----------------  -----------------  -----------------
         F            2.124713151061     0.894512470535     0.761645839101    18.998403162730
         F           -2.120546848939     0.894516470535    -0.758471160899    18.998403162730
         O            2.814135151061    -0.846201529465    -0.459941160899    15.994914619570
         O           -2.809968848939    -0.846202529465     0.463106839101    15.994914619570
         C            0.466513251061    -0.171928029465    -0.608335560899    12.000000000000
         C           -0.483528848939    -0.125464529465     0.595388839101    12.000000000000
         C            1.917873151061    -0.120026529465    -0.137394160899    12.000000000000
         C           -1.913706848939    -0.120027529465     0.140562839101    12.000000000000
         H            0.348402151061    -1.002769529465    -1.227634160899     1.007825032230
         H            0.321850151061     0.769864470535    -1.198975160899     1.007825032230
         H           -0.317682848939     0.769854470535     1.202151839101     1.007825032230
         H           -0.344235848939    -1.002779529465     1.230795839101     1.007825032230

  Basis Set: AUG-CC-PVTZ
    Blend: AUG-CC-PVTZ
  Basis Set: (AUG-CC-PVTZ AUX)
    Blend: AUG-CC-PVTZ-JKFIT
	 Reference Energy          =    -502.6169993280200856 [Eh]
	 Singles Energy            =      -0.0000000000000000 [Eh]
	 Same-Spin Energy          =      -0.4438454896119224 [Eh]
	 Opposite-Spin Energy      =      -1.3254700278884681 [Eh]
	 Correlation Energy        =      -1.7693155175003905 [Eh]
	 Total Energy              =    -504.3863148455204737 [Eh]

	 ================> DF-SCS-MP2 Energies <==================
	-----------------------------------------------------------
	 SCS Same-Spin Scale       =       0.3333333333333333 [-]
	 SCS Opposite-Spin Scale   =       1.2000000000000000 [-]
	 SCS Same-Spin Energy      =      -0.1479484965373075 [Eh]
	 SCS Opposite-Spin Energy  =      -1.5905640334661617 [Eh]
	 SCS Correlation Energy    =      -1.7385125300034692 [Eh]
	 SCS Total Energy          =    -504.3555118580235330 [Eh]
	-----------------------------------------------------------

  Dipole Moment: [D]
     X:     0.0034      Y:     0.5965      Z:     0.0088     Total:     0.5966

*** Psi4 exiting successfully. Buy a developer a beer!
