                               Psi4 1.4a3.dev225

  ==> Input File <==

--------------------------------------------------------------------------
#psi4
#
memory 32 gb

molecule  {
0 1
  F        2.1226300     0.9082170     0.7600610
  F       -2.1226300     0.9082210    -0.7600560
  O        2.8120520    -0.8324970    -0.4615260
  O       -2.8120520    -0.8324980     0.4615220
  C        0.4856120    -0.1117560    -0.5938050
  C       -0.4856120    -0.1117600     0.5938040
  C        1.9157900    -0.1063220    -0.1389790
  C       -1.8948436    -0.0182790     0.0862284
  H        0.3463190    -0.9890650    -1.2292190
  H        0.3197670     0.7835690    -1.2005600
  H       -0.3197660     0.7835590     1.2005670
  H       -0.3463190    -0.9890750     1.2292110
units angstrom
no_reorient  #important for SAPT in psi4, default
symmetry c1  #important for SAPT in psi4, default
}

set PROPERTIES_ORIGIN ["COM"]
properties('MP2/aug-cc-pvtz', properties = ['dipole'])
--------------------------------------------------------------------------

    Molecular point group: c1
  Charge       = 0
  Multiplicity = 1
  Basis Set: AUG-CC-PVTZ
    Blend: AUG-CC-PVTZ
  Basis Set: (AUG-CC-PVTZ AUX)
    Blend: AUG-CC-PVTZ-JKFIT

    Orbital Energies [Eh]
    ---------------------

    Doubly Occupied:

       1A    -26.391103     2A    -26.348985     3A    -20.606086
       4A    -20.585734     5A    -11.457747     6A    -11.450617
       7A    -11.303058     8A    -11.300942     9A     -1.737741
      10A     -1.667259    11A     -1.443621    12A     -1.377041
      13A     -1.143058    14A     -1.008566    15A     -0.905856
      16A     -0.860789    17A     -0.799410    18A     -0.783108
      19A     -0.754463    20A     -0.740547    21A     -0.736220
      22A     -0.714051    23A     -0.675816    24A     -0.635803
      25A     -0.610252    26A     -0.597537    27A     -0.577604
      28A     -0.547504    29A     -0.517152    30A     -0.503429
      31A     -0.484565

  @DF-RHF Final Energy:  -502.60126333867726

   => Energetics <=

    Nuclear Repulsion Energy =            363.7510068450465610
    One-Electron Energy =               -1414.1732113915384161
    Two-Electron Energy =                 547.8209412078147125
    Total Energy =                       -502.6012633386771995
  Basis Set: (AUG-CC-PVTZ AUX)
    Blend: AUG-CC-PVTZ-RI
    Molecular point group: c1

    Geometry (in Angstrom), charge = 0, multiplicity = 1:

       Center              X                  Y                   Z               Mass
    ------------   -----------------  -----------------  -----------------  -----------------
         F            2.120569992949     0.881283775993     0.765248673368    18.998403162730
         F           -2.124690007051     0.881287775993    -0.754868326632    18.998403162730
         O            2.809991992949    -0.859430224007    -0.456338326632    15.994914619570
         O           -2.814112007051    -0.859431224007     0.466709673368    15.994914619570
         C            0.483551992949    -0.138689224007    -0.588617326632    12.000000000000
         C           -0.487672007051    -0.138693224007     0.598991673368    12.000000000000
         C            1.913729992949    -0.133255224007    -0.133791326632    12.000000000000
         C           -1.896903607051    -0.045212224007     0.091416073368    12.000000000000
         H            0.344258992949    -1.015998224007    -1.224031326632     1.007825032230
         H            0.317706992949     0.756635775993    -1.195372326632     1.007825032230
         H           -0.321826007051     0.756625775993     1.205754673368     1.007825032230
         H           -0.348379007051    -1.016008224007     1.234398673368     1.007825032230

  Basis Set: AUG-CC-PVTZ
    Blend: AUG-CC-PVTZ
  Basis Set: (AUG-CC-PVTZ AUX)
    Blend: AUG-CC-PVTZ-JKFIT
	 Reference Energy          =    -502.6012633386772563 [Eh]
	 Singles Energy            =      -0.0000000000000000 [Eh]
	 Same-Spin Energy          =      -0.4451096017907096 [Eh]
	 Opposite-Spin Energy      =      -1.3274765516043425 [Eh]
	 Correlation Energy        =      -1.7725861533950522 [Eh]
	 Total Energy              =    -504.3738494920722815 [Eh]

	 ================> DF-SCS-MP2 Energies <==================
	-----------------------------------------------------------
	 SCS Same-Spin Scale       =       0.3333333333333333 [-]
	 SCS Opposite-Spin Scale   =       1.2000000000000000 [-]
	 SCS Same-Spin Energy      =      -0.1483698672635699 [Eh]
	 SCS Opposite-Spin Energy  =      -1.5929718619252109 [Eh]
	 SCS Correlation Energy    =      -1.7413417291887807 [Eh]
	 SCS Total Energy          =    -504.3426050678660317 [Eh]
	-----------------------------------------------------------

  Dipole Moment: [D]
     X:     0.1597      Y:     1.2759      Z:    -0.4756     Total:     1.3710

*** Psi4 exiting successfully. Buy a developer a beer!
