                               Psi4 1.4a3.dev225

  ==> Input File <==

--------------------------------------------------------------------------
#psi4
#
memory 32 gb

molecule  {
0 1
  F        2.1226300     0.9082170     0.7600610
  F       -2.1226300     0.9082210    -0.7600560
  O        2.8120520    -0.8324970    -0.4615260
  O       -2.8120520    -0.8324980     0.4615220
  C        0.4856120    -0.1117560    -0.5938050
  C       -0.4856120    -0.1117600     0.5938040
  C        1.9157900    -0.1063220    -0.1389790
  C       -1.9316134     0.0288222     0.2174772
  H        0.3463190    -0.9890650    -1.2292190
  H        0.3197670     0.7835690    -1.2005600
  H       -0.3197660     0.7835590     1.2005670
  H       -0.3463190    -0.9890750     1.2292110
units angstrom
no_reorient  #important for SAPT in psi4, default
symmetry c1  #important for SAPT in psi4, default
}

set PROPERTIES_ORIGIN ["COM"]
properties('MP2/aug-cc-pvtz', properties = ['dipole'])
--------------------------------------------------------------------------

    Molecular point group: c1
  Charge       = 0
  Multiplicity = 1
  Basis Set: AUG-CC-PVTZ
    Blend: AUG-CC-PVTZ
  Basis Set: (AUG-CC-PVTZ AUX)
    Blend: AUG-CC-PVTZ-JKFIT

    Orbital Energies [Eh]
    ---------------------

    Doubly Occupied:

       1A    -26.368980     2A    -26.348511     3A    -20.606539
       4A    -20.596842     5A    -11.457165     6A    -11.451180
       7A    -11.303696     8A    -11.301734     9A     -1.697533
      10A     -1.666832    11A     -1.443898    12A     -1.399865
      13A     -1.140587    14A     -1.009314    15A     -0.881640
      16A     -0.859316    17A     -0.780795    18A     -0.762371
      19A     -0.746709    20A     -0.738197    21A     -0.736838
      22A     -0.713066    23A     -0.674363    24A     -0.634063
      25A     -0.622548    26A     -0.593031    27A     -0.579320
      28A     -0.547787    29A     -0.523268    30A     -0.511904
      31A     -0.491763

  @DF-RHF Final Energy:  -502.60040681614259

   => Energetics <=

    Nuclear Repulsion Energy =            362.8847421392170531
    One-Electron Energy =               -1412.5909852323713949
    Two-Electron Energy =                 547.1058362770118038
    Total Energy =                       -502.6004068161425948
  Basis Set: (AUG-CC-PVTZ AUX)
    Blend: AUG-CC-PVTZ-RI
    Molecular point group: c1

    Geometry (in Angstrom), charge = 0, multiplicity = 1:

       Center              X                  Y                   Z               Mass
    ------------   -----------------  -----------------  -----------------  -----------------
         F            2.124186162962     0.876651552076     0.752340852964    18.998403162730
         F           -2.121073837038     0.876655552076    -0.767776147036    18.998403162730
         O            2.813608162962    -0.864062447924    -0.469246147036    15.994914619570
         O           -2.810495837038    -0.864063447924     0.453801852964    15.994914619570
         C            0.487168162962    -0.143321447924    -0.601525147036    12.000000000000
         C           -0.484055837038    -0.143325447924     0.586083852964    12.000000000000
         C            1.917346162962    -0.137887447924    -0.146699147036    12.000000000000
         C           -1.930057237038    -0.002743247924     0.209757052964    12.000000000000
         H            0.347875162962    -1.020630447924    -1.236939147036     1.007825032230
         H            0.321323162962     0.752003552076    -1.208280147036     1.007825032230
         H           -0.318209837038     0.751993552076     1.192846852964     1.007825032230
         H           -0.344762837038    -1.020640447924     1.221490852964     1.007825032230

  Basis Set: AUG-CC-PVTZ
    Blend: AUG-CC-PVTZ
  Basis Set: (AUG-CC-PVTZ AUX)
    Blend: AUG-CC-PVTZ-JKFIT
	 Reference Energy          =    -502.6004068161425948 [Eh]
	 Singles Energy            =      -0.0000000000000000 [Eh]
	 Same-Spin Energy          =      -0.4453432008051801 [Eh]
	 Opposite-Spin Energy      =      -1.3287043922819286 [Eh]
	 Correlation Energy        =      -1.7740475930871087 [Eh]
	 Total Energy              =    -504.3744544092297133 [Eh]

	 ================> DF-SCS-MP2 Energies <==================
	-----------------------------------------------------------
	 SCS Same-Spin Scale       =       0.3333333333333333 [-]
	 SCS Opposite-Spin Scale   =       1.2000000000000000 [-]
	 SCS Same-Spin Energy      =      -0.1484477336017267 [Eh]
	 SCS Opposite-Spin Energy  =      -1.5944452707383143 [Eh]
	 SCS Correlation Energy    =      -1.7428930043400410 [Eh]
	 SCS Total Energy          =    -504.3432998204826276 [Eh]
	-----------------------------------------------------------

  Dipole Moment: [D]
     X:     0.0860      Y:     1.0532      Z:    -0.1198     Total:     1.0635

*** Psi4 exiting successfully. Buy a developer a beer!
