                               Psi4 1.4a3.dev225

  ==> Input File <==

--------------------------------------------------------------------------
#psi4
#
memory 32 gb

molecule  {
0 1
  F        2.1226300     0.9082170     0.7600610
  F       -2.1226300     0.9082210    -0.7600560
  O        2.8120520    -0.8324970    -0.4615260
  O       -2.8120520    -0.8324980     0.4615220
  C        0.4856120    -0.1117560    -0.5938050
  C       -0.4178953     0.0268754     0.6383261
  C        1.9157900    -0.1063220    -0.1389790
  C       -1.9157900    -0.1063230     0.1389780
  H        0.3463190    -0.9890650    -1.2292190
  H        0.3197670     0.7835690    -1.2005600
  H       -0.3197660     0.7835590     1.2005670
  H       -0.3463190    -0.9890750     1.2292110
units angstrom
no_reorient  #important for SAPT in psi4, default
symmetry c1  #important for SAPT in psi4, default
}

set PROPERTIES_ORIGIN ["COM"]
properties('MP2/aug-cc-pvtz', properties = ['dipole'])
--------------------------------------------------------------------------

    Molecular point group: c1
  Charge       = 0
  Multiplicity = 1
  Basis Set: AUG-CC-PVTZ
    Blend: AUG-CC-PVTZ
  Basis Set: (AUG-CC-PVTZ AUX)
    Blend: AUG-CC-PVTZ-JKFIT

    Orbital Energies [Eh]
    ---------------------

    Doubly Occupied:

       1A    -26.348318     2A    -26.345094     3A    -20.609340
       4A    -20.603906     5A    -11.452649     6A    -11.448526
       7A    -11.304106     8A    -11.302904     9A     -1.666850
      10A     -1.664283    11A     -1.443563    12A     -1.441865
      13A     -1.140024    14A     -0.998608    15A     -0.864843
      16A     -0.859913    17A     -0.777288    18A     -0.749618
      19A     -0.739830    20A     -0.734160    21A     -0.731015
      22A     -0.718642    23A     -0.683755    24A     -0.637169
      25A     -0.624679    26A     -0.605482    27A     -0.566516
      28A     -0.557206    29A     -0.534887    30A     -0.521191
      31A     -0.490183

  @DF-RHF Final Energy:  -502.58761527673948

   => Energetics <=

    Nuclear Repulsion Energy =            362.9872553012020262
    One-Electron Energy =               -1412.8169174901811402
    Two-Electron Energy =                 547.2420469122395161
    Total Energy =                       -502.5876152767394842
  Basis Set: (AUG-CC-PVTZ AUX)
    Blend: AUG-CC-PVTZ-RI
    Molecular point group: c1

    Geometry (in Angstrom), charge = 0, multiplicity = 1:

       Center              X                  Y                   Z               Mass
    ------------   -----------------  -----------------  -----------------  -----------------
         F            2.115970311789     0.876308304177     0.755682371551    18.998403162730
         F           -2.129289688211     0.876312304177    -0.764434628449    18.998403162730
         O            2.805392311789    -0.864405695823    -0.465904628449    15.994914619570
         O           -2.818711688211    -0.864406695823     0.457143371551    15.994914619570
         C            0.478952311789    -0.143664695823    -0.598183628449    12.000000000000
         C           -0.424554988211    -0.005033295823     0.633947471551    12.000000000000
         C            1.909130311789    -0.138230695823    -0.143357628449    12.000000000000
         C           -1.922449688211    -0.138231695823     0.134599371551    12.000000000000
         H            0.339659311789    -1.020973695823    -1.233597628449     1.007825032230
         H            0.313107311789     0.751660304177    -1.204938628449     1.007825032230
         H           -0.326425688211     0.751650304177     1.196188371551     1.007825032230
         H           -0.352978688211    -1.020983695823     1.224832371551     1.007825032230

  Basis Set: AUG-CC-PVTZ
    Blend: AUG-CC-PVTZ
  Basis Set: (AUG-CC-PVTZ AUX)
    Blend: AUG-CC-PVTZ-JKFIT
	 Reference Energy          =    -502.5876152767394842 [Eh]
	 Singles Energy            =      -0.0000000000000000 [Eh]
	 Same-Spin Energy          =      -0.4441920902979752 [Eh]
	 Opposite-Spin Energy      =      -1.3270315046030166 [Eh]
	 Correlation Energy        =      -1.7712235949009918 [Eh]
	 Total Energy              =    -504.3588388716405007 [Eh]

	 ================> DF-SCS-MP2 Energies <==================
	-----------------------------------------------------------
	 SCS Same-Spin Scale       =       0.3333333333333333 [-]
	 SCS Opposite-Spin Scale   =       1.2000000000000000 [-]
	 SCS Same-Spin Energy      =      -0.1480640300993251 [Eh]
	 SCS Opposite-Spin Energy  =      -1.5924378055236199 [Eh]
	 SCS Correlation Energy    =      -1.7405018356229449 [Eh]
	 SCS Total Energy          =    -504.3281171123624063 [Eh]
	-----------------------------------------------------------

  Dipole Moment: [D]
     X:    -0.1468      Y:     0.6319      Z:    -0.0479     Total:     0.6505

*** Psi4 exiting successfully. Buy a developer a beer!
