                               Psi4 1.4a3.dev225

  ==> Input File <==

--------------------------------------------------------------------------
#psi4
#
memory 32 gb

molecule  {
0 1
  F        2.1226300     0.9082170     0.7600610
  F       -2.1226300     0.9082210    -0.7600560
  O        2.8120520    -0.8324970    -0.4615260
  O       -2.8120520    -0.8324980     0.4615220
  C        0.4856120    -0.1117560    -0.5938050
  C       -0.4856120    -0.1117600     0.5938040
  C        1.7661349     0.0149325    -0.0851211
  C       -1.9157900    -0.1063230     0.1389780
  H        0.3463190    -0.9890650    -1.2292190
  H        0.3197670     0.7835690    -1.2005600
  H       -0.3197660     0.7835590     1.2005670
  H       -0.3463190    -0.9890750     1.2292110
units angstrom
no_reorient  #important for SAPT in psi4, default
symmetry c1  #important for SAPT in psi4, default
}

set PROPERTIES_ORIGIN ["COM"]
properties('MP2/aug-cc-pvtz', properties = ['dipole'])
--------------------------------------------------------------------------

    Molecular point group: c1
  Charge       = 0
  Multiplicity = 1
  Basis Set: AUG-CC-PVTZ
    Blend: AUG-CC-PVTZ
  Basis Set: (AUG-CC-PVTZ AUX)
    Blend: AUG-CC-PVTZ-JKFIT

    Orbital Energies [Eh]
    ---------------------

    Doubly Occupied:

       1A    -26.396981     2A    -26.355298     3A    -20.612464
       4A    -20.570809     5A    -11.466999     6A    -11.457221
       7A    -11.313639     8A    -11.305780     9A     -1.738335
      10A     -1.673528    11A     -1.449705    12A     -1.309526
      13A     -1.171694    14A     -1.034368    15A     -0.907603
      16A     -0.869265    17A     -0.804643    18A     -0.786063
      19A     -0.760814    20A     -0.747149    21A     -0.743185
      22A     -0.718164    23A     -0.687874    24A     -0.643530
      25A     -0.615163    26A     -0.597897    27A     -0.574817
      28A     -0.549534    29A     -0.517713    30A     -0.471681
      31A     -0.461663

  @DF-RHF Final Energy:  -502.54578621157157

   => Energetics <=

    Nuclear Repulsion Energy =            364.2605573081661419
    One-Electron Energy =               -1414.9864743807388550
    Two-Electron Energy =                 548.1801308610010892
    Total Energy =                       -502.5457862115715670
  Basis Set: (AUG-CC-PVTZ AUX)
    Blend: AUG-CC-PVTZ-RI
    Molecular point group: c1

    Geometry (in Angstrom), charge = 0, multiplicity = 1:

       Center              X                  Y                   Z               Mass
    ------------   -----------------  -----------------  -----------------  -----------------
         F            2.137348001759     0.878017649601     0.754764231120    18.998403162730
         F           -2.107911998241     0.878021649601    -0.765352768880    18.998403162730
         O            2.826770001759    -0.862696350399    -0.466822768880    15.994914619570
         O           -2.797333998241    -0.862697350399     0.456225231120    15.994914619570
         C            0.500330001759    -0.141955350399    -0.599101768880    12.000000000000
         C           -0.470893998241    -0.141959350399     0.588507231120    12.000000000000
         C            1.780852901759    -0.015266850399    -0.090417868880    12.000000000000
         C           -1.901071998241    -0.136522350399     0.133681231120    12.000000000000
         H            0.361037001759    -1.019264350399    -1.234515768880     1.007825032230
         H            0.334485001759     0.753369649601    -1.205856768880     1.007825032230
         H           -0.305047998241     0.753359649601     1.195270231120     1.007825032230
         H           -0.331600998241    -1.019274350399     1.223914231120     1.007825032230

  Basis Set: AUG-CC-PVTZ
    Blend: AUG-CC-PVTZ
  Basis Set: (AUG-CC-PVTZ AUX)
    Blend: AUG-CC-PVTZ-JKFIT
	 Reference Energy          =    -502.5457862115715670 [Eh]
	 Singles Energy            =      -0.0000000000000000 [Eh]
	 Same-Spin Energy          =      -0.4498028706053107 [Eh]
	 Opposite-Spin Energy      =      -1.3367528914942048 [Eh]
	 Correlation Energy        =      -1.7865557620995154 [Eh]
	 Total Energy              =    -504.3323419736710775 [Eh]

	 ================> DF-SCS-MP2 Energies <==================
	-----------------------------------------------------------
	 SCS Same-Spin Scale       =       0.3333333333333333 [-]
	 SCS Opposite-Spin Scale   =       1.2000000000000000 [-]
	 SCS Same-Spin Energy      =      -0.1499342902017702 [Eh]
	 SCS Opposite-Spin Energy  =      -1.6041034697930459 [Eh]
	 SCS Correlation Energy    =      -1.7540377599948160 [Eh]
	 SCS Total Energy          =    -504.2998239715664113 [Eh]
	-----------------------------------------------------------

  Dipole Moment: [D]
     X:    -0.8980      Y:     1.4558      Z:     0.4715     Total:     1.7743

*** Psi4 exiting successfully. Buy a developer a beer!
