                               Psi4 1.4a3.dev225

  ==> Input File <==

--------------------------------------------------------------------------
#psi4
#
memory 32 gb

molecule  {
0 1
  F        2.1226300     0.9082170     0.7600610
  F       -2.1226300     0.9082210    -0.7600560
  O        2.8120520    -0.8324970    -0.4615260
  O       -2.8120520    -0.8324980     0.4615220
  C        0.4856120    -0.1117560    -0.5938050
  C       -0.4856120    -0.1117600     0.5938040
  C        1.9157900    -0.1063220    -0.1389790
  C       -1.8856220    -0.2542959     0.2701036
  H        0.3463190    -0.9890650    -1.2292190
  H        0.3197670     0.7835690    -1.2005600
  H       -0.3197660     0.7835590     1.2005670
  H       -0.3463190    -0.9890750     1.2292110
units angstrom
no_reorient  #important for SAPT in psi4, default
symmetry c1  #important for SAPT in psi4, default
}

set PROPERTIES_ORIGIN ["COM"]
properties('MP2/aug-cc-pvtz', properties = ['dipole'])
--------------------------------------------------------------------------

    Molecular point group: c1
  Charge       = 0
  Multiplicity = 1
  Basis Set: AUG-CC-PVTZ
    Blend: AUG-CC-PVTZ
  Basis Set: (AUG-CC-PVTZ AUX)
    Blend: AUG-CC-PVTZ-JKFIT

    Orbital Energies [Eh]
    ---------------------

    Doubly Occupied:

       1A    -26.351156     2A    -26.255795     3A    -20.640940
       4A    -20.608618     5A    -11.453337     6A    -11.446631
       7A    -11.313736     8A    -11.306611     9A     -1.669423
      10A     -1.570699    11A     -1.504797    12A     -1.445980
      13A     -1.154948    14A     -1.023445    15A     -0.864890
      16A     -0.816974    17A     -0.767867    18A     -0.754887
      19A     -0.745056    20A     -0.732663    21A     -0.719647
      22A     -0.698101    23A     -0.669323    24A     -0.627518
      25A     -0.611593    26A     -0.588479    27A     -0.579819
      28A     -0.571929    29A     -0.546799    30A     -0.527730
      31A     -0.504952

  @DF-RHF Final Energy:  -502.58976530526451

   => Energetics <=

    Nuclear Repulsion Energy =            363.0254267123074214
    One-Electron Energy =               -1413.0817002924568442
    Two-Electron Energy =                 547.4665082748849727
    Total Energy =                       -502.5897653052645637
  Basis Set: (AUG-CC-PVTZ AUX)
    Blend: AUG-CC-PVTZ-RI
    Molecular point group: c1

    Geometry (in Angstrom), charge = 0, multiplicity = 1:

       Center              X                  Y                   Z               Mass
    ------------   -----------------  -----------------  -----------------  -----------------
         F            2.119663083655     0.904495140649     0.747165246637    18.998403162730
         F           -2.125596916345     0.904499140649    -0.772951753363    18.998403162730
         O            2.809085083655    -0.836218859351    -0.474421753363    15.994914619570
         O           -2.815018916345    -0.836219859351     0.448626246637    15.994914619570
         C            0.482645083655    -0.115477859351    -0.606700753363    12.000000000000
         C           -0.488578916345    -0.115481859351     0.580908246637    12.000000000000
         C            1.912823083655    -0.110043859351    -0.151874753363    12.000000000000
         C           -1.888588916345    -0.258017759351     0.257207846637    12.000000000000
         H            0.343352083655    -0.992786859351    -1.242114753363     1.007825032230
         H            0.316800083655     0.779847140649    -1.213455753363     1.007825032230
         H           -0.322732916345     0.779837140649     1.187671246637     1.007825032230
         H           -0.349285916345    -0.992796859351     1.216315246637     1.007825032230

  Basis Set: AUG-CC-PVTZ
    Blend: AUG-CC-PVTZ
  Basis Set: (AUG-CC-PVTZ AUX)
    Blend: AUG-CC-PVTZ-JKFIT
	 Reference Energy          =    -502.5897653052645069 [Eh]
	 Singles Energy            =      -0.0000000000000000 [Eh]
	 Same-Spin Energy          =      -0.4449219786533122 [Eh]
	 Opposite-Spin Energy      =      -1.3276551467757505 [Eh]
	 Correlation Energy        =      -1.7725771254290628 [Eh]
	 Total Energy              =    -504.3623424306935590 [Eh]

	 ================> DF-SCS-MP2 Energies <==================
	-----------------------------------------------------------
	 SCS Same-Spin Scale       =       0.3333333333333333 [-]
	 SCS Opposite-Spin Scale   =       1.2000000000000000 [-]
	 SCS Same-Spin Energy      =      -0.1483073262177707 [Eh]
	 SCS Opposite-Spin Energy  =      -1.5931861761309005 [Eh]
	 SCS Correlation Energy    =      -1.7414935023486713 [Eh]
	 SCS Total Energy          =    -504.3312588076131533 [Eh]
	-----------------------------------------------------------

  Dipole Moment: [D]
     X:     0.2140      Y:    -0.7383      Z:     1.0914     Total:     1.3349

*** Psi4 exiting successfully. Buy a developer a beer!
