                               Psi4 1.4a3.dev225

  ==> Input File <==

--------------------------------------------------------------------------
#psi4
#
memory 32 gb

molecule  {
0 1
  F        2.1226300     0.9082170     0.7600610
  F       -2.1226300     0.9082210    -0.7600560
  O        2.8120520    -0.8324970    -0.4615260
  O       -2.8120520    -0.8324980     0.4615220
  C        0.4957608    -0.0885187    -0.5852034
  C       -0.4856120    -0.1117600     0.5938040
  C        1.9157900    -0.1063220    -0.1389790
  C       -1.9157900    -0.1063230     0.1389780
  H        0.3463190    -0.9890650    -1.2292190
  H        0.3197670     0.7835690    -1.2005600
  H       -0.3197660     0.7835590     1.2005670
  H       -0.3463190    -0.9890750     1.2292110
units angstrom
no_reorient  #important for SAPT in psi4, default
symmetry c1  #important for SAPT in psi4, default
}

set PROPERTIES_ORIGIN ["COM"]
properties('MP2/aug-cc-pvtz', properties = ['dipole'])
--------------------------------------------------------------------------

    Molecular point group: c1
  Charge       = 0
  Multiplicity = 1
  Basis Set: AUG-CC-PVTZ
    Blend: AUG-CC-PVTZ
  Basis Set: (AUG-CC-PVTZ AUX)
    Blend: AUG-CC-PVTZ-JKFIT

    Orbital Energies [Eh]
    ---------------------

    Doubly Occupied:

       1A    -26.348456     2A    -26.347363     3A    -20.606229
       4A    -20.605676     5A    -11.450374     6A    -11.449970
       7A    -11.302202     8A    -11.301573     9A     -1.666806
      10A     -1.666307    11A     -1.443549    12A     -1.443154
      13A     -1.141856    14A     -1.007545    15A     -0.866347
      16A     -0.855023    17A     -0.773996    18A     -0.751595
      19A     -0.744315    20A     -0.735551    21A     -0.731253
      22A     -0.717146    23A     -0.673868    24A     -0.637940
      25A     -0.628661    26A     -0.593375    27A     -0.577237
      28A     -0.552158    29A     -0.539556    30A     -0.520974
      31A     -0.498582

  @DF-RHF Final Energy:  -502.61892158183940

   => Energetics <=

    Nuclear Repulsion Energy =            363.5233417694493596
    One-Electron Energy =               -1413.9272541773377725
    Two-Electron Energy =                 547.7849908260490110
    Total Energy =                       -502.6189215818393450
  Basis Set: (AUG-CC-PVTZ AUX)
    Blend: AUG-CC-PVTZ-RI
    Molecular point group: c1

    Geometry (in Angstrom), charge = 0, multiplicity = 1:

       Center              X                  Y                   Z               Mass
    ------------   -----------------  -----------------  -----------------  -----------------
         F            2.121631895851     0.887657268509     0.759215016137    18.998403162730
         F           -2.123628104149     0.887661268509    -0.760901983863    18.998403162730
         O            2.811053895851    -0.853056731491    -0.462371983863    15.994914619570
         O           -2.813050104149    -0.853057731491     0.460676016137    15.994914619570
         C            0.494762695851    -0.109078431491    -0.586049383863    12.000000000000
         C           -0.486610104149    -0.132319731491     0.592958016137    12.000000000000
         C            1.914791895851    -0.126881731491    -0.139824983863    12.000000000000
         C           -1.916788104149    -0.126882731491     0.138132016137    12.000000000000
         H            0.345320895851    -1.009624731491    -1.230064983863     1.007825032230
         H            0.318768895851     0.763009268509    -1.201405983863     1.007825032230
         H           -0.320764104149     0.762999268509     1.199721016137     1.007825032230
         H           -0.347317104149    -1.009634731491     1.228365016137     1.007825032230

  Basis Set: AUG-CC-PVTZ
    Blend: AUG-CC-PVTZ
  Basis Set: (AUG-CC-PVTZ AUX)
    Blend: AUG-CC-PVTZ-JKFIT
	 Reference Energy          =    -502.6189215818394018 [Eh]
	 Singles Energy            =      -0.0000000000000000 [Eh]
	 Same-Spin Energy          =      -0.4441175909392825 [Eh]
	 Opposite-Spin Energy      =      -1.3258359025516542 [Eh]
	 Correlation Energy        =      -1.7699534934909367 [Eh]
	 Total Energy              =    -504.3888750753303611 [Eh]

	 ================> DF-SCS-MP2 Energies <==================
	-----------------------------------------------------------
	 SCS Same-Spin Scale       =       0.3333333333333333 [-]
	 SCS Opposite-Spin Scale   =       1.2000000000000000 [-]
	 SCS Same-Spin Energy      =      -0.1480391969797608 [Eh]
	 SCS Opposite-Spin Energy  =      -1.5910030830619850 [Eh]
	 SCS Correlation Energy    =      -1.7390422800417458 [Eh]
	 SCS Total Energy          =    -504.3579638618811600 [Eh]
	-----------------------------------------------------------

  Dipole Moment: [D]
     X:    -0.0013      Y:     0.6085      Z:    -0.0013     Total:     0.6085

*** Psi4 exiting successfully. Buy a developer a beer!
