                               Psi4 1.4a3.dev225

  ==> Input File <==

--------------------------------------------------------------------------
#psi4
#
memory 32 gb

molecule  {
0 1
  F        2.1226300     0.9082170     0.7600610
  F       -2.1226300     0.9082210    -0.7600560
  O        2.8120520    -0.8324970    -0.4615260
  O       -2.8120520    -0.8324980     0.4615220
  C        0.4856120    -0.1117560    -0.5938050
  C       -0.4856120    -0.1117600     0.5938040
  C        2.0654451    -0.2275765    -0.1928369
  C       -1.9157900    -0.1063230     0.1389780
  H        0.3463190    -0.9890650    -1.2292190
  H        0.3197670     0.7835690    -1.2005600
  H       -0.3197660     0.7835590     1.2005670
  H       -0.3463190    -0.9890750     1.2292110
units angstrom
no_reorient  #important for SAPT in psi4, default
symmetry c1  #important for SAPT in psi4, default
}

set PROPERTIES_ORIGIN ["COM"]
properties('MP2/aug-cc-pvtz', properties = ['dipole'])
--------------------------------------------------------------------------

    Molecular point group: c1
  Charge       = 0
  Multiplicity = 1
  Basis Set: AUG-CC-PVTZ
    Blend: AUG-CC-PVTZ
  Basis Set: (AUG-CC-PVTZ AUX)
    Blend: AUG-CC-PVTZ-JKFIT

    Orbital Energies [Eh]
    ---------------------

    Doubly Occupied:

       1A    -26.341583     2A    -26.282998     3A    -20.637683
       4A    -20.598751     5A    -11.443005     6A    -11.421323
       7A    -11.299364     8A    -11.291099     9A     -1.659901
      10A     -1.642066    11A     -1.564296    12A     -1.436589
      13A     -1.117586    14A     -0.973751    15A     -0.852924
      16A     -0.828072    17A     -0.783893    18A     -0.765179
      19A     -0.745893    20A     -0.735444    21A     -0.730405
      22A     -0.717086    23A     -0.671776    24A     -0.624243
      25A     -0.620675    26A     -0.617760    27A     -0.583734
      28A     -0.559207    29A     -0.536177    30A     -0.516424
      31A     -0.480022

  @DF-RHF Final Energy:  -502.53438434905581

   => Energetics <=

    Nuclear Repulsion Energy =            363.7097184844248545
    One-Electron Energy =               -1414.3303886722194420
    Two-Electron Energy =                 548.0862858387387178
    Total Energy =                       -502.5343843490558129
  Basis Set: (AUG-CC-PVTZ AUX)
    Blend: AUG-CC-PVTZ-RI
    Molecular point group: c1

    Geometry (in Angstrom), charge = 0, multiplicity = 1:

       Center              X                  Y                   Z               Mass
    ------------   -----------------  -----------------  -----------------  -----------------
         F            2.107911981722     0.901867487606     0.765357670459    18.998403162730
         F           -2.137348018278     0.901871487606    -0.754759329541    18.998403162730
         O            2.797333981722    -0.838846512394    -0.456229329541    15.994914619570
         O           -2.826770018278    -0.838847512394     0.466818670459    15.994914619570
         C            0.470893981722    -0.118105512394    -0.588508329541    12.000000000000
         C           -0.500330018278    -0.118109512394     0.599100670459    12.000000000000
         C            2.050727081722    -0.233926012394    -0.187540229541    12.000000000000
         C           -1.930508018278    -0.112672512394     0.144274670459    12.000000000000
         H            0.331600981722    -0.995414512394    -1.223922329541     1.007825032230
         H            0.305048981722     0.777219487606    -1.195263329541     1.007825032230
         H           -0.334484018278     0.777209487606     1.205863670459     1.007825032230
         H           -0.361037018278    -0.995424512394     1.234507670459     1.007825032230

  Basis Set: AUG-CC-PVTZ
    Blend: AUG-CC-PVTZ
  Basis Set: (AUG-CC-PVTZ AUX)
    Blend: AUG-CC-PVTZ-JKFIT
	 Reference Energy          =    -502.5343843490558129 [Eh]
	 Singles Energy            =      -0.0000000000000000 [Eh]
	 Same-Spin Energy          =      -0.4400267565708851 [Eh]
	 Opposite-Spin Energy      =      -1.3179011077551885 [Eh]
	 Correlation Energy        =      -1.7579278643260736 [Eh]
	 Total Energy              =    -504.2923122133818765 [Eh]

	 ================> DF-SCS-MP2 Energies <==================
	-----------------------------------------------------------
	 SCS Same-Spin Scale       =       0.3333333333333333 [-]
	 SCS Opposite-Spin Scale   =       1.2000000000000000 [-]
	 SCS Same-Spin Energy      =      -0.1466755855236284 [Eh]
	 SCS Opposite-Spin Energy  =      -1.5814813293062262 [Eh]
	 SCS Correlation Energy    =      -1.7281569148298546 [Eh]
	 SCS Total Energy          =    -504.2625412638856801 [Eh]
	-----------------------------------------------------------

  Dipole Moment: [D]
     X:     1.1295      Y:    -0.5742      Z:    -0.6780     Total:     1.4371

*** Psi4 exiting successfully. Buy a developer a beer!
