                               Psi4 1.4a3.dev225

  ==> Input File <==

--------------------------------------------------------------------------
#psi4
#
memory 32 gb

molecule  {
0 1
  F        2.1226300     0.9082170     0.7600610
  F       -2.1226300     0.9082210    -0.7600560
  O        2.8120520    -0.8324970    -0.4615260
  O       -2.8120520    -0.8324980     0.4615220
  C        0.4856120    -0.1117560    -0.5938050
  C       -0.4856120    -0.1117600     0.5938040
  C        1.9157900    -0.1063220    -0.1389790
  C       -1.9459580     0.0416499     0.0078524
  H        0.3463190    -0.9890650    -1.2292190
  H        0.3197670     0.7835690    -1.2005600
  H       -0.3197660     0.7835590     1.2005670
  H       -0.3463190    -0.9890750     1.2292110
units angstrom
no_reorient  #important for SAPT in psi4, default
symmetry c1  #important for SAPT in psi4, default
}

set PROPERTIES_ORIGIN ["COM"]
properties('MP2/aug-cc-pvtz', properties = ['dipole'])
--------------------------------------------------------------------------

    Molecular point group: c1
  Charge       = 0
  Multiplicity = 1
  Basis Set: AUG-CC-PVTZ
    Blend: AUG-CC-PVTZ
  Basis Set: (AUG-CC-PVTZ AUX)
    Blend: AUG-CC-PVTZ-JKFIT

    Orbital Energies [Eh]
    ---------------------

    Doubly Occupied:

       1A    -26.433921     2A    -26.346086     3A    -20.602960
       4A    -20.571282     5A    -11.461385     6A    -11.447253
       7A    -11.298457     8A    -11.296862     9A     -1.828080
      10A     -1.664374    11A     -1.440665    12A     -1.351713
      13A     -1.131575    14A     -1.008152    15A     -0.951096
      16A     -0.859243    17A     -0.845811    18A     -0.836681
      19A     -0.756759    20A     -0.739534    21A     -0.729937
      22A     -0.708743    23A     -0.673062    24A     -0.630683
      25A     -0.596319    26A     -0.582226    27A     -0.568613
      28A     -0.543503    29A     -0.511598    30A     -0.489011
      31A     -0.463669

  @DF-RHF Final Energy:  -502.56751665879807

   => Energetics <=

    Nuclear Repulsion Energy =            364.2455167662537292
    One-Electron Energy =               -1414.8875565851781175
    Two-Electron Energy =                 548.0745231601263185
    Total Energy =                       -502.5675166587980129
  Basis Set: (AUG-CC-PVTZ AUX)
    Blend: AUG-CC-PVTZ-RI
    Molecular point group: c1

    Geometry (in Angstrom), charge = 0, multiplicity = 1:

       Center              X                  Y                   Z               Mass
    ------------   -----------------  -----------------  -----------------  -----------------
         F            2.125596899826     0.875389996558     0.772956654942    18.998403162730
         F           -2.119663100174     0.875393996558    -0.747160345058    18.998403162730
         O            2.815018899826    -0.865324003442    -0.448630345058    15.994914619570
         O           -2.809085100174    -0.865325003442     0.474417654942    15.994914619570
         C            0.488578899826    -0.144583003442    -0.580909345058    12.000000000000
         C           -0.482645100174    -0.144587003442     0.606699654942    12.000000000000
         C            1.918756899826    -0.139149003442    -0.126083345058    12.000000000000
         C           -1.942991100174     0.008822896558     0.020748054942    12.000000000000
         H            0.349285899826    -1.021892003442    -1.216323345058     1.007825032230
         H            0.322733899826     0.750741996558    -1.187664345058     1.007825032230
         H           -0.316799100174     0.750731996558     1.213462654942     1.007825032230
         H           -0.343352100174    -1.021902003442     1.242106654942     1.007825032230

  Basis Set: AUG-CC-PVTZ
    Blend: AUG-CC-PVTZ
  Basis Set: (AUG-CC-PVTZ AUX)
    Blend: AUG-CC-PVTZ-JKFIT
	 Reference Energy          =    -502.5675166587980698 [Eh]
	 Singles Energy            =      -0.0000000000000000 [Eh]
	 Same-Spin Energy          =      -0.4445468687633116 [Eh]
	 Opposite-Spin Energy      =      -1.3258825527532805 [Eh]
	 Correlation Energy        =      -1.7704294215165921 [Eh]
	 Total Energy              =    -504.3379460803146799 [Eh]

	 ================> DF-SCS-MP2 Energies <==================
	-----------------------------------------------------------
	 SCS Same-Spin Scale       =       0.3333333333333333 [-]
	 SCS Opposite-Spin Scale   =       1.2000000000000000 [-]
	 SCS Same-Spin Energy      =      -0.1481822895877705 [Eh]
	 SCS Opposite-Spin Energy  =      -1.5910590633039365 [Eh]
	 SCS Correlation Energy    =      -1.7392413528917070 [Eh]
	 SCS Total Energy          =    -504.3067580116897943 [Eh]
	-----------------------------------------------------------

  Dipole Moment: [D]
     X:    -0.1735      Y:     1.8376      Z:    -0.9960     Total:     2.0973

*** Psi4 exiting successfully. Buy a developer a beer!
