                               Psi4 1.4a3.dev225

  ==> Input File <==

--------------------------------------------------------------------------
#psi4
#
memory 32 gb

molecule  {
0 1
  F        1.9837189     0.9405917     0.7440287
  F       -2.1226300     0.9082210    -0.7600560
  O        2.8120520    -0.8324970    -0.4615260
  O       -2.8120520    -0.8324980     0.4615220
  C        0.4856120    -0.1117560    -0.5938050
  C       -0.4856120    -0.1117600     0.5938040
  C        1.9157900    -0.1063220    -0.1389790
  C       -1.9157900    -0.1063230     0.1389780
  H        0.3463190    -0.9890650    -1.2292190
  H        0.3197670     0.7835690    -1.2005600
  H       -0.3197660     0.7835590     1.2005670
  H       -0.3463190    -0.9890750     1.2292110
units angstrom
no_reorient  #important for SAPT in psi4, default
symmetry c1  #important for SAPT in psi4, default
}

set PROPERTIES_ORIGIN ["COM"]
properties('MP2/aug-cc-pvtz', properties = ['dipole'])
--------------------------------------------------------------------------

    Molecular point group: c1
  Charge       = 0
  Multiplicity = 1
  Basis Set: AUG-CC-PVTZ
    Blend: AUG-CC-PVTZ
  Basis Set: (AUG-CC-PVTZ AUX)
    Blend: AUG-CC-PVTZ-JKFIT

    Orbital Energies [Eh]
    ---------------------

    Doubly Occupied:

       1A    -26.352448     2A    -26.346277     3A    -20.612486
       4A    -20.603274     5A    -11.453458     6A    -11.447727
       7A    -11.298607     8A    -11.295932     9A     -1.671436
      10A     -1.664550    11A     -1.449016    12A     -1.440944
      13A     -1.137941    14A     -1.004500    15A     -0.867702
      16A     -0.854214    17A     -0.774853    18A     -0.754305
      19A     -0.743839    20A     -0.736688    21A     -0.728938
      22A     -0.717548    23A     -0.673336    24A     -0.635407
      25A     -0.627557    26A     -0.591572    27A     -0.577560
      28A     -0.553817    29A     -0.539644    30A     -0.520884
      31A     -0.495628

  @DF-RHF Final Energy:  -502.61505420384816

   => Energetics <=

    Nuclear Repulsion Energy =            364.7499120030671520
    One-Electron Energy =               -1416.3857497461124240
    Two-Electron Energy =                 549.0207835391969411
    Total Energy =                       -502.6150542038482172
  Basis Set: (AUG-CC-PVTZ AUX)
    Blend: AUG-CC-PVTZ-RI
    Molecular point group: c1

    Geometry (in Angstrom), charge = 0, multiplicity = 1:

       Center              X                  Y                   Z               Mass
    ------------   -----------------  -----------------  -----------------  -----------------
         F            2.005347589739     0.917276471942     0.746524907568    18.998403162730
         F           -2.101001310261     0.884905771942    -0.757559792432    18.998403162730
         O            2.833680689739    -0.855812228058    -0.459029792432    15.994914619570
         O           -2.790423310261    -0.855813228058     0.464018207568    15.994914619570
         C            0.507240689739    -0.135071228058    -0.591308792432    12.000000000000
         C           -0.463983310261    -0.135075228058     0.596300207568    12.000000000000
         C            1.937418689739    -0.129637228058    -0.136482792432    12.000000000000
         C           -1.894161310261    -0.129638228058     0.141474207568    12.000000000000
         H            0.367947689739    -1.012380228058    -1.226722792432     1.007825032230
         H            0.341395689739     0.760253771942    -1.198063792432     1.007825032230
         H           -0.298137310261     0.760243771942     1.203063207568     1.007825032230
         H           -0.324690310261    -1.012390228058     1.231707207568     1.007825032230

  Basis Set: AUG-CC-PVTZ
    Blend: AUG-CC-PVTZ
  Basis Set: (AUG-CC-PVTZ AUX)
    Blend: AUG-CC-PVTZ-JKFIT
	 Reference Energy          =    -502.6150542038481603 [Eh]
	 Singles Energy            =      -0.0000000000000000 [Eh]
	 Same-Spin Energy          =      -0.4445466495219392 [Eh]
	 Opposite-Spin Energy      =      -1.3265394211875603 [Eh]
	 Correlation Energy        =      -1.7710860707094995 [Eh]
	 Total Energy              =    -504.3861402745576470 [Eh]

	 ================> DF-SCS-MP2 Energies <==================
	-----------------------------------------------------------
	 SCS Same-Spin Scale       =       0.3333333333333333 [-]
	 SCS Opposite-Spin Scale   =       1.2000000000000000 [-]
	 SCS Same-Spin Energy      =      -0.1481822165073131 [Eh]
	 SCS Opposite-Spin Energy  =      -1.5918473054250724 [Eh]
	 SCS Correlation Energy    =      -1.7400295219323854 [Eh]
	 SCS Total Energy          =    -504.3550837257805597 [Eh]
	-----------------------------------------------------------

  Dipole Moment: [D]
     X:     0.3089      Y:     0.5823      Z:     0.0419     Total:     0.6605

*** Psi4 exiting successfully. Buy a developer a beer!
