                               Psi4 1.4a3.dev225

  ==> Input File <==

--------------------------------------------------------------------------
#psi4
#
memory 32 gb

molecule  {
0 1
  F        2.1226300     0.9082170     0.7600610
  F       -2.1226300     0.9082210    -0.7600560
  O        2.8120520    -0.8324970    -0.4615260
  O       -2.8120520    -0.8324980     0.4615220
  C        0.4856120    -0.1117560    -0.5938050
  C       -0.4856120    -0.1117600     0.5938040
  C        1.9157900    -0.1063220    -0.1389790
  C       -1.9157900    -0.1063230     0.1389780
  H        0.3463190    -0.9890650    -1.2292190
  H        0.3197670     0.7835690    -1.2005600
  H       -0.3500798     0.6199101     1.0896612
  H       -0.3463190    -0.9890750     1.2292110
units angstrom
no_reorient  #important for SAPT in psi4, default
symmetry c1  #important for SAPT in psi4, default
}

set PROPERTIES_ORIGIN ["COM"]
properties('MP2/aug-cc-pvtz', properties = ['dipole'])
--------------------------------------------------------------------------

    Molecular point group: c1
  Charge       = 0
  Multiplicity = 1
  Basis Set: AUG-CC-PVTZ
    Blend: AUG-CC-PVTZ
  Basis Set: (AUG-CC-PVTZ AUX)
    Blend: AUG-CC-PVTZ-JKFIT

    Orbital Energies [Eh]
    ---------------------

    Doubly Occupied:

       1A    -26.349131     2A    -26.348592     3A    -20.605868
       4A    -20.605311     5A    -11.449895     6A    -11.449822
       7A    -11.300919     8A    -11.279918     9A     -1.667434
      10A     -1.666709    11A     -1.443373    12A     -1.442834
      13A     -1.153121    14A     -1.014861    15A     -0.869916
      16A     -0.861982    17A     -0.781367    18A     -0.754182
      19A     -0.744888    20A     -0.736939    21A     -0.734200
      22A     -0.719897    23A     -0.686530    24A     -0.639608
      25A     -0.628988    26A     -0.597002    27A     -0.586475
      28A     -0.556244    29A     -0.541420    30A     -0.522012
      31A     -0.497255

  @DF-RHF Final Energy:  -502.58622913291038

   => Energetics <=

    Nuclear Repulsion Energy =            364.4431246501223427
    One-Electron Energy =               -1415.5853221753757225
    Two-Electron Energy =                 548.5559683923429475
    Total Energy =                       -502.5862291329103755
  Basis Set: (AUG-CC-PVTZ AUX)
    Blend: AUG-CC-PVTZ-RI
    Molecular point group: c1

    Geometry (in Angstrom), charge = 0, multiplicity = 1:

       Center              X                  Y                   Z               Mass
    ------------   -----------------  -----------------  -----------------  -----------------
         F            2.122880373017     0.891294250690     0.760976993508    18.998403162730
         F           -2.122379626983     0.891298250690    -0.759140006492    18.998403162730
         O            2.812302373017    -0.849419749310    -0.460610006492    15.994914619570
         O           -2.811801626983    -0.849420749310     0.462437993508    15.994914619570
         C            0.485862373017    -0.128678749310    -0.592889006492    12.000000000000
         C           -0.485361626983    -0.128682749310     0.594719993508    12.000000000000
         C            1.916040373017    -0.123244749310    -0.138063006492    12.000000000000
         C           -1.915539626983    -0.123245749310     0.139893993508    12.000000000000
         H            0.346569373017    -1.005987749310    -1.228303006492     1.007825032230
         H            0.320017373017     0.766646250690    -1.199644006492     1.007825032230
         H           -0.349829426983     0.602987350690     1.090577193508     1.007825032230
         H           -0.346068626983    -1.005997749310     1.230126993508     1.007825032230

  Basis Set: AUG-CC-PVTZ
    Blend: AUG-CC-PVTZ
  Basis Set: (AUG-CC-PVTZ AUX)
    Blend: AUG-CC-PVTZ-JKFIT
	 Reference Energy          =    -502.5862291329103755 [Eh]
	 Singles Energy            =      -0.0000000000000000 [Eh]
	 Same-Spin Energy          =      -0.4439041576286469 [Eh]
	 Opposite-Spin Energy      =      -1.3250537377280498 [Eh]
	 Correlation Energy        =      -1.7689578953566967 [Eh]
	 Total Energy              =    -504.3551870282670961 [Eh]

	 ================> DF-SCS-MP2 Energies <==================
	-----------------------------------------------------------
	 SCS Same-Spin Scale       =       0.3333333333333333 [-]
	 SCS Opposite-Spin Scale   =       1.2000000000000000 [-]
	 SCS Same-Spin Energy      =      -0.1479680525428823 [Eh]
	 SCS Opposite-Spin Energy  =      -1.5900644852736596 [Eh]
	 SCS Correlation Energy    =      -1.7380325378165420 [Eh]
	 SCS Total Energy          =    -504.3242616707269121 [Eh]
	-----------------------------------------------------------

  Dipole Moment: [D]
     X:    -0.0375      Y:     0.5759      Z:    -0.0118     Total:     0.5772

*** Psi4 exiting successfully. Buy a developer a beer!
