                               Psi4 1.4a3.dev225

  ==> Input File <==

--------------------------------------------------------------------------
#psi4
#
memory 32 gb

molecule  {
0 1
  F        2.1226300     0.9082170     0.7600610
  F       -2.1226300     0.9082210    -0.7600560
  O        2.8120520    -0.8324970    -0.4615260
  O       -2.8120520    -0.8324980     0.4615220
  C        0.4856120    -0.1117560    -0.5938050
  C       -0.4856120    -0.1117600     0.5938040
  C        1.9157900    -0.1063220    -0.1389790
  C       -1.9157900    -0.1063230     0.1389780
  H        0.3463190    -0.9890650    -1.2292190
  H        0.3197670     0.7835690    -1.2005600
  H       -0.3227974     0.7671941     1.1894764
  H       -0.3463190    -0.9890750     1.2292110
units angstrom
no_reorient  #important for SAPT in psi4, default
symmetry c1  #important for SAPT in psi4, default
}

set PROPERTIES_ORIGIN ["COM"]
properties('MP2/aug-cc-pvtz', properties = ['dipole'])
--------------------------------------------------------------------------

    Molecular point group: c1
  Charge       = 0
  Multiplicity = 1
  Basis Set: AUG-CC-PVTZ
    Blend: AUG-CC-PVTZ
  Basis Set: (AUG-CC-PVTZ AUX)
    Blend: AUG-CC-PVTZ-JKFIT

    Orbital Energies [Eh]
    ---------------------

    Doubly Occupied:

       1A    -26.348332     2A    -26.348295     3A    -20.605411
       4A    -20.605377     5A    -11.449934     6A    -11.449904
       7A    -11.301675     8A    -11.299587     9A     -1.666772
      10A     -1.666394    11A     -1.443080    12A     -1.442823
      13A     -1.141890    14A     -1.006187    15A     -0.866279
      16A     -0.856240    17A     -0.774031    18A     -0.752046
      19A     -0.743437    20A     -0.735430    21A     -0.731013
      22A     -0.717420    23A     -0.675268    24A     -0.637700
      25A     -0.627898    26A     -0.594778    27A     -0.581028
      28A     -0.552910    29A     -0.539876    30A     -0.520681
      31A     -0.496916

  @DF-RHF Final Energy:  -502.62005110442874

   => Energetics <=

    Nuclear Repulsion Energy =            363.4666632125830574
    One-Electron Energy =               -1413.8162063872180170
    Two-Electron Energy =                 547.7294920702063337
    Total Energy =                       -502.6200511044287396
  Basis Set: (AUG-CC-PVTZ AUX)
    Blend: AUG-CC-PVTZ-RI
    Molecular point group: c1

    Geometry (in Angstrom), charge = 0, multiplicity = 1:

       Center              X                  Y                   Z               Mass
    ------------   -----------------  -----------------  -----------------  -----------------
         F            2.122655030033     0.890077736895     0.760152555227    18.998403162730
         F           -2.122604969967     0.890081736895    -0.759964444773    18.998403162730
         O            2.812077030033    -0.850636263105    -0.461434444773    15.994914619570
         O           -2.812026969967    -0.850637263105     0.461613555227    15.994914619570
         C            0.485637030033    -0.129895263105    -0.593713444773    12.000000000000
         C           -0.485586969967    -0.129899263105     0.593895555227    12.000000000000
         C            1.915815030033    -0.124461263105    -0.138887444773    12.000000000000
         C           -1.915764969967    -0.124462263105     0.139069555227    12.000000000000
         H            0.346344030033    -1.007204263105    -1.229127444773     1.007825032230
         H            0.319792030033     0.765429736895    -1.200468444773     1.007825032230
         H           -0.322772369967     0.749054836895     1.189567955227     1.007825032230
         H           -0.346293969967    -1.007214263105     1.229302555227     1.007825032230

  Basis Set: AUG-CC-PVTZ
    Blend: AUG-CC-PVTZ
  Basis Set: (AUG-CC-PVTZ AUX)
    Blend: AUG-CC-PVTZ-JKFIT
	 Reference Energy          =    -502.6200511044287396 [Eh]
	 Singles Energy            =      -0.0000000000000000 [Eh]
	 Same-Spin Energy          =      -0.4439682773536880 [Eh]
	 Opposite-Spin Energy      =      -1.3254892631261015 [Eh]
	 Correlation Energy        =      -1.7694575404797894 [Eh]
	 Total Energy              =    -504.3895086449085170 [Eh]

	 ================> DF-SCS-MP2 Energies <==================
	-----------------------------------------------------------
	 SCS Same-Spin Scale       =       0.3333333333333333 [-]
	 SCS Opposite-Spin Scale   =       1.2000000000000000 [-]
	 SCS Same-Spin Energy      =      -0.1479894257845627 [Eh]
	 SCS Opposite-Spin Energy  =      -1.5905871157513218 [Eh]
	 SCS Correlation Energy    =      -1.7385765415358845 [Eh]
	 SCS Total Energy          =    -504.3586276459646456 [Eh]
	-----------------------------------------------------------

  Dipole Moment: [D]
     X:    -0.0037      Y:     0.6020      Z:    -0.0002     Total:     0.6020

*** Psi4 exiting successfully. Buy a developer a beer!
