                               Psi4 1.4a3.dev225

  ==> Input File <==

--------------------------------------------------------------------------
#psi4
#
memory 32 gb

molecule  {
0 1
  F        2.1226300     0.9082170     0.7600610
  F       -2.1226300     0.9082210    -0.7600560
  O        2.8120520    -0.8324970    -0.4615260
  O       -2.8120520    -0.8324980     0.4615220
  C        0.4856120    -0.1117560    -0.5938050
  C       -0.4856120    -0.1117600     0.5938040
  C        1.9157900    -0.1063220    -0.1389790
  C       -1.9228176    -0.0611947     0.1646321
  H        0.3463190    -0.9890650    -1.2292190
  H        0.3197670     0.7835690    -1.2005600
  H       -0.3197660     0.7835590     1.2005670
  H       -0.3463190    -0.9890750     1.2292110
units angstrom
no_reorient  #important for SAPT in psi4, default
symmetry c1  #important for SAPT in psi4, default
}

set PROPERTIES_ORIGIN ["COM"]
properties('MP2/aug-cc-pvtz', properties = ['dipole'])
--------------------------------------------------------------------------

    Molecular point group: c1
  Charge       = 0
  Multiplicity = 1
  Basis Set: AUG-CC-PVTZ
    Blend: AUG-CC-PVTZ
  Basis Set: (AUG-CC-PVTZ AUX)
    Blend: AUG-CC-PVTZ-JKFIT

    Orbital Energies [Eh]
    ---------------------

    Doubly Occupied:

       1A    -26.356034     2A    -26.348286     3A    -20.605724
       4A    -20.601898     5A    -11.451720     6A    -11.450313
       7A    -11.302378     8A    -11.301234     9A     -1.678189
      10A     -1.666575    11A     -1.443218    12A     -1.429923
      13A     -1.140731    14A     -1.006587    15A     -0.871099
      16A     -0.857625    17A     -0.775752    18A     -0.755017
      19A     -0.743681    20A     -0.737195    21A     -0.733455
      22A     -0.716796    23A     -0.673464    24A     -0.636341
      25A     -0.627418    26A     -0.593860    27A     -0.580259
      28A     -0.549911    29A     -0.535223    30A     -0.518102
      31A     -0.495775

  @DF-RHF Final Energy:  -502.61734408725556

   => Energetics <=

    Nuclear Repulsion Energy =            363.2771115181949426
    One-Electron Energy =               -1413.4213410780182585
    Two-Electron Energy =                 547.5268854725677556
    Total Energy =                       -502.6173440872555602
  Basis Set: (AUG-CC-PVTZ AUX)
    Blend: AUG-CC-PVTZ-RI
    Molecular point group: c1

    Geometry (in Angstrom), charge = 0, multiplicity = 1:

       Center              X                  Y                   Z               Mass
    ------------   -----------------  -----------------  -----------------  -----------------
         F            2.123321129478     0.885504371900     0.757537967605    18.998403162730
         F           -2.121938870522     0.885508371900    -0.762579032395    18.998403162730
         O            2.812743129478    -0.855209628100    -0.464049032395    15.994914619570
         O           -2.811360870522    -0.855210628100     0.458998967605    15.994914619570
         C            0.486303129478    -0.134468628100    -0.596328032395    12.000000000000
         C           -0.484920870522    -0.134472628100     0.591280967605    12.000000000000
         C            1.916481129478    -0.129034628100    -0.141502032395    12.000000000000
         C           -1.922126470522    -0.083907328100     0.162109067605    12.000000000000
         H            0.347010129478    -1.011777628100    -1.231742032395     1.007825032230
         H            0.320458129478     0.760856371900    -1.203083032395     1.007825032230
         H           -0.319074870522     0.760846371900     1.198043967605     1.007825032230
         H           -0.345627870522    -1.011787628100     1.226687967605     1.007825032230

  Basis Set: AUG-CC-PVTZ
    Blend: AUG-CC-PVTZ
  Basis Set: (AUG-CC-PVTZ AUX)
    Blend: AUG-CC-PVTZ-JKFIT
	 Reference Energy          =    -502.6173440872555602 [Eh]
	 Singles Energy            =      -0.0000000000000000 [Eh]
	 Same-Spin Energy          =      -0.4442345790676965 [Eh]
	 Opposite-Spin Energy      =      -1.3260499641636467 [Eh]
	 Correlation Energy        =      -1.7702845432313432 [Eh]
	 Total Energy              =    -504.3876286304869154 [Eh]

	 ================> DF-SCS-MP2 Energies <==================
	-----------------------------------------------------------
	 SCS Same-Spin Scale       =       0.3333333333333333 [-]
	 SCS Opposite-Spin Scale   =       1.2000000000000000 [-]
	 SCS Same-Spin Energy      =      -0.1480781930225655 [Eh]
	 SCS Opposite-Spin Energy  =      -1.5912599569963761 [Eh]
	 SCS Correlation Energy    =      -1.7393381500189415 [Eh]
	 SCS Total Energy          =    -504.3566822372745264 [Eh]
	-----------------------------------------------------------

  Dipole Moment: [D]
     X:     0.0239      Y:     0.7696      Z:    -0.0461     Total:     0.7713

*** Psi4 exiting successfully. Buy a developer a beer!
