                               Psi4 1.4a3.dev225

  ==> Input File <==

--------------------------------------------------------------------------
#psi4
#
memory 32 gb

molecule  {
0 1
  F        2.1226300     0.9082170     0.7600610
  F       -2.1226300     0.9082210    -0.7600560
  O        2.8120520    -0.8324970    -0.4615260
  O       -2.8120520    -0.8324980     0.4615220
  C        0.4856120    -0.1117560    -0.5938050
  C       -0.4856120    -0.1117600     0.5938040
  C        1.9157900    -0.1063220    -0.1389790
  C       -1.8817881     0.0255989     0.0607654
  H        0.3463190    -0.9890650    -1.2292190
  H        0.3197670     0.7835690    -1.2005600
  H       -0.3197660     0.7835590     1.2005670
  H       -0.3463190    -0.9890750     1.2292110
units angstrom
no_reorient  #important for SAPT in psi4, default
symmetry c1  #important for SAPT in psi4, default
}

set PROPERTIES_ORIGIN ["COM"]
properties('MP2/aug-cc-pvtz', properties = ['dipole'])
--------------------------------------------------------------------------

    Molecular point group: c1
  Charge       = 0
  Multiplicity = 1
  Basis Set: AUG-CC-PVTZ
    Blend: AUG-CC-PVTZ
  Basis Set: (AUG-CC-PVTZ AUX)
    Blend: AUG-CC-PVTZ-JKFIT

    Orbital Energies [Eh]
    ---------------------

    Doubly Occupied:

       1A    -26.411597     2A    -26.349540     3A    -20.606625
       4A    -20.575045     5A    -11.461589     6A    -11.451141
       7A    -11.304001     8A    -11.301542     9A     -1.776737
      10A     -1.667813    11A     -1.444138    12A     -1.345260
      13A     -1.144595    14A     -1.012054    15A     -0.929239
      16A     -0.861967    17A     -0.819092    18A     -0.806385
      19A     -0.758685    20A     -0.742508    21A     -0.735522
      22A     -0.711819    23A     -0.678501    24A     -0.635522
      25A     -0.600690    26A     -0.595427    27A     -0.574927
      28A     -0.546831    29A     -0.514344    30A     -0.485011
      31A     -0.474692

  @DF-RHF Final Energy:  -502.58090115610560

   => Energetics <=

    Nuclear Repulsion Energy =            364.0443459097778600
    One-Electron Energy =               -1414.6048218093110336
    Two-Electron Energy =                 547.9795747434276336
    Total Energy =                       -502.5809011561055968
  Basis Set: (AUG-CC-PVTZ AUX)
    Blend: AUG-CC-PVTZ-RI
    Molecular point group: c1

    Geometry (in Angstrom), charge = 0, multiplicity = 1:

       Center              X                  Y                   Z               Mass
    ------------   -----------------  -----------------  -----------------  -----------------
         F            2.119286034168     0.876968551374     0.767752862595    18.998403162730
         F           -2.125973965832     0.876972551374    -0.752364137405    18.998403162730
         O            2.808708034168    -0.863745448626    -0.453834137405    15.994914619570
         O           -2.815395965832    -0.863746448626     0.469213862595    15.994914619570
         C            0.482268034168    -0.143004448626    -0.586113137405    12.000000000000
         C           -0.488955965832    -0.143008448626     0.601495862595    12.000000000000
         C            1.912446034168    -0.137570448626    -0.131287137405    12.000000000000
         C           -1.885132065832    -0.005649548626     0.068457262595    12.000000000000
         H            0.342975034168    -1.020313448626    -1.221527137405     1.007825032230
         H            0.316423034168     0.752320551374    -1.192868137405     1.007825032230
         H           -0.323109965832     0.752310551374     1.208258862595     1.007825032230
         H           -0.349662965832    -1.020323448626     1.236902862595     1.007825032230

  Basis Set: AUG-CC-PVTZ
    Blend: AUG-CC-PVTZ
  Basis Set: (AUG-CC-PVTZ AUX)
    Blend: AUG-CC-PVTZ-JKFIT
	 Reference Energy          =    -502.5809011561055968 [Eh]
	 Singles Energy            =      -0.0000000000000000 [Eh]
	 Same-Spin Energy          =      -0.4458686172558257 [Eh]
	 Opposite-Spin Energy      =      -1.3287537216259859 [Eh]
	 Correlation Energy        =      -1.7746223388818116 [Eh]
	 Total Energy              =    -504.3555234949873807 [Eh]

	 ================> DF-SCS-MP2 Energies <==================
	-----------------------------------------------------------
	 SCS Same-Spin Scale       =       0.3333333333333333 [-]
	 SCS Opposite-Spin Scale   =       1.2000000000000000 [-]
	 SCS Same-Spin Energy      =      -0.1486228724186086 [Eh]
	 SCS Opposite-Spin Energy  =      -1.5945044659511831 [Eh]
	 SCS Correlation Energy    =      -1.7431273383697916 [Eh]
	 SCS Total Energy          =    -504.3240284944753853 [Eh]
	-----------------------------------------------------------

  Dipole Moment: [D]
     X:     0.2516      Y:     1.5895      Z:    -0.6959     Total:     1.7533

*** Psi4 exiting successfully. Buy a developer a beer!
