                               Psi4 1.4a3.dev225

  ==> Input File <==

--------------------------------------------------------------------------
#psi4
#
memory 32 gb

molecule  {
0 1
  F        2.1226300     0.9082170     0.7600610
  F       -2.1226300     0.9082210    -0.7600560
  O        2.8120520    -0.8324970    -0.4615260
  O       -2.8120520    -0.8324980     0.4615220
  C        0.4856120    -0.1117560    -0.5938050
  C       -0.4856120    -0.1117600     0.5938040
  C        1.9157900    -0.1063220    -0.1389790
  C       -1.9112032    -0.0842928     0.1255726
  H        0.3463190    -0.9890650    -1.2292190
  H        0.3197670     0.7835690    -1.2005600
  H       -0.3197660     0.7835590     1.2005670
  H       -0.3463190    -0.9890750     1.2292110
units angstrom
no_reorient  #important for SAPT in psi4, default
symmetry c1  #important for SAPT in psi4, default
}

set PROPERTIES_ORIGIN ["COM"]
properties('MP2/aug-cc-pvtz', properties = ['dipole'])
--------------------------------------------------------------------------

    Molecular point group: c1
  Charge       = 0
  Multiplicity = 1
  Basis Set: AUG-CC-PVTZ
    Blend: AUG-CC-PVTZ
  Basis Set: (AUG-CC-PVTZ AUX)
    Blend: AUG-CC-PVTZ-JKFIT

    Orbital Energies [Eh]
    ---------------------

    Doubly Occupied:

       1A    -26.359318     2A    -26.348383     3A    -20.605511
       4A    -20.600598     5A    -11.451894     6A    -11.450061
       7A    -11.302089     8A    -11.301172     9A     -1.683489
      10A     -1.666656    11A     -1.443068    12A     -1.426347
      13A     -1.141419    14A     -1.005883    15A     -0.873698
      16A     -0.858455    17A     -0.777913    18A     -0.756507
      19A     -0.744603    20A     -0.737533    21A     -0.734443
      22A     -0.717342    23A     -0.673636    24A     -0.637234
      25A     -0.625431    26A     -0.594969    27A     -0.579530
      28A     -0.549760    29A     -0.533978    30A     -0.517989
      31A     -0.494815

  @DF-RHF Final Energy:  -502.61799166215877

   => Energetics <=

    Nuclear Repulsion Energy =            363.4409906883091139
    One-Electron Energy =               -1413.7305183251958169
    Two-Electron Energy =                 547.6715359747279308
    Total Energy =                       -502.6179916621588291
  Basis Set: (AUG-CC-PVTZ AUX)
    Blend: AUG-CC-PVTZ-RI
    Molecular point group: c1

    Geometry (in Angstrom), charge = 0, multiplicity = 1:

       Center              X                  Y                   Z               Mass
    ------------   -----------------  -----------------  -----------------  -----------------
         F            2.122178897402     0.887775982204     0.761379320905    18.998403162730
         F           -2.123081102598     0.887779982204    -0.758737679095    18.998403162730
         O            2.811600897402    -0.852938017796    -0.460207679095    15.994914619570
         O           -2.812503102598    -0.852939017796     0.462840320905    15.994914619570
         C            0.485160897402    -0.132197017796    -0.592486679095    12.000000000000
         C           -0.486063102598    -0.132201017796     0.595122320905    12.000000000000
         C            1.915338897402    -0.126763017796    -0.137660679095    12.000000000000
         C           -1.911654302598    -0.104733817796     0.126890920905    12.000000000000
         H            0.345867897402    -1.009506017796    -1.227900679095     1.007825032230
         H            0.319315897402     0.763127982204    -1.199241679095     1.007825032230
         H           -0.320217102598     0.763117982204     1.201885320905     1.007825032230
         H           -0.346770102598    -1.009516017796     1.230529320905     1.007825032230

  Basis Set: AUG-CC-PVTZ
    Blend: AUG-CC-PVTZ
  Basis Set: (AUG-CC-PVTZ AUX)
    Blend: AUG-CC-PVTZ-JKFIT
	 Reference Energy          =    -502.6179916621587722 [Eh]
	 Singles Energy            =      -0.0000000000000000 [Eh]
	 Same-Spin Energy          =      -0.4442141294708296 [Eh]
	 Opposite-Spin Energy      =      -1.3259809932750768 [Eh]
	 Correlation Energy        =      -1.7701951227459065 [Eh]
	 Total Energy              =    -504.3881867849046898 [Eh]

	 ================> DF-SCS-MP2 Energies <==================
	-----------------------------------------------------------
	 SCS Same-Spin Scale       =       0.3333333333333333 [-]
	 SCS Opposite-Spin Scale   =       1.2000000000000000 [-]
	 SCS Same-Spin Energy      =      -0.1480713764902765 [Eh]
	 SCS Opposite-Spin Energy  =      -1.5911771919300921 [Eh]
	 SCS Correlation Energy    =      -1.7392485684203687 [Eh]
	 SCS Total Energy          =    -504.3572402305791229 [Eh]
	-----------------------------------------------------------

  Dipole Moment: [D]
     X:     0.0369      Y:     0.7786      Z:    -0.1242     Total:     0.7893

*** Psi4 exiting successfully. Buy a developer a beer!
