                               Psi4 1.4a3.dev225

  ==> Input File <==

--------------------------------------------------------------------------
#psi4
#
memory 32 gb

molecule  {
0 1
  F        2.1226300     0.9082170     0.7600610
  F       -2.1226300     0.9082210    -0.7600560
  O        2.8120520    -0.8324970    -0.4615260
  O       -2.8120520    -0.8324980     0.4615220
  C        0.4856120    -0.1117560    -0.5938050
  C       -0.4641878    -0.0654730     0.6101175
  C        1.9157900    -0.1063220    -0.1389790
  C       -1.9157900    -0.1063230     0.1389780
  H        0.3463190    -0.9890650    -1.2292190
  H        0.3197670     0.7835690    -1.2005600
  H       -0.3197660     0.7835590     1.2005670
  H       -0.3463190    -0.9890750     1.2292110
units angstrom
no_reorient  #important for SAPT in psi4, default
symmetry c1  #important for SAPT in psi4, default
}

set PROPERTIES_ORIGIN ["COM"]
properties('MP2/aug-cc-pvtz', properties = ['dipole'])
--------------------------------------------------------------------------

    Molecular point group: c1
  Charge       = 0
  Multiplicity = 1
  Basis Set: AUG-CC-PVTZ
    Blend: AUG-CC-PVTZ
  Basis Set: (AUG-CC-PVTZ AUX)
    Blend: AUG-CC-PVTZ-JKFIT

    Orbital Energies [Eh]
    ---------------------

    Doubly Occupied:

       1A    -26.348165     2A    -26.347193     3A    -20.606856
       4A    -20.604802     5A    -11.450833     6A    -11.449366
       7A    -11.302063     8A    -11.301468     9A     -1.666559
      10A     -1.665765    11A     -1.443210    12A     -1.442479
      13A     -1.140337    14A     -1.002619    15A     -0.865469
      16A     -0.856231    17A     -0.774013    18A     -0.751088
      19A     -0.742154    20A     -0.734924    21A     -0.730305
      22A     -0.717472    23A     -0.677760    24A     -0.636338
      25A     -0.626051    26A     -0.596089    27A     -0.577845
      28A     -0.554485    29A     -0.540360    30A     -0.521291
      31A     -0.495197

  @DF-RHF Final Energy:  -502.61678118548758

   => Energetics <=

    Nuclear Repulsion Energy =            363.2406611292440743
    One-Electron Energy =               -1413.3773115531248550
    Two-Electron Energy =                 547.5198692383933121
    Total Energy =                       -502.6167811854875254
  Basis Set: (AUG-CC-PVTZ AUX)
    Blend: AUG-CC-PVTZ-RI
    Molecular point group: c1

    Geometry (in Angstrom), charge = 0, multiplicity = 1:

       Center              X                  Y                   Z               Mass
    ------------   -----------------  -----------------  -----------------  -----------------
         F            2.120523003136     0.885390418161     0.758456580097    18.998403162730
         F           -2.124736996864     0.885394418161    -0.761660419903    18.998403162730
         O            2.809945003136    -0.855323581839    -0.463130419903    15.994914619570
         O           -2.814158996864    -0.855324581839     0.459917580097    15.994914619570
         C            0.483505003136    -0.134582581839    -0.595409419903    12.000000000000
         C           -0.466294796864    -0.088299581839     0.608513080097    12.000000000000
         C            1.913683003136    -0.129148581839    -0.140583419903    12.000000000000
         C           -1.917896996864    -0.129149581839     0.137373580097    12.000000000000
         H            0.344212003136    -1.011891581839    -1.230823419903     1.007825032230
         H            0.317660003136     0.760742418161    -1.202164419903     1.007825032230
         H           -0.321872996864     0.760732418161     1.198962580097     1.007825032230
         H           -0.348425996864    -1.011901581839     1.227606580097     1.007825032230

  Basis Set: AUG-CC-PVTZ
    Blend: AUG-CC-PVTZ
  Basis Set: (AUG-CC-PVTZ AUX)
    Blend: AUG-CC-PVTZ-JKFIT
	 Reference Energy          =    -502.6167811854875822 [Eh]
	 Singles Energy            =      -0.0000000000000000 [Eh]
	 Same-Spin Energy          =      -0.4439163803678686 [Eh]
	 Opposite-Spin Energy      =      -1.3257061069326834 [Eh]
	 Correlation Energy        =      -1.7696224873005519 [Eh]
	 Total Energy              =    -504.3864036727881057 [Eh]

	 ================> DF-SCS-MP2 Energies <==================
	-----------------------------------------------------------
	 SCS Same-Spin Scale       =       0.3333333333333333 [-]
	 SCS Opposite-Spin Scale   =       1.2000000000000000 [-]
	 SCS Same-Spin Energy      =      -0.1479721267892895 [Eh]
	 SCS Opposite-Spin Energy  =      -1.5908473283192202 [Eh]
	 SCS Correlation Energy    =      -1.7388194551085097 [Eh]
	 SCS Total Energy          =    -504.3556006405960943 [Eh]
	-----------------------------------------------------------

  Dipole Moment: [D]
     X:    -0.0541      Y:     0.6140      Z:    -0.0085     Total:     0.6164

*** Psi4 exiting successfully. Buy a developer a beer!
