                               Psi4 1.4a3.dev225

  ==> Input File <==

--------------------------------------------------------------------------
#psi4
#
memory 32 gb

molecule  {
0 1
  F        2.1226300     0.9082170     0.7600610
  F       -2.1226300     0.9082210    -0.7600560
  O        2.8120520    -0.8324970    -0.4615260
  O       -2.8120520    -0.8324980     0.4615220
  C        0.4856120    -0.1117560    -0.5938050
  C       -0.4856120    -0.1117600     0.5938040
  C        1.9157900    -0.1063220    -0.1389790
  C       -1.8783762    -0.0760093     0.1255136
  H        0.3463190    -0.9890650    -1.2292190
  H        0.3197670     0.7835690    -1.2005600
  H       -0.3197660     0.7835590     1.2005670
  H       -0.3463190    -0.9890750     1.2292110
units angstrom
no_reorient  #important for SAPT in psi4, default
symmetry c1  #important for SAPT in psi4, default
}

set PROPERTIES_ORIGIN ["COM"]
properties('MP2/aug-cc-pvtz', properties = ['dipole'])
--------------------------------------------------------------------------

    Molecular point group: c1
  Charge       = 0
  Multiplicity = 1
  Basis Set: AUG-CC-PVTZ
    Blend: AUG-CC-PVTZ
  Basis Set: (AUG-CC-PVTZ AUX)
    Blend: AUG-CC-PVTZ-JKFIT

    Orbital Energies [Eh]
    ---------------------

    Doubly Occupied:

       1A    -26.361752     2A    -26.349966     3A    -20.607106
       4A    -20.597339     5A    -11.455169     6A    -11.451720
       7A    -11.304605     8A    -11.302573     9A     -1.685106
      10A     -1.668228    11A     -1.444591    12A     -1.405127
      13A     -1.148252    14A     -1.013332    15A     -0.874752
      16A     -0.860566    17A     -0.779862    18A     -0.758086
      19A     -0.745664    20A     -0.737988    21A     -0.735402
      22A     -0.715796    23A     -0.674485    24A     -0.638587
      25A     -0.623987    26A     -0.598596    27A     -0.581227
      28A     -0.549638    29A     -0.525398    30A     -0.515308
      31A     -0.495358

  @DF-RHF Final Energy:  -502.61096207487401

   => Energetics <=

    Nuclear Repulsion Energy =            363.5096352048011568
    One-Electron Energy =               -1413.8300660012687331
    Two-Electron Energy =                 547.7094687215934528
    Total Energy =                       -502.6109620748740099
  Basis Set: (AUG-CC-PVTZ AUX)
    Blend: AUG-CC-PVTZ-RI
    Molecular point group: c1

    Geometry (in Angstrom), charge = 0, multiplicity = 1:

       Center              X                  Y                   Z               Mass
    ------------   -----------------  -----------------  -----------------  -----------------
         F            2.118950486777     0.886961331477     0.761385123331    18.998403162730
         F           -2.126309513223     0.886965331477    -0.758731876669    18.998403162730
         O            2.808372486777    -0.853752668523    -0.460201876669    15.994914619570
         O           -2.815731513223    -0.853753668523     0.462846123331    15.994914619570
         C            0.481932486777    -0.133011668523    -0.592480876669    12.000000000000
         C           -0.489291513223    -0.133015668523     0.595128123331    12.000000000000
         C            1.912110486777    -0.127577668523    -0.137654876669    12.000000000000
         C           -1.882055713223    -0.097264968523     0.126837723331    12.000000000000
         H            0.342639486777    -1.010320668523    -1.227894876669     1.007825032230
         H            0.316087486777     0.762313331477    -1.199235876669     1.007825032230
         H           -0.323445513223     0.762303331477     1.201891123331     1.007825032230
         H           -0.349998513223    -1.010330668523     1.230535123331     1.007825032230

  Basis Set: AUG-CC-PVTZ
    Blend: AUG-CC-PVTZ
  Basis Set: (AUG-CC-PVTZ AUX)
    Blend: AUG-CC-PVTZ-JKFIT
	 Reference Energy          =    -502.6109620748740099 [Eh]
	 Singles Energy            =      -0.0000000000000000 [Eh]
	 Same-Spin Energy          =      -0.4452334878027403 [Eh]
	 Opposite-Spin Energy      =      -1.3280560832755293 [Eh]
	 Correlation Energy        =      -1.7732895710782697 [Eh]
	 Total Energy              =    -504.3842516459523040 [Eh]

	 ================> DF-SCS-MP2 Energies <==================
	-----------------------------------------------------------
	 SCS Same-Spin Scale       =       0.3333333333333333 [-]
	 SCS Opposite-Spin Scale   =       1.2000000000000000 [-]
	 SCS Same-Spin Energy      =      -0.1484111626009134 [Eh]
	 SCS Opposite-Spin Energy  =      -1.5936672999306352 [Eh]
	 SCS Correlation Energy    =      -1.7420784625315486 [Eh]
	 SCS Total Energy          =    -504.3530405374055476 [Eh]
	-----------------------------------------------------------

  Dipole Moment: [D]
     X:     0.2532      Y:     0.8490      Z:    -0.1371     Total:     0.8965

*** Psi4 exiting successfully. Buy a developer a beer!
