                               Psi4 1.4a3.dev225

  ==> Input File <==

--------------------------------------------------------------------------
#psi4
#
memory 32 gb

molecule  {
0 1
  F        2.1226300     0.9082170     0.7600610
  F       -2.1226300     0.9082210    -0.7600560
  O        2.8120520    -0.8324970    -0.4615260
  O       -2.8120520    -0.8324980     0.4615220
  C        0.4856120    -0.1117560    -0.5938050
  C       -0.4856120    -0.1117600     0.5938040
  C        1.9157900    -0.1063220    -0.1389790
  C       -1.9199411    -0.1283549     0.1525219
  H        0.3463190    -0.9890650    -1.2292190
  H        0.3197670     0.7835690    -1.2005600
  H       -0.3197660     0.7835590     1.2005670
  H       -0.3463190    -0.9890750     1.2292110
units angstrom
no_reorient  #important for SAPT in psi4, default
symmetry c1  #important for SAPT in psi4, default
}

set PROPERTIES_ORIGIN ["COM"]
properties('MP2/aug-cc-pvtz', properties = ['dipole'])
--------------------------------------------------------------------------

    Molecular point group: c1
  Charge       = 0
  Multiplicity = 1
  Basis Set: AUG-CC-PVTZ
    Blend: AUG-CC-PVTZ
  Basis Set: (AUG-CC-PVTZ AUX)
    Blend: AUG-CC-PVTZ-JKFIT

    Orbital Energies [Eh]
    ---------------------

    Doubly Occupied:

       1A    -26.348154     2A    -26.336876     3A    -20.610169
       4A    -20.605306     5A    -11.449867     6A    -11.448009
       7A    -11.302508     8A    -11.301474     9A     -1.666432
      10A     -1.650160    11A     -1.459451    12A     -1.442866
      13A     -1.140823    14A     -1.005292    15A     -0.862785
      16A     -0.849421    17A     -0.770313    18A     -0.749427
      19A     -0.743891    20A     -0.732421    21A     -0.726851
      22A     -0.714773    23A     -0.674651    24A     -0.636890
      25A     -0.628961    26A     -0.594894    27A     -0.581133
      28A     -0.556880    29A     -0.542479    30A     -0.522804
      31A     -0.498387

  @DF-RHF Final Energy:  -502.62022355860330

   => Energetics <=

    Nuclear Repulsion Energy =            363.3147636915501266
    One-Electron Energy =               -1413.5612835363074282
    Two-Electron Energy =                 547.6262962861541155
    Total Energy =                       -502.6202235586032430
  Basis Set: (AUG-CC-PVTZ AUX)
    Blend: AUG-CC-PVTZ-RI
    Molecular point group: c1

    Geometry (in Angstrom), charge = 0, multiplicity = 1:

       Center              X                  Y                   Z               Mass
    ------------   -----------------  -----------------  -----------------  -----------------
         F            2.123038236641     0.892109322192     0.758728959726    18.998403162730
         F           -2.122221763359     0.892113322192    -0.761388040274    18.998403162730
         O            2.812460236641    -0.848604677808    -0.462858040274    15.994914619570
         O           -2.811643763359    -0.848605677808     0.460189959726    15.994914619570
         C            0.486020236641    -0.127863677808    -0.595137040274    12.000000000000
         C           -0.485203763359    -0.127867677808     0.592471959726    12.000000000000
         C            1.916198236641    -0.122429677808    -0.140311040274    12.000000000000
         C           -1.919532863359    -0.144462577808     0.151189859726    12.000000000000
         H            0.346727236641    -1.005172677808    -1.230551040274     1.007825032230
         H            0.320175236641     0.767461322192    -1.201892040274     1.007825032230
         H           -0.319357763359     0.767451322192     1.199234959726     1.007825032230
         H           -0.345910763359    -1.005182677808     1.227878959726     1.007825032230

  Basis Set: AUG-CC-PVTZ
    Blend: AUG-CC-PVTZ
  Basis Set: (AUG-CC-PVTZ AUX)
    Blend: AUG-CC-PVTZ-JKFIT
	 Reference Energy          =    -502.6202235586032998 [Eh]
	 Singles Energy            =      -0.0000000000000000 [Eh]
	 Same-Spin Energy          =      -0.4438008349424636 [Eh]
	 Opposite-Spin Energy      =      -1.3253044212597476 [Eh]
	 Correlation Energy        =      -1.7691052562022112 [Eh]
	 Total Energy              =    -504.3893288148055376 [Eh]

	 ================> DF-SCS-MP2 Energies <==================
	-----------------------------------------------------------
	 SCS Same-Spin Scale       =       0.3333333333333333 [-]
	 SCS Opposite-Spin Scale   =       1.2000000000000000 [-]
	 SCS Same-Spin Energy      =      -0.1479336116474879 [Eh]
	 SCS Opposite-Spin Energy  =      -1.5903653055116971 [Eh]
	 SCS Correlation Energy    =      -1.7382989171591849 [Eh]
	 SCS Total Energy          =    -504.3585224757624701 [Eh]
	-----------------------------------------------------------

  Dipole Moment: [D]
     X:    -0.0345      Y:     0.4246      Z:     0.1280     Total:     0.4448

*** Psi4 exiting successfully. Buy a developer a beer!
