                               Psi4 1.4a3.dev225

  ==> Input File <==

--------------------------------------------------------------------------
#psi4
#
memory 32 gb

molecule  {
0 1
  F        2.1226300     0.9082170     0.7600610
  F       -2.1226300     0.9082210    -0.7600560
  O        2.8120520    -0.8324970    -0.4615260
  O       -2.8120520    -0.8324980     0.4615220
  C        0.4856120    -0.1117560    -0.5938050
  C       -0.4856120    -0.1117600     0.5938040
  C        1.9157900    -0.1063220    -0.1389790
  C       -1.9157900    -0.1063230     0.1389780
  H        0.3463190    -0.9890650    -1.2292190
  H        0.3197670     0.7835690    -1.2005600
  H       -0.2894522     0.9472079     1.3114728
  H       -0.3463190    -0.9890750     1.2292110
units angstrom
no_reorient  #important for SAPT in psi4, default
symmetry c1  #important for SAPT in psi4, default
}

set PROPERTIES_ORIGIN ["COM"]
properties('MP2/aug-cc-pvtz', properties = ['dipole'])
--------------------------------------------------------------------------

    Molecular point group: c1
  Charge       = 0
  Multiplicity = 1
  Basis Set: AUG-CC-PVTZ
    Blend: AUG-CC-PVTZ
  Basis Set: (AUG-CC-PVTZ AUX)
    Blend: AUG-CC-PVTZ-JKFIT

    Orbital Energies [Eh]
    ---------------------

    Doubly Occupied:

       1A    -26.347697     2A    -26.347549     3A    -20.605588
       4A    -20.605519     5A    -11.450654     6A    -11.450154
       7A    -11.320834     8A    -11.303218     9A     -1.666161
      10A     -1.665728    11A     -1.443227    12A     -1.442957
      13A     -1.135929    14A     -1.000747    15A     -0.865586
      16A     -0.851284    17A     -0.770308    18A     -0.750747
      19A     -0.742788    20A     -0.734839    21A     -0.727977
      22A     -0.715008    23A     -0.663049    24A     -0.635591
      25A     -0.626294    26A     -0.594416    27A     -0.572585
      28A     -0.548258    29A     -0.533797    30A     -0.514989
      31A     -0.496305

  @DF-RHF Final Energy:  -502.59930461706358

   => Energetics <=

    Nuclear Repulsion Energy =            362.5020155629217129
    One-Electron Energy =               -1411.9430718065020756
    Two-Electron Energy =                 546.8417516265167251
    Total Energy =                       -502.5993046170635807
  Basis Set: (AUG-CC-PVTZ AUX)
    Blend: AUG-CC-PVTZ-RI
    Molecular point group: c1

    Geometry (in Angstrom), charge = 0, multiplicity = 1:

       Center              X                  Y                   Z               Mass
    ------------   -----------------  -----------------  -----------------  -----------------
         F            2.122379610464     0.888590886517     0.759144908072    18.998403162730
         F           -2.122880389536     0.888594886517    -0.760972091928    18.998403162730
         O            2.811801610464    -0.852123113483    -0.462442091928    15.994914619570
         O           -2.812302389536    -0.852124113483     0.460605908072    15.994914619570
         C            0.485361610464    -0.131382113483    -0.594721091928    12.000000000000
         C           -0.485862389536    -0.131386113483     0.592887908072    12.000000000000
         C            1.915539610464    -0.125948113483    -0.139895091928    12.000000000000
         C           -1.916040389536    -0.125949113483     0.138061908072    12.000000000000
         H            0.346068610464    -1.008691113483    -1.230135091928     1.007825032230
         H            0.319516610464     0.763942886517    -1.201476091928     1.007825032230
         H           -0.289702589536     0.927581786517     1.310556708072     1.007825032230
         H           -0.346569389536    -1.008701113483     1.228294908072     1.007825032230

  Basis Set: AUG-CC-PVTZ
    Blend: AUG-CC-PVTZ
  Basis Set: (AUG-CC-PVTZ AUX)
    Blend: AUG-CC-PVTZ-JKFIT
	 Reference Energy          =    -502.5993046170635807 [Eh]
	 Singles Energy            =      -0.0000000000000000 [Eh]
	 Same-Spin Energy          =      -0.4442941737509286 [Eh]
	 Opposite-Spin Energy      =      -1.3273930145059492 [Eh]
	 Correlation Energy        =      -1.7716871882568777 [Eh]
	 Total Energy              =    -504.3709918053204433 [Eh]

	 ================> DF-SCS-MP2 Energies <==================
	-----------------------------------------------------------
	 SCS Same-Spin Scale       =       0.3333333333333333 [-]
	 SCS Opposite-Spin Scale   =       1.2000000000000000 [-]
	 SCS Same-Spin Energy      =      -0.1480980579169762 [Eh]
	 SCS Opposite-Spin Energy  =      -1.5928716174071389 [Eh]
	 SCS Correlation Energy    =      -1.7409696753241151 [Eh]
	 SCS Total Energy          =    -504.3402742923876758 [Eh]
	-----------------------------------------------------------

  Dipole Moment: [D]
     X:     0.0352      Y:     0.6131      Z:    -0.0095     Total:     0.6142

*** Psi4 exiting successfully. Buy a developer a beer!
