                               Psi4 1.4a3.dev225

  ==> Input File <==

--------------------------------------------------------------------------
#psi4
#
memory 32 gb

molecule  {
0 1
  F        2.1226300     0.9082170     0.7600610
  F       -2.1226300     0.9082210    -0.7600560
  O        2.8120520    -0.8324970    -0.4615260
  O       -2.8120520    -0.8324980     0.4615220
  C        0.4856120    -0.1117560    -0.5938050
  C       -0.4856120    -0.1117600     0.5938040
  C        1.9157900    -0.1063220    -0.1389790
  C       -1.9116221    -0.1288931     0.1263568
  H        0.3463190    -0.9890650    -1.2292190
  H        0.3197670     0.7835690    -1.2005600
  H       -0.3197660     0.7835590     1.2005670
  H       -0.3463190    -0.9890750     1.2292110
units angstrom
no_reorient  #important for SAPT in psi4, default
symmetry c1  #important for SAPT in psi4, default
}

set PROPERTIES_ORIGIN ["COM"]
properties('MP2/aug-cc-pvtz', properties = ['dipole'])
--------------------------------------------------------------------------

    Molecular point group: c1
  Charge       = 0
  Multiplicity = 1
  Basis Set: AUG-CC-PVTZ
    Blend: AUG-CC-PVTZ
  Basis Set: (AUG-CC-PVTZ AUX)
    Blend: AUG-CC-PVTZ-JKFIT

    Orbital Energies [Eh]
    ---------------------

    Doubly Occupied:

       1A    -26.348258     2A    -26.344072     3A    -20.607354
       4A    -20.605248     5A    -11.449785     6A    -11.449344
       7A    -11.302264     8A    -11.301396     9A     -1.666530
      10A     -1.660307    11A     -1.448803    12A     -1.442837
      13A     -1.141317    14A     -1.005013    15A     -0.864320
      16A     -0.853920    17A     -0.772519    18A     -0.750668
      19A     -0.743388    20A     -0.734114    21A     -0.729128
      22A     -0.716642    23A     -0.674383    24A     -0.637699
      25A     -0.627684    26A     -0.595083    27A     -0.580190
      28A     -0.554082    29A     -0.541005    30A     -0.521568
      31A     -0.497250

  @DF-RHF Final Energy:  -502.61991829069223

   => Energetics <=

    Nuclear Repulsion Energy =            363.3900289488075828
    One-Electron Energy =               -1413.6875520902715380
    Two-Electron Energy =                 547.6776048507716723
    Total Energy =                       -502.6199182906922260
  Basis Set: (AUG-CC-PVTZ AUX)
    Blend: AUG-CC-PVTZ-RI
    Molecular point group: c1

    Geometry (in Angstrom), charge = 0, multiplicity = 1:

       Center              X                  Y                   Z               Mass
    ------------   -----------------  -----------------  -----------------  -----------------
         F            2.122220094624     0.892162252116     0.761302197817    18.998403162730
         F           -2.123039905376     0.892166252116    -0.758814802183    18.998403162730
         O            2.811642094624    -0.848551747884    -0.460284802183    15.994914619570
         O           -2.812461905376    -0.848552747884     0.462763197817    15.994914619570
         C            0.485202094624    -0.127810747884    -0.592563802183    12.000000000000
         C           -0.486021905376    -0.127814747884     0.595045197817    12.000000000000
         C            1.915380094624    -0.122376747884    -0.137737802183    12.000000000000
         C           -1.912032005376    -0.144947847884     0.127597997817    12.000000000000
         H            0.345909094624    -1.005119747884    -1.227977802183     1.007825032230
         H            0.319357094624     0.767514252116    -1.199318802183     1.007825032230
         H           -0.320175905376     0.767504252116     1.201808197817     1.007825032230
         H           -0.346728905376    -1.005129747884     1.230452197817     1.007825032230

  Basis Set: AUG-CC-PVTZ
    Blend: AUG-CC-PVTZ
  Basis Set: (AUG-CC-PVTZ AUX)
    Blend: AUG-CC-PVTZ-JKFIT
	 Reference Energy          =    -502.6199182906922260 [Eh]
	 Singles Energy            =      -0.0000000000000000 [Eh]
	 Same-Spin Energy          =      -0.4439468472733206 [Eh]
	 Opposite-Spin Energy      =      -1.3256100548508114 [Eh]
	 Correlation Energy        =      -1.7695569021241320 [Eh]
	 Total Energy              =    -504.3894751928163487 [Eh]

	 ================> DF-SCS-MP2 Energies <==================
	-----------------------------------------------------------
	 SCS Same-Spin Scale       =       0.3333333333333333 [-]
	 SCS Opposite-Spin Scale   =       1.2000000000000000 [-]
	 SCS Same-Spin Energy      =      -0.1479822824244402 [Eh]
	 SCS Opposite-Spin Energy  =      -1.5907320658209736 [Eh]
	 SCS Correlation Energy    =      -1.7387143482454137 [Eh]
	 SCS Total Energy          =    -504.3586326389376495 [Eh]
	-----------------------------------------------------------

  Dipole Moment: [D]
     X:    -0.0092      Y:     0.5165      Z:     0.0253     Total:     0.5172

*** Psi4 exiting successfully. Buy a developer a beer!
