                               Psi4 1.4a3.dev225

  ==> Input File <==

--------------------------------------------------------------------------
#psi4
#
memory 32 gb

molecule  {
0 1
  F        2.1226300     0.9082170     0.7600610
  F       -2.1226300     0.9082210    -0.7600560
  O        2.8120520    -0.8324970    -0.4615260
  O       -2.8120520    -0.8324980     0.4615220
  C        0.4420907    -0.2046345    -0.6245692
  C       -0.4856120    -0.1117600     0.5938040
  C        1.9157900    -0.1063220    -0.1389790
  C       -1.9157900    -0.1063230     0.1389780
  H        0.3463190    -0.9890650    -1.2292190
  H        0.3197670     0.7835690    -1.2005600
  H       -0.3197660     0.7835590     1.2005670
  H       -0.3463190    -0.9890750     1.2292110
units angstrom
no_reorient  #important for SAPT in psi4, default
symmetry c1  #important for SAPT in psi4, default
}

set PROPERTIES_ORIGIN ["COM"]
properties('MP2/aug-cc-pvtz', properties = ['dipole'])
--------------------------------------------------------------------------

    Molecular point group: c1
  Charge       = 0
  Multiplicity = 1
  Basis Set: AUG-CC-PVTZ
    Blend: AUG-CC-PVTZ
  Basis Set: (AUG-CC-PVTZ AUX)
    Blend: AUG-CC-PVTZ-JKFIT

    Orbital Energies [Eh]
    ---------------------

    Doubly Occupied:

       1A    -26.351723     2A    -26.347532     3A    -20.604379
       4A    -20.602207     5A    -11.450281     6A    -11.448439
       7A    -11.303528     8A    -11.301787     9A     -1.667356
      10A     -1.665837    11A     -1.442111    12A     -1.440685
      13A     -1.138955    14A     -0.998488    15A     -0.866861
      16A     -0.858745    17A     -0.773783    18A     -0.752819
      19A     -0.740345    20A     -0.734947    21A     -0.728398
      22A     -0.717780    23A     -0.674746    24A     -0.635320
      25A     -0.624571    26A     -0.614762    27A     -0.576879
      28A     -0.552480    29A     -0.537170    30A     -0.516141
      31A     -0.488788

  @DF-RHF Final Energy:  -502.60650701992569

   => Energetics <=

    Nuclear Repulsion Energy =            362.7562349605129839
    One-Electron Energy =               -1412.4097958710785861
    Two-Electron Energy =                 547.0470538906398588
    Total Energy =                       -502.6065070199257434
  Basis Set: (AUG-CC-PVTZ AUX)
    Blend: AUG-CC-PVTZ-RI
    Molecular point group: c1

    Geometry (in Angstrom), charge = 0, multiplicity = 1:

       Center              X                  Y                   Z               Mass
    ------------   -----------------  -----------------  -----------------  -----------------
         F            2.126910146105     0.899076815907     0.763086492878    18.998403162730
         F           -2.118349853895     0.899080815907    -0.757030507122    18.998403162730
         O            2.816332146105    -0.841637184093    -0.458500507122    15.994914619570
         O           -2.807771853895    -0.841638184093     0.464547492878    15.994914619570
         C            0.446370846105    -0.213774684093    -0.621543707122    12.000000000000
         C           -0.481331853895    -0.120900184093     0.596829492878    12.000000000000
         C            1.920070146105    -0.115462184093    -0.135953507122    12.000000000000
         C           -1.911509853895    -0.115463184093     0.142003492878    12.000000000000
         H            0.350599146105    -0.998205184093    -1.226193507122     1.007825032230
         H            0.324047146105     0.774428815907    -1.197534507122     1.007825032230
         H           -0.315485853895     0.774418815907     1.203592492878     1.007825032230
         H           -0.342038853895    -0.998215184093     1.232236492878     1.007825032230

  Basis Set: AUG-CC-PVTZ
    Blend: AUG-CC-PVTZ
  Basis Set: (AUG-CC-PVTZ AUX)
    Blend: AUG-CC-PVTZ-JKFIT
	 Reference Energy          =    -502.6065070199256866 [Eh]
	 Singles Energy            =      -0.0000000000000000 [Eh]
	 Same-Spin Energy          =      -0.4438509800342252 [Eh]
	 Opposite-Spin Energy      =      -1.3257575596852809 [Eh]
	 Correlation Energy        =      -1.7696085397195060 [Eh]
	 Total Energy              =    -504.3761155596451999 [Eh]

	 ================> DF-SCS-MP2 Energies <==================
	-----------------------------------------------------------
	 SCS Same-Spin Scale       =       0.3333333333333333 [-]
	 SCS Opposite-Spin Scale   =       1.2000000000000000 [-]
	 SCS Same-Spin Energy      =      -0.1479503266780751 [Eh]
	 SCS Opposite-Spin Energy  =      -1.5909090716223371 [Eh]
	 SCS Correlation Energy    =      -1.7388593983004121 [Eh]
	 SCS Total Energy          =    -504.3453664182260923 [Eh]
	-----------------------------------------------------------

  Dipole Moment: [D]
     X:     0.0075      Y:     0.5910      Z:     0.0259     Total:     0.5916

*** Psi4 exiting successfully. Buy a developer a beer!
