                               Psi4 1.4a3.dev225

  ==> Input File <==

--------------------------------------------------------------------------
#psi4
#
memory 32 gb

molecule  {
0 1
  F        2.1226300     0.9082170     0.7600610
  F       -2.1226300     0.9082210    -0.7600560
  O        2.8120520    -0.8324970    -0.4615260
  O       -2.8120520    -0.8324980     0.4615220
  C        0.4856120    -0.1117560    -0.5938050
  C       -0.4856120    -0.1117600     0.5938040
  C        1.9157900    -0.1063220    -0.1389790
  C       -1.9297687    -0.1943934     0.1939434
  H        0.3463190    -0.9890650    -1.2292190
  H        0.3197670     0.7835690    -1.2005600
  H       -0.3197660     0.7835590     1.2005670
  H       -0.3463190    -0.9890750     1.2292110
units angstrom
no_reorient  #important for SAPT in psi4, default
symmetry c1  #important for SAPT in psi4, default
}

set PROPERTIES_ORIGIN ["COM"]
properties('MP2/aug-cc-pvtz', properties = ['dipole'])
--------------------------------------------------------------------------

    Molecular point group: c1
  Charge       = 0
  Multiplicity = 1
  Basis Set: AUG-CC-PVTZ
    Blend: AUG-CC-PVTZ
  Basis Set: (AUG-CC-PVTZ AUX)
    Blend: AUG-CC-PVTZ-JKFIT

    Orbital Energies [Eh]
    ---------------------

    Doubly Occupied:

       1A    -26.348102     2A    -26.300706     3A    -20.624801
       4A    -20.605300     5A    -11.449883     6A    -11.442404
       7A    -11.305773     8A    -11.301374     9A     -1.666378
      10A     -1.606467    11A     -1.505599    12A     -1.442853
      13A     -1.140751    14A     -1.005824    15A     -0.861091
      16A     -0.828740    17A     -0.765699    18A     -0.752907
      19A     -0.743602    20A     -0.730983    21A     -0.719836
      22A     -0.703121    23A     -0.674478    24A     -0.629394
      25A     -0.626673    26A     -0.600173    27A     -0.584521
      28A     -0.567163    29A     -0.544042    30A     -0.528104
      31A     -0.500499

  @DF-RHF Final Energy:  -502.61064121956770

   => Energetics <=

    Nuclear Repulsion Energy =            363.2269340437861160
    One-Electron Energy =               -1413.4606737320657430
    Two-Electron Energy =                 547.6230984687119872
    Total Energy =                       -502.6106412195676967
  Basis Set: (AUG-CC-PVTZ AUX)
    Blend: AUG-CC-PVTZ-RI
    Molecular point group: c1

    Geometry (in Angstrom), charge = 0, multiplicity = 1:

       Center              X                  Y                   Z               Mass
    ------------   -----------------  -----------------  -----------------  -----------------
         F            2.124004743731     0.898603957554     0.754655312707    18.998403162730
         F           -2.121255256269     0.898607957554    -0.765461687293    18.998403162730
         O            2.813426743731    -0.842110042446    -0.466931687293    15.994914619570
         O           -2.810677256269    -0.842111042446     0.456116312707    15.994914619570
         C            0.486986743731    -0.121369042446    -0.599210687293    12.000000000000
         C           -0.484237256269    -0.121373042446     0.588398312707    12.000000000000
         C            1.917164743731    -0.115935042446    -0.144384687293    12.000000000000
         C           -1.928393956269    -0.204006442446     0.188537712707    12.000000000000
         H            0.347693743731    -0.998678042446    -1.234624687293     1.007825032230
         H            0.321141743731     0.773955957554    -1.205965687293     1.007825032230
         H           -0.318391256269     0.773945957554     1.195161312707     1.007825032230
         H           -0.344944256269    -0.998688042446     1.223805312707     1.007825032230

  Basis Set: AUG-CC-PVTZ
    Blend: AUG-CC-PVTZ
  Basis Set: (AUG-CC-PVTZ AUX)
    Blend: AUG-CC-PVTZ-JKFIT
	 Reference Energy          =    -502.6106412195676967 [Eh]
	 Singles Energy            =      -0.0000000000000000 [Eh]
	 Same-Spin Energy          =      -0.4433680204898932 [Eh]
	 Opposite-Spin Energy      =      -1.3246003480899298 [Eh]
	 Correlation Energy        =      -1.7679683685798229 [Eh]
	 Total Energy              =    -504.3786095881475262 [Eh]

	 ================> DF-SCS-MP2 Energies <==================
	-----------------------------------------------------------
	 SCS Same-Spin Scale       =       0.3333333333333333 [-]
	 SCS Opposite-Spin Scale   =       1.2000000000000000 [-]
	 SCS Same-Spin Energy      =      -0.1477893401632977 [Eh]
	 SCS Opposite-Spin Energy  =      -1.5895204177079156 [Eh]
	 SCS Correlation Energy    =      -1.7373097578712133 [Eh]
	 SCS Total Energy          =    -504.3479509774389271 [Eh]
	-----------------------------------------------------------

  Dipole Moment: [D]
     X:    -0.1189      Y:    -0.1401      Z:     0.5352     Total:     0.5658

*** Psi4 exiting successfully. Buy a developer a beer!
