                               Psi4 1.4a3.dev225

  ==> Input File <==

--------------------------------------------------------------------------
#psi4
#
memory 32 gb

molecule  {
0 1
  F        2.0995946     0.9143958     0.7580696
  F       -2.1226300     0.9082210    -0.7600560
  O        2.8120520    -0.8324970    -0.4615260
  O       -2.8120520    -0.8324980     0.4615220
  C        0.4856120    -0.1117560    -0.5938050
  C       -0.4856120    -0.1117600     0.5938040
  C        1.9157900    -0.1063220    -0.1389790
  C       -1.9157900    -0.1063230     0.1389780
  H        0.3463190    -0.9890650    -1.2292190
  H        0.3197670     0.7835690    -1.2005600
  H       -0.3197660     0.7835590     1.2005670
  H       -0.3463190    -0.9890750     1.2292110
units angstrom
no_reorient  #important for SAPT in psi4, default
symmetry c1  #important for SAPT in psi4, default
}

set PROPERTIES_ORIGIN ["COM"]
properties('MP2/aug-cc-pvtz', properties = ['dipole'])
--------------------------------------------------------------------------

    Molecular point group: c1
  Charge       = 0
  Multiplicity = 1
  Basis Set: AUG-CC-PVTZ
    Blend: AUG-CC-PVTZ
  Basis Set: (AUG-CC-PVTZ AUX)
    Blend: AUG-CC-PVTZ-JKFIT

    Orbital Energies [Eh]
    ---------------------

    Doubly Occupied:

       1A    -26.349030     2A    -26.347932     3A    -20.606588
       4A    -20.605050     5A    -11.450526     6A    -11.449592
       7A    -11.301389     8A    -11.300648     9A     -1.667342
      10A     -1.666175    11A     -1.444003    12A     -1.442616
      13A     -1.140561    14A     -1.005301    15A     -0.866391
      16A     -0.855467    17A     -0.773633    18A     -0.752188
      19A     -0.743389    20A     -0.735650    21A     -0.730446
      22A     -0.717262    23A     -0.673793    24A     -0.637172
      25A     -0.627830    26A     -0.594106    27A     -0.579835
      28A     -0.552656    29A     -0.539717    30A     -0.520589
      31A     -0.496758

  @DF-RHF Final Energy:  -502.61964868999792

   => Energetics <=

    Nuclear Repulsion Energy =            363.5805853152160125
    One-Electron Energy =               -1414.0531915031049266
    Two-Electron Energy =                 547.8529574978909977
    Total Energy =                       -502.6196486899979163
  Basis Set: (AUG-CC-PVTZ AUX)
    Blend: AUG-CC-PVTZ-RI
    Molecular point group: c1

    Geometry (in Angstrom), charge = 0, multiplicity = 1:

       Center              X                  Y                   Z               Mass
    ------------   -----------------  -----------------  -----------------  -----------------
         F            2.103181243274     0.895159318781     0.758379615206    18.998403162730
         F           -2.119043356726     0.888984518781    -0.759745984794    18.998403162730
         O            2.815638643274    -0.851733481219    -0.461215984794    15.994914619570
         O           -2.808465356726    -0.851734481219     0.461832015206    15.994914619570
         C            0.489198643274    -0.130992481219    -0.593494984794    12.000000000000
         C           -0.482025356726    -0.130996481219     0.594114015206    12.000000000000
         C            1.919376643274    -0.125558481219    -0.138668984794    12.000000000000
         C           -1.912203356726    -0.125559481219     0.139288015206    12.000000000000
         H            0.349905643274    -1.008301481219    -1.228908984794     1.007825032230
         H            0.323353643274     0.764332518781    -1.200249984794     1.007825032230
         H           -0.316179356726     0.764322518781     1.200877015206     1.007825032230
         H           -0.342732356726    -1.008311481219     1.229521015206     1.007825032230

  Basis Set: AUG-CC-PVTZ
    Blend: AUG-CC-PVTZ
  Basis Set: (AUG-CC-PVTZ AUX)
    Blend: AUG-CC-PVTZ-JKFIT
	 Reference Energy          =    -502.6196486899979163 [Eh]
	 Singles Energy            =      -0.0000000000000000 [Eh]
	 Same-Spin Energy          =      -0.4440682856027145 [Eh]
	 Opposite-Spin Energy      =      -1.3257370354347879 [Eh]
	 Correlation Energy        =      -1.7698053210375024 [Eh]
	 Total Energy              =    -504.3894540110354114 [Eh]

	 ================> DF-SCS-MP2 Energies <==================
	-----------------------------------------------------------
	 SCS Same-Spin Scale       =       0.3333333333333333 [-]
	 SCS Opposite-Spin Scale   =       1.2000000000000000 [-]
	 SCS Same-Spin Energy      =      -0.1480227618675715 [Eh]
	 SCS Opposite-Spin Energy  =      -1.5908844425217454 [Eh]
	 SCS Correlation Energy    =      -1.7389072043893170 [Eh]
	 SCS Total Energy          =    -504.3585558943872229 [Eh]
	-----------------------------------------------------------

  Dipole Moment: [D]
     X:     0.0504      Y:     0.5990      Z:     0.0059     Total:     0.6012

*** Psi4 exiting successfully. Buy a developer a beer!
