                               Psi4 1.4a3.dev225

  ==> Input File <==

--------------------------------------------------------------------------
#psi4
#
memory 32 gb

molecule  {
0 1
  F        2.1226300     0.9082170     0.7600610
  F       -2.1226300     0.9082210    -0.7600560
  O        2.8120520    -0.8324970    -0.4615260
  O       -2.8120520    -0.8324980     0.4615220
  C        0.4856120    -0.1117560    -0.5938050
  C       -0.4856120    -0.1117600     0.5938040
  C        1.9157900    -0.1063220    -0.1389790
  C       -1.9007060    -0.1803094     0.2045408
  H        0.3463190    -0.9890650    -1.2292190
  H        0.3197670     0.7835690    -1.2005600
  H       -0.3197660     0.7835590     1.2005670
  H       -0.3463190    -0.9890750     1.2292110
units angstrom
no_reorient  #important for SAPT in psi4, default
symmetry c1  #important for SAPT in psi4, default
}

set PROPERTIES_ORIGIN ["COM"]
properties('MP2/aug-cc-pvtz', properties = ['dipole'])
--------------------------------------------------------------------------

    Molecular point group: c1
  Charge       = 0
  Multiplicity = 1
  Basis Set: AUG-CC-PVTZ
    Blend: AUG-CC-PVTZ
  Basis Set: (AUG-CC-PVTZ AUX)
    Blend: AUG-CC-PVTZ-JKFIT

    Orbital Energies [Eh]
    ---------------------

    Doubly Occupied:

       1A    -26.349608     2A    -26.303509     3A    -20.622148
       4A    -20.606902     5A    -11.451554     6A    -11.447045
       7A    -11.306649     8A    -11.303980     9A     -1.667879
      10A     -1.606018    11A     -1.484123    12A     -1.444368
      13A     -1.147488    14A     -1.013967    15A     -0.863029
      16A     -0.829363    17A     -0.766635    18A     -0.750870
      19A     -0.744086    20A     -0.729458    21A     -0.719392
      22A     -0.700593    23A     -0.673923    24A     -0.631326
      25A     -0.628324    26A     -0.597422    27A     -0.583686
      28A     -0.564872    29A     -0.545216    30A     -0.527986
      31A     -0.503224

  @DF-RHF Final Energy:  -502.61166293482125

   => Energetics <=

    Nuclear Repulsion Energy =            363.1761564464536036
    One-Electron Energy =               -1413.3463476632045968
    Two-Electron Energy =                 547.5585282819297390
    Total Energy =                       -502.6116629348211973
  Basis Set: (AUG-CC-PVTZ AUX)
    Blend: AUG-CC-PVTZ-RI
    Molecular point group: c1

    Geometry (in Angstrom), charge = 0, multiplicity = 1:

       Center              X                  Y                   Z               Mass
    ------------   -----------------  -----------------  -----------------  -----------------
         F            2.121146537698     0.897218849709     0.753613098714    18.998403162730
         F           -2.124113462302     0.897222849709    -0.766503901286    18.998403162730
         O            2.810568537698    -0.843495150291    -0.467973901286    15.994914619570
         O           -2.813535462302    -0.843496150291     0.455074098714    15.994914619570
         C            0.484128537698    -0.122754150291    -0.600252901286    12.000000000000
         C           -0.487095462302    -0.122758150291     0.587356098714    12.000000000000
         C            1.914306537698    -0.117320150291    -0.145426901286    12.000000000000
         C           -1.902189462302    -0.191307550291     0.198092898714    12.000000000000
         H            0.344835537698    -1.000063150291    -1.235666901286     1.007825032230
         H            0.318283537698     0.772570849709    -1.207007901286     1.007825032230
         H           -0.321249462302     0.772560849709     1.194119098714     1.007825032230
         H           -0.347802462302    -1.000073150291     1.222763098714     1.007825032230

  Basis Set: AUG-CC-PVTZ
    Blend: AUG-CC-PVTZ
  Basis Set: (AUG-CC-PVTZ AUX)
    Blend: AUG-CC-PVTZ-JKFIT
	 Reference Energy          =    -502.6116629348212541 [Eh]
	 Singles Energy            =      -0.0000000000000000 [Eh]
	 Same-Spin Energy          =      -0.4443902128986937 [Eh]
	 Opposite-Spin Energy      =      -1.3266384137759557 [Eh]
	 Correlation Energy        =      -1.7710286266746493 [Eh]
	 Total Energy              =    -504.3826915614959034 [Eh]

	 ================> DF-SCS-MP2 Energies <==================
	-----------------------------------------------------------
	 SCS Same-Spin Scale       =       0.3333333333333333 [-]
	 SCS Opposite-Spin Scale   =       1.2000000000000000 [-]
	 SCS Same-Spin Energy      =      -0.1481300709662312 [Eh]
	 SCS Opposite-Spin Energy  =      -1.5919660965311468 [Eh]
	 SCS Correlation Energy    =      -1.7400961674973781 [Eh]
	 SCS Total Energy          =    -504.3517591023186242 [Eh]
	-----------------------------------------------------------

  Dipole Moment: [D]
     X:     0.1026      Y:    -0.0484      Z:     0.5297     Total:     0.5417

*** Psi4 exiting successfully. Buy a developer a beer!
