                               Psi4 1.4a3.dev225

  ==> Input File <==

--------------------------------------------------------------------------
#psi4
#
memory 32 gb

molecule  {
0 1
  F        2.2140715     0.8804317     0.7652834
  F       -2.1226300     0.9082210    -0.7600560
  O        2.8120520    -0.8324970    -0.4615260
  O       -2.8120520    -0.8324980     0.4615220
  C        0.4856120    -0.1117560    -0.5938050
  C       -0.4856120    -0.1117600     0.5938040
  C        1.9157900    -0.1063220    -0.1389790
  C       -1.9157900    -0.1063230     0.1389780
  H        0.3463190    -0.9890650    -1.2292190
  H        0.3197670     0.7835690    -1.2005600
  H       -0.3197660     0.7835590     1.2005670
  H       -0.3463190    -0.9890750     1.2292110
units angstrom
no_reorient  #important for SAPT in psi4, default
symmetry c1  #important for SAPT in psi4, default
}

set PROPERTIES_ORIGIN ["COM"]
properties('MP2/aug-cc-pvtz', properties = ['dipole'])
--------------------------------------------------------------------------

    Molecular point group: c1
  Charge       = 0
  Multiplicity = 1
  Basis Set: AUG-CC-PVTZ
    Blend: AUG-CC-PVTZ
  Basis Set: (AUG-CC-PVTZ AUX)
    Blend: AUG-CC-PVTZ-JKFIT

    Orbital Energies [Eh]
    ---------------------

    Doubly Occupied:

       1A    -26.349480     2A    -26.344806     3A    -20.606694
       4A    -20.600520     5A    -11.451295     6A    -11.447638
       7A    -11.305516     8A    -11.303625     9A     -1.667758
      10A     -1.663509    11A     -1.444187    12A     -1.438628
      13A     -1.143036    14A     -1.006267    15A     -0.865415
      16A     -0.855842    17A     -0.773321    18A     -0.751068
      19A     -0.743308    20A     -0.733890    21A     -0.730942
      22A     -0.716421    23A     -0.674673    24A     -0.638578
      25A     -0.627136    26A     -0.596839    27A     -0.581660
      28A     -0.551814    29A     -0.538405    30A     -0.519670
      31A     -0.497002

  @DF-RHF Final Energy:  -502.61945990536532

   => Energetics <=

    Nuclear Repulsion Energy =            362.6066873447601324
    One-Electron Energy =               -1412.1144107823697595
    Two-Electron Energy =                 546.8882635322443093
    Total Energy =                       -502.6194599053653747
  Basis Set: (AUG-CC-PVTZ AUX)
    Blend: AUG-CC-PVTZ-RI
    Molecular point group: c1

    Geometry (in Angstrom), charge = 0, multiplicity = 1:

       Center              X                  Y                   Z               Mass
    ------------   -----------------  -----------------  -----------------  -----------------
         F            2.199833892383     0.866483487765     0.764470214097    18.998403162730
         F           -2.136867607617     0.894272787765    -0.760869185903    18.998403162730
         O            2.797814392383    -0.846445212235    -0.462339185903    15.994914619570
         O           -2.826289607617    -0.846446212235     0.460708814097    15.994914619570
         C            0.471374392383    -0.125704212235    -0.594618185903    12.000000000000
         C           -0.499849607617    -0.125708212235     0.592990814097    12.000000000000
         C            1.901552392383    -0.120270212235    -0.139792185903    12.000000000000
         C           -1.930027607617    -0.120271212235     0.138164814097    12.000000000000
         H            0.332081392383    -1.003013212235    -1.230032185903     1.007825032230
         H            0.305529392383     0.769620787765    -1.201373185903     1.007825032230
         H           -0.334003607617     0.769610787765     1.199753814097     1.007825032230
         H           -0.360556607617    -1.003023212235     1.228397814097     1.007825032230

  Basis Set: AUG-CC-PVTZ
    Blend: AUG-CC-PVTZ
  Basis Set: (AUG-CC-PVTZ AUX)
    Blend: AUG-CC-PVTZ-JKFIT
	 Reference Energy          =    -502.6194599053653178 [Eh]
	 Singles Energy            =      -0.0000000000000000 [Eh]
	 Same-Spin Energy          =      -0.4437361048181429 [Eh]
	 Opposite-Spin Energy      =      -1.3252368250897966 [Eh]
	 Correlation Energy        =      -1.7689729299079393 [Eh]
	 Total Energy              =    -504.3884328352732496 [Eh]

	 ================> DF-SCS-MP2 Energies <==================
	-----------------------------------------------------------
	 SCS Same-Spin Scale       =       0.3333333333333333 [-]
	 SCS Opposite-Spin Scale   =       1.2000000000000000 [-]
	 SCS Same-Spin Energy      =      -0.1479120349393809 [Eh]
	 SCS Opposite-Spin Energy  =      -1.5902841901077558 [Eh]
	 SCS Correlation Energy    =      -1.7381962250471368 [Eh]
	 SCS Total Energy          =    -504.3576561304124652 [Eh]
	-----------------------------------------------------------

  Dipole Moment: [D]
     X:    -0.1969      Y:     0.6284      Z:    -0.0194     Total:     0.6588

*** Psi4 exiting successfully. Buy a developer a beer!
