                               Psi4 1.4a3.dev225

  ==> Input File <==

--------------------------------------------------------------------------
#psi4
#
memory 32 gb

molecule  {
0 1
  F        2.1226300     0.9082170     0.7600610
  F       -2.1226300     0.9082210    -0.7600560
  O        2.8120520    -0.8324970    -0.4615260
  O       -2.8120520    -0.8324980     0.4615220
  C        0.4856120    -0.1117560    -0.5938050
  C       -0.5058529    -0.1580470     0.5760436
  C        1.9157900    -0.1063220    -0.1389790
  C       -1.9157900    -0.1063230     0.1389780
  H        0.3463190    -0.9890650    -1.2292190
  H        0.3197670     0.7835690    -1.2005600
  H       -0.3197660     0.7835590     1.2005670
  H       -0.3463190    -0.9890750     1.2292110
units angstrom
no_reorient  #important for SAPT in psi4, default
symmetry c1  #important for SAPT in psi4, default
}

set PROPERTIES_ORIGIN ["COM"]
properties('MP2/aug-cc-pvtz', properties = ['dipole'])
--------------------------------------------------------------------------

    Molecular point group: c1
  Charge       = 0
  Multiplicity = 1
  Basis Set: AUG-CC-PVTZ
    Blend: AUG-CC-PVTZ
  Basis Set: (AUG-CC-PVTZ AUX)
    Blend: AUG-CC-PVTZ-JKFIT

    Orbital Energies [Eh]
    ---------------------

    Doubly Occupied:

       1A    -26.349280     2A    -26.348433     3A    -20.606057
       4A    -20.603767     5A    -11.450616     6A    -11.449121
       7A    -11.302600     8A    -11.301930     9A     -1.667243
      10A     -1.666587    11A     -1.443499    12A     -1.442650
      13A     -1.142116    14A     -1.008561    15A     -0.867001
      16A     -0.855704    17A     -0.773885    18A     -0.752818
      19A     -0.744338    20A     -0.735819    21A     -0.731267
      22A     -0.717108    23A     -0.669988    24A     -0.639375
      25A     -0.629412    26A     -0.598553    27A     -0.578126
      28A     -0.551422    29A     -0.535749    30A     -0.518252
      31A     -0.498080

  @DF-RHF Final Energy:  -502.61691544685067

   => Energetics <=

    Nuclear Repulsion Energy =            363.4947316179393511
    One-Electron Energy =               -1413.8645835603001615
    Two-Electron Energy =                 547.7529364955101983
    Total Energy =                       -502.6169154468506122
  Basis Set: (AUG-CC-PVTZ AUX)
    Blend: AUG-CC-PVTZ-RI
    Molecular point group: c1

    Geometry (in Angstrom), charge = 0, multiplicity = 1:

       Center              X                  Y                   Z               Mass
    ------------   -----------------  -----------------  -----------------  -----------------
         F            2.124620607289     0.894494719047     0.761807618596    18.998403162730
         F           -2.120639392711     0.894498719047    -0.758309381404    18.998403162730
         O            2.814042607289    -0.846219280953    -0.459779381404    15.994914619570
         O           -2.810061392711    -0.846220280953     0.463268618596    15.994914619570
         C            0.487602607289    -0.125478280953    -0.592058381404    12.000000000000
         C           -0.503862292711    -0.171769280953     0.577790218596    12.000000000000
         C            1.917780607289    -0.120044280953    -0.137232381404    12.000000000000
         C           -1.913799392711    -0.120045280953     0.140724618596    12.000000000000
         H            0.348309607289    -1.002787280953    -1.227472381404     1.007825032230
         H            0.321757607289     0.769846719047    -1.198813381404     1.007825032230
         H           -0.317775392711     0.769836719047     1.202313618596     1.007825032230
         H           -0.344328392711    -1.002797280953     1.230957618596     1.007825032230

  Basis Set: AUG-CC-PVTZ
    Blend: AUG-CC-PVTZ
  Basis Set: (AUG-CC-PVTZ AUX)
    Blend: AUG-CC-PVTZ-JKFIT
	 Reference Energy          =    -502.6169154468506690 [Eh]
	 Singles Energy            =      -0.0000000000000000 [Eh]
	 Same-Spin Energy          =      -0.4441950581617741 [Eh]
	 Opposite-Spin Energy      =      -1.3258616730679742 [Eh]
	 Correlation Energy        =      -1.7700567312297482 [Eh]
	 Total Energy              =    -504.3869721780804412 [Eh]

	 ================> DF-SCS-MP2 Energies <==================
	-----------------------------------------------------------
	 SCS Same-Spin Scale       =       0.3333333333333333 [-]
	 SCS Opposite-Spin Scale   =       1.2000000000000000 [-]
	 SCS Same-Spin Energy      =      -0.1480650193872580 [Eh]
	 SCS Opposite-Spin Energy  =      -1.5910340076815690 [Eh]
	 SCS Correlation Energy    =      -1.7390990270688269 [Eh]
	 SCS Total Energy          =    -504.3560144739195152 [Eh]
	-----------------------------------------------------------

  Dipole Moment: [D]
     X:     0.0592      Y:     0.5933      Z:     0.0022     Total:     0.5962

*** Psi4 exiting successfully. Buy a developer a beer!
