                               Psi4 1.4a3.dev225

  ==> Input File <==

--------------------------------------------------------------------------
#psi4
#
memory 32 gb

molecule  {
0 1
  F        2.1226300     0.9082170     0.7600610
  F       -2.1226300     0.9082210    -0.7600560
  O        2.8120520    -0.8324970    -0.4615260
  O       -2.8120520    -0.8324980     0.4615220
  C        0.4856120    -0.1117560    -0.5938050
  C       -0.4856120    -0.1117600     0.5938040
  C        1.9157900    -0.1063220    -0.1389790
  C       -1.9341226    -0.2383045     0.2221738
  H        0.3463190    -0.9890650    -1.2292190
  H        0.3197670     0.7835690    -1.2005600
  H       -0.3197660     0.7835590     1.2005670
  H       -0.3463190    -0.9890750     1.2292110
units angstrom
no_reorient  #important for SAPT in psi4, default
symmetry c1  #important for SAPT in psi4, default
}

set PROPERTIES_ORIGIN ["COM"]
properties('MP2/aug-cc-pvtz', properties = ['dipole'])
--------------------------------------------------------------------------

    Molecular point group: c1
  Charge       = 0
  Multiplicity = 1
  Basis Set: AUG-CC-PVTZ
    Blend: AUG-CC-PVTZ
  Basis Set: (AUG-CC-PVTZ AUX)
    Blend: AUG-CC-PVTZ-JKFIT

    Orbital Energies [Eh]
    ---------------------

    Doubly Occupied:

       1A    -26.348272     2A    -26.274971     3A    -20.635058
       4A    -20.605510     5A    -11.450110     6A    -11.438973
       7A    -11.309154     8A    -11.301572     9A     -1.666548
      10A     -1.590197    11A     -1.524273    12A     -1.443046
      13A     -1.141281    14A     -1.007004    15A     -0.861148
      16A     -0.820807    17A     -0.765903    18A     -0.757231
      19A     -0.743623    20A     -0.732967    21A     -0.719502
      22A     -0.702785    23A     -0.673022    24A     -0.626747
      25A     -0.616737    26A     -0.600211    27A     -0.584835
      28A     -0.569220    29A     -0.543885    30A     -0.528404
      31A     -0.500534

  @DF-RHF Final Energy:  -502.59607387574624

   => Energetics <=

    Nuclear Repulsion Energy =            363.2198533061390435
    One-Electron Energy =               -1413.4647906239667918
    Two-Electron Energy =                 547.6488634420816197
    Total Energy =                       -502.5960738757462423
  Basis Set: (AUG-CC-PVTZ AUX)
    Blend: AUG-CC-PVTZ-RI
    Molecular point group: c1

    Geometry (in Angstrom), charge = 0, multiplicity = 1:

       Center              X                  Y                   Z               Mass
    ------------   -----------------  -----------------  -----------------  -----------------
         F            2.124432933240     0.902922447267     0.751878960213    18.998403162730
         F           -2.120827066760     0.902926447267    -0.768238039787    18.998403162730
         O            2.813854933240    -0.837791552733    -0.469708039787    15.994914619570
         O           -2.810249066760    -0.837792552733     0.453339960213    15.994914619570
         C            0.487414933240    -0.117050552733    -0.601987039787    12.000000000000
         C           -0.483809066760    -0.117054552733     0.585621960213    12.000000000000
         C            1.917592933240    -0.111616552733    -0.147161039787    12.000000000000
         C           -1.932319666760    -0.243599052733     0.213991760213    12.000000000000
         H            0.348121933240    -0.994359552733    -1.237401039787     1.007825032230
         H            0.321569933240     0.778274447267    -1.208742039787     1.007825032230
         H           -0.317963066760     0.778264447267     1.192384960213     1.007825032230
         H           -0.344516066760    -0.994369552733     1.221028960213     1.007825032230

  Basis Set: AUG-CC-PVTZ
    Blend: AUG-CC-PVTZ
  Basis Set: (AUG-CC-PVTZ AUX)
    Blend: AUG-CC-PVTZ-JKFIT
	 Reference Energy          =    -502.5960738757462423 [Eh]
	 Singles Energy            =      -0.0000000000000000 [Eh]
	 Same-Spin Energy          =      -0.4430960705305809 [Eh]
	 Opposite-Spin Energy      =      -1.3241260840830047 [Eh]
	 Correlation Energy        =      -1.7672221546135856 [Eh]
	 Total Energy              =    -504.3632960303598338 [Eh]

	 ================> DF-SCS-MP2 Energies <==================
	-----------------------------------------------------------
	 SCS Same-Spin Scale       =       0.3333333333333333 [-]
	 SCS Opposite-Spin Scale   =       1.2000000000000000 [-]
	 SCS Same-Spin Energy      =      -0.1476986901768603 [Eh]
	 SCS Opposite-Spin Energy  =      -1.5889513008996057 [Eh]
	 SCS Correlation Energy    =      -1.7366499910764659 [Eh]
	 SCS Total Energy          =    -504.3327238668227324 [Eh]
	-----------------------------------------------------------

  Dipole Moment: [D]
     X:    -0.1546      Y:    -0.5350      Z:     0.8242     Total:     0.9947

*** Psi4 exiting successfully. Buy a developer a beer!
