                               Psi4 1.4a3.dev225

  ==> Input File <==

--------------------------------------------------------------------------
#psi4
#
memory 32 gb

molecule  {
0 1
  F        2.1226300     0.9082170     0.7600610
  F       -2.1226300     0.9082210    -0.7600560
  O        2.8120520    -0.8324970    -0.4615260
  O       -2.8120520    -0.8324980     0.4615220
  C        0.4751674    -0.1349933    -0.6020448
  C       -0.4856120    -0.1117600     0.5938040
  C        1.9157900    -0.1063220    -0.1389790
  C       -1.9157900    -0.1063230     0.1389780
  H        0.3463190    -0.9890650    -1.2292190
  H        0.3197670     0.7835690    -1.2005600
  H       -0.3197660     0.7835590     1.2005670
  H       -0.3463190    -0.9890750     1.2292110
units angstrom
no_reorient  #important for SAPT in psi4, default
symmetry c1  #important for SAPT in psi4, default
}

set PROPERTIES_ORIGIN ["COM"]
properties('MP2/aug-cc-pvtz', properties = ['dipole'])
--------------------------------------------------------------------------

    Molecular point group: c1
  Charge       = 0
  Multiplicity = 1
  Basis Set: AUG-CC-PVTZ
    Blend: AUG-CC-PVTZ
  Basis Set: (AUG-CC-PVTZ AUX)
    Blend: AUG-CC-PVTZ-JKFIT

    Orbital Energies [Eh]
    ---------------------

    Doubly Occupied:

       1A    -26.349135     2A    -26.348054     3A    -20.605115
       4A    -20.604566     5A    -11.449968     6A    -11.449535
       7A    -11.302082     8A    -11.301418     9A     -1.666770
      10A     -1.666263    11A     -1.442758    12A     -1.442344
      13A     -1.140378    14A     -1.003511    15A     -0.866074
      16A     -0.856340    17A     -0.773238    18A     -0.752160
      19A     -0.742438    20A     -0.735190    21A     -0.730038
      22A     -0.717198    23A     -0.674072    24A     -0.636948
      25A     -0.626836    26A     -0.598471    27A     -0.580941
      28A     -0.552559    29A     -0.539291    30A     -0.519650
      31A     -0.495067

  @DF-RHF Final Energy:  -502.61938043974737

   => Energetics <=

    Nuclear Repulsion Energy =            363.2165831307861481
    One-Electron Energy =               -1413.3351089475786466
    Two-Electron Energy =                 547.4991453770451244
    Total Energy =                       -502.6193804397473741
  Basis Set: (AUG-CC-PVTZ AUX)
    Blend: AUG-CC-PVTZ-RI
    Molecular point group: c1

    Geometry (in Angstrom), charge = 0, multiplicity = 1:

       Center              X                  Y                   Z               Mass
    ------------   -----------------  -----------------  -----------------  -----------------
         F            2.123657178435     0.892227868698     0.760871303788    18.998403162730
         F           -2.121602821565     0.892231868698    -0.759245696212    18.998403162730
         O            2.813079178435    -0.848486131302    -0.460715696212    15.994914619570
         O           -2.811024821565    -0.848487131302     0.462332303788    15.994914619570
         C            0.476194578435    -0.150982431302    -0.601234496212    12.000000000000
         C           -0.484584821565    -0.127749131302     0.594614303788    12.000000000000
         C            1.916817178435    -0.122311131302    -0.138168696212    12.000000000000
         C           -1.914762821565    -0.122312131302     0.139788303788    12.000000000000
         H            0.347346178435    -1.005054131302    -1.228408696212     1.007825032230
         H            0.320794178435     0.767579868698    -1.199749696212     1.007825032230
         H           -0.318738821565     0.767569868698     1.201377303788     1.007825032230
         H           -0.345291821565    -1.005064131302     1.230021303788     1.007825032230

  Basis Set: AUG-CC-PVTZ
    Blend: AUG-CC-PVTZ
  Basis Set: (AUG-CC-PVTZ AUX)
    Blend: AUG-CC-PVTZ-JKFIT
	 Reference Energy          =    -502.6193804397473741 [Eh]
	 Singles Energy            =      -0.0000000000000000 [Eh]
	 Same-Spin Energy          =      -0.4438995143219794 [Eh]
	 Opposite-Spin Energy      =      -1.3254898079658139 [Eh]
	 Correlation Energy        =      -1.7693893222877932 [Eh]
	 Total Energy              =    -504.3887697620351673 [Eh]

	 ================> DF-SCS-MP2 Energies <==================
	-----------------------------------------------------------
	 SCS Same-Spin Scale       =       0.3333333333333333 [-]
	 SCS Opposite-Spin Scale   =       1.2000000000000000 [-]
	 SCS Same-Spin Energy      =      -0.1479665047739931 [Eh]
	 SCS Opposite-Spin Energy  =      -1.5905877695589767 [Eh]
	 SCS Correlation Energy    =      -1.7385542743329698 [Eh]
	 SCS Total Energy          =    -504.3579347140803293 [Eh]
	-----------------------------------------------------------

  Dipole Moment: [D]
     X:     0.0016      Y:     0.6000      Z:     0.0034     Total:     0.6000

*** Psi4 exiting successfully. Buy a developer a beer!
