                               Psi4 1.4a3.dev225

  ==> Input File <==

--------------------------------------------------------------------------
#psi4
#
memory 32 gb

molecule  {
0 1
  F        2.1226300     0.9082170     0.7600610
  F       -2.1226300     0.9082210    -0.7600560
  O        2.8120520    -0.8324970    -0.4615260
  O       -2.8120520    -0.8324980     0.4615220
  C        0.4856120    -0.1117560    -0.5938050
  C       -0.4856120    -0.1117600     0.5938040
  C        1.9157900    -0.1063220    -0.1389790
  C       -1.9157900    -0.1063230     0.1389780
  H        0.3463190    -0.9890650    -1.2292190
  H        0.3197670     0.7835690    -1.2005600
  H       -0.3349229     0.7017345     1.1451141
  H       -0.3463190    -0.9890750     1.2292110
units angstrom
no_reorient  #important for SAPT in psi4, default
symmetry c1  #important for SAPT in psi4, default
}

set PROPERTIES_ORIGIN ["COM"]
properties('MP2/aug-cc-pvtz', properties = ['dipole'])
--------------------------------------------------------------------------

    Molecular point group: c1
  Charge       = 0
  Multiplicity = 1
  Basis Set: AUG-CC-PVTZ
    Blend: AUG-CC-PVTZ
  Basis Set: (AUG-CC-PVTZ AUX)
    Blend: AUG-CC-PVTZ-JKFIT

    Orbital Energies [Eh]
    ---------------------

    Doubly Occupied:

       1A    -26.348676     2A    -26.348453     3A    -20.605557
       4A    -20.605338     5A    -11.449904     6A    -11.449801
       7A    -11.301252     8A    -11.290901     9A     -1.667041
      10A     -1.666579    11A     -1.443151    12A     -1.442832
      13A     -1.145940    14A     -1.009503    15A     -0.867105
      16A     -0.858929    17A     -0.776665    18A     -0.752847
      19A     -0.743961    20A     -0.735867    21A     -0.732623
      22A     -0.718556    23A     -0.680579    24A     -0.638588
      25A     -0.628393    26A     -0.595554    27A     -0.583869
      28A     -0.554589    29A     -0.540757    30A     -0.521390
      31A     -0.497046

  @DF-RHF Final Energy:  -502.61409840457526

   => Energetics <=

    Nuclear Repulsion Energy =            363.8739304475528229
    One-Electron Energy =               -1414.5715627708261763
    Two-Electron Energy =                 548.0835339186980946
    Total Energy =                       -502.6140984045753157
  Basis Set: (AUG-CC-PVTZ AUX)
    Blend: AUG-CC-PVTZ-RI
    Molecular point group: c1

    Geometry (in Angstrom), charge = 0, multiplicity = 1:

       Center              X                  Y                   Z               Mass
    ------------   -----------------  -----------------  -----------------  -----------------
         F            2.122755182378     0.890618410060     0.760518972149    18.998403162730
         F           -2.122504817622     0.890622410060    -0.759598027851    18.998403162730
         O            2.812177182378    -0.850095589940    -0.461068027851    15.994914619570
         O           -2.811926817622    -0.850096589940     0.461979972149    15.994914619570
         C            0.485737182378    -0.129354589940    -0.593347027851    12.000000000000
         C           -0.485486817622    -0.129358589940     0.594261972149    12.000000000000
         C            1.915915182378    -0.123920589940    -0.138521027851    12.000000000000
         C           -1.915664817622    -0.123921589940     0.139435972149    12.000000000000
         H            0.346444182378    -1.006663589940    -1.228761027851     1.007825032230
         H            0.319892182378     0.765970410060    -1.200102027851     1.007825032230
         H           -0.334797717622     0.684135910060     1.145572072149     1.007825032230
         H           -0.346193817622    -1.006673589940     1.229668972149     1.007825032230

  Basis Set: AUG-CC-PVTZ
    Blend: AUG-CC-PVTZ
  Basis Set: (AUG-CC-PVTZ AUX)
    Blend: AUG-CC-PVTZ-JKFIT
	 Reference Energy          =    -502.6140984045752589 [Eh]
	 Singles Energy            =      -0.0000000000000000 [Eh]
	 Same-Spin Energy          =      -0.4439059948205615 [Eh]
	 Opposite-Spin Energy      =      -1.3251313980273773 [Eh]
	 Correlation Energy        =      -1.7690373928479388 [Eh]
	 Total Energy              =    -504.3831357974232219 [Eh]

	 ================> DF-SCS-MP2 Energies <==================
	-----------------------------------------------------------
	 SCS Same-Spin Scale       =       0.3333333333333333 [-]
	 SCS Opposite-Spin Scale   =       1.2000000000000000 [-]
	 SCS Same-Spin Energy      =      -0.1479686649401872 [Eh]
	 SCS Opposite-Spin Energy  =      -1.5901576776328528 [Eh]
	 SCS Correlation Energy    =      -1.7381263425730400 [Eh]
	 SCS Total Energy          =    -504.3522247471482842 [Eh]
	-----------------------------------------------------------

  Dipole Moment: [D]
     X:    -0.0185      Y:     0.5923      Z:    -0.0033     Total:     0.5926

*** Psi4 exiting successfully. Buy a developer a beer!
