                               Psi4 1.4a3.dev225

  ==> Input File <==

--------------------------------------------------------------------------
#psi4
#
memory 32 gb

molecule  {
0 1
  F        2.1226300     0.9082170     0.7600610
  F       -2.1226300     0.9082210    -0.7600560
  O        2.8120520    -0.8324970    -0.4615260
  O       -2.8120520    -0.8324980     0.4615220
  C        0.4856120    -0.1117560    -0.5938050
  C       -0.4856120    -0.1117600     0.5938040
  C        1.9157900    -0.1063220    -0.1389790
  C       -1.8409624    -0.0456957     0.1120493
  H        0.3463190    -0.9890650    -1.2292190
  H        0.3197670     0.7835690    -1.2005600
  H       -0.3197660     0.7835590     1.2005670
  H       -0.3463190    -0.9890750     1.2292110
units angstrom
no_reorient  #important for SAPT in psi4, default
symmetry c1  #important for SAPT in psi4, default
}

set PROPERTIES_ORIGIN ["COM"]
properties('MP2/aug-cc-pvtz', properties = ['dipole'])
--------------------------------------------------------------------------

    Molecular point group: c1
  Charge       = 0
  Multiplicity = 1
  Basis Set: AUG-CC-PVTZ
    Blend: AUG-CC-PVTZ
  Basis Set: (AUG-CC-PVTZ AUX)
    Blend: AUG-CC-PVTZ-JKFIT

    Orbital Energies [Eh]
    ---------------------

    Doubly Occupied:

       1A    -26.374285     2A    -26.351701     3A    -20.608846
       4A    -20.589000     5A    -11.459694     6A    -11.453511
       7A    -11.307480     8A    -11.303528     9A     -1.703376
      10A     -1.669954    11A     -1.446253    12A     -1.370138
      13A     -1.155879    14A     -1.020817    15A     -0.885245
      16A     -0.863817    17A     -0.787426    18A     -0.766345
      19A     -0.750584    20A     -0.740672    21A     -0.738839
      22A     -0.714949    23A     -0.677432    24A     -0.639781
      25A     -0.615940    26A     -0.603431    27A     -0.582362
      28A     -0.549993    29A     -0.518434    30A     -0.500116
      31A     -0.490101

  @DF-RHF Final Energy:  -502.59475022174416

   => Energetics <=

    Nuclear Repulsion Energy =            363.7119870193694169
    One-Electron Energy =               -1414.1336123347123248
    Two-Electron Energy =                 547.8268750935988010
    Total Energy =                       -502.5947502217441070
  Basis Set: (AUG-CC-PVTZ AUX)
    Blend: AUG-CC-PVTZ-RI
    Molecular point group: c1

    Geometry (in Angstrom), charge = 0, multiplicity = 1:

       Center              X                  Y                   Z               Mass
    ------------   -----------------  -----------------  -----------------  -----------------
         F            2.115270981814     0.883980104185     0.762709286038    18.998403162730
         F           -2.129989018186     0.883984104185    -0.757407713962    18.998403162730
         O            2.804692981814    -0.856733895815    -0.458877713962    15.994914619570
         O           -2.819411018186    -0.856734895815     0.464170286038    15.994914619570
         C            0.478252981814    -0.135992895815    -0.591156713962    12.000000000000
         C           -0.492971018186    -0.135996895815     0.596452286038    12.000000000000
         C            1.908430981814    -0.130558895815    -0.136330713962    12.000000000000
         C           -1.848321418186    -0.069932595815     0.114697586038    12.000000000000
         H            0.338959981814    -1.013301895815    -1.226570713962     1.007825032230
         H            0.312407981814     0.759332104185    -1.197911713962     1.007825032230
         H           -0.327125018186     0.759322104185     1.203215286038     1.007825032230
         H           -0.353678018186    -1.013311895815     1.231859286038     1.007825032230

  Basis Set: AUG-CC-PVTZ
    Blend: AUG-CC-PVTZ
  Basis Set: (AUG-CC-PVTZ AUX)
    Blend: AUG-CC-PVTZ-JKFIT
	 Reference Energy          =    -502.5947502217441638 [Eh]
	 Singles Energy            =      -0.0000000000000000 [Eh]
	 Same-Spin Energy          =      -0.4466302385183858 [Eh]
	 Opposite-Spin Energy      =      -1.3307692086824534 [Eh]
	 Correlation Energy        =      -1.7773994472008392 [Eh]
	 Total Energy              =    -504.3721496689449850 [Eh]

	 ================> DF-SCS-MP2 Energies <==================
	-----------------------------------------------------------
	 SCS Same-Spin Scale       =       0.3333333333333333 [-]
	 SCS Opposite-Spin Scale   =       1.2000000000000000 [-]
	 SCS Same-Spin Energy      =      -0.1488767461727953 [Eh]
	 SCS Opposite-Spin Energy  =      -1.5969230504189440 [Eh]
	 SCS Correlation Energy    =      -1.7457997965917393 [Eh]
	 SCS Total Energy          =    -504.3405500183358754 [Eh]
	-----------------------------------------------------------

  Dipole Moment: [D]
     X:     0.4868      Y:     1.0715      Z:    -0.2605     Total:     1.2054

*** Psi4 exiting successfully. Buy a developer a beer!
