                               Psi4 1.4a3.dev225

  ==> Input File <==

--------------------------------------------------------------------------
#psi4
#
memory 32 gb

molecule  {
0 1
  F        2.1226300     0.9082170     0.7600610
  F       -2.1226300     0.9082210    -0.7600560
  O        2.8120520    -0.8324970    -0.4615260
  O       -2.8120520    -0.8324980     0.4615220
  C        0.4856120    -0.1117560    -0.5938050
  C       -0.4856120    -0.1117600     0.5938040
  C        1.9008245    -0.0941965    -0.1335932
  C       -1.9157900    -0.1063230     0.1389780
  H        0.3463190    -0.9890650    -1.2292190
  H        0.3197670     0.7835690    -1.2005600
  H       -0.3197660     0.7835590     1.2005670
  H       -0.3463190    -0.9890750     1.2292110
units angstrom
no_reorient  #important for SAPT in psi4, default
symmetry c1  #important for SAPT in psi4, default
}

set PROPERTIES_ORIGIN ["COM"]
properties('MP2/aug-cc-pvtz', properties = ['dipole'])
--------------------------------------------------------------------------

    Molecular point group: c1
  Charge       = 0
  Multiplicity = 1
  Basis Set: AUG-CC-PVTZ
    Blend: AUG-CC-PVTZ
  Basis Set: (AUG-CC-PVTZ AUX)
    Blend: AUG-CC-PVTZ-JKFIT

    Orbital Energies [Eh]
    ---------------------

    Doubly Occupied:

       1A    -26.353776     2A    -26.348935     3A    -20.606074
       4A    -20.602192     5A    -11.452125     6A    -11.450654
       7A    -11.302964     8A    -11.301988     9A     -1.673982
      10A     -1.667201    11A     -1.443605    12A     -1.427501
      13A     -1.143883    14A     -1.008660    15A     -0.869223
      16A     -0.857940    17A     -0.775885    18A     -0.754077
      19A     -0.743728    20A     -0.736474    21A     -0.732608
      22A     -0.716725    23A     -0.673910    24A     -0.637971
      25A     -0.626763    26A     -0.595959    27A     -0.580505
      28A     -0.550381    29A     -0.534662    30A     -0.518856
      31A     -0.496675

  @DF-RHF Final Energy:  -502.61734374160471

   => Energetics <=

    Nuclear Repulsion Energy =            363.4177323440704868
    One-Electron Energy =               -1413.6983913335291163
    Two-Electron Energy =                 547.6633152478538022
    Total Energy =                       -502.6173437416047136
  Basis Set: (AUG-CC-PVTZ AUX)
    Blend: AUG-CC-PVTZ-RI
    Molecular point group: c1

    Geometry (in Angstrom), charge = 0, multiplicity = 1:

       Center              X                  Y                   Z               Mass
    ------------   -----------------  -----------------  -----------------  -----------------
         F            2.124101791759     0.888750071786     0.759531277839    18.998403162730
         F           -2.121158208241     0.888754071786    -0.760585722161    18.998403162730
         O            2.813523791759    -0.851963928214    -0.462055722161    15.994914619570
         O           -2.810580208241    -0.851964928214     0.460992277839    15.994914619570
         C            0.487083791759    -0.131222928214    -0.594334722161    12.000000000000
         C           -0.484140208241    -0.131226928214     0.593274277839    12.000000000000
         C            1.902296291759    -0.113663428214    -0.134122922161    12.000000000000
         C           -1.914318208241    -0.125789928214     0.138448277839    12.000000000000
         H            0.347790791759    -1.008531928214    -1.229748722161     1.007825032230
         H            0.321238791759     0.764102071786    -1.201089722161     1.007825032230
         H           -0.318294208241     0.764092071786     1.200037277839     1.007825032230
         H           -0.344847208241    -1.008541928214     1.228681277839     1.007825032230

  Basis Set: AUG-CC-PVTZ
    Blend: AUG-CC-PVTZ
  Basis Set: (AUG-CC-PVTZ AUX)
    Blend: AUG-CC-PVTZ-JKFIT
	 Reference Energy          =    -502.6173437416047136 [Eh]
	 Singles Energy            =      -0.0000000000000000 [Eh]
	 Same-Spin Energy          =      -0.4444695033661868 [Eh]
	 Opposite-Spin Energy      =      -1.3265565886817652 [Eh]
	 Correlation Energy        =      -1.7710260920479519 [Eh]
	 Total Energy              =    -504.3883698336526891 [Eh]

	 ================> DF-SCS-MP2 Energies <==================
	-----------------------------------------------------------
	 SCS Same-Spin Scale       =       0.3333333333333333 [-]
	 SCS Opposite-Spin Scale   =       1.2000000000000000 [-]
	 SCS Same-Spin Energy      =      -0.1481565011220623 [Eh]
	 SCS Opposite-Spin Energy  =      -1.5918679064181183 [Eh]
	 SCS Correlation Energy    =      -1.7400244075401805 [Eh]
	 SCS Total Energy          =    -504.3573681491449179 [Eh]
	-----------------------------------------------------------

  Dipole Moment: [D]
     X:    -0.1035      Y:     0.7047      Z:     0.0565     Total:     0.7145

*** Psi4 exiting successfully. Buy a developer a beer!
