                               Psi4 1.4a3.dev225

  ==> Input File <==

--------------------------------------------------------------------------
#psi4
#
memory 32 gb

molecule  {
0 1
  F        2.1226300     0.9082170     0.7600610
  F       -2.1226300     0.9082210    -0.7600560
  O        2.8120520    -0.8324970    -0.4615260
  O       -2.8120520    -0.8324980     0.4615220
  C        0.4856120    -0.1117560    -0.5938050
  C       -0.5426877    -0.2503953     0.5362702
  C        1.9157900    -0.1063220    -0.1389790
  C       -1.9157900    -0.1063230     0.1389780
  H        0.3463190    -0.9890650    -1.2292190
  H        0.3197670     0.7835690    -1.2005600
  H       -0.3197660     0.7835590     1.2005670
  H       -0.3463190    -0.9890750     1.2292110
units angstrom
no_reorient  #important for SAPT in psi4, default
symmetry c1  #important for SAPT in psi4, default
}

set PROPERTIES_ORIGIN ["COM"]
properties('MP2/aug-cc-pvtz', properties = ['dipole'])
--------------------------------------------------------------------------

    Molecular point group: c1
  Charge       = 0
  Multiplicity = 1
  Basis Set: AUG-CC-PVTZ
    Blend: AUG-CC-PVTZ
  Basis Set: (AUG-CC-PVTZ AUX)
    Blend: AUG-CC-PVTZ-JKFIT

    Orbital Energies [Eh]
    ---------------------

    Doubly Occupied:

       1A    -26.351137     2A    -26.349056     3A    -20.607587
       4A    -20.600045     5A    -11.452188     6A    -11.447763
       7A    -11.306007     8A    -11.303691     9A     -1.668305
      10A     -1.667126    11A     -1.444741    12A     -1.441999
      13A     -1.144900    14A     -1.014625    15A     -0.869051
      16A     -0.857162    17A     -0.776826    18A     -0.755494
      19A     -0.745523    20A     -0.736838    21A     -0.733030
      22A     -0.717692    23A     -0.662996    24A     -0.644054
      25A     -0.632674    26A     -0.607465    27A     -0.573762
      28A     -0.552099    29A     -0.528078    30A     -0.505922
      31A     -0.497030

  @DF-RHF Final Energy:  -502.59595978559582

   => Energetics <=

    Nuclear Repulsion Energy =            363.7034381215372036
    One-Electron Energy =               -1414.2090605049575061
    Two-Electron Energy =                 547.9096625978245356
    Total Energy =                       -502.5959597855958236
  Basis Set: (AUG-CC-PVTZ AUX)
    Blend: AUG-CC-PVTZ-RI
    Molecular point group: c1

    Geometry (in Angstrom), charge = 0, multiplicity = 1:

       Center              X                  Y                   Z               Mass
    ------------   -----------------  -----------------  -----------------  -----------------
         F            2.128243169804     0.903576823195     0.765719181246    18.998403162730
         F           -2.117016830196     0.903580823195    -0.754397818754    18.998403162730
         O            2.817665169804    -0.837137176805    -0.455867818754    15.994914619570
         O           -2.806438830196    -0.837138176805     0.467180181246    15.994914619570
         C            0.491225169804    -0.116396176805    -0.588146818754    12.000000000000
         C           -0.537074530196    -0.255035476805     0.541928381246    12.000000000000
         C            1.921403169804    -0.110962176805    -0.133320818754    12.000000000000
         C           -1.910176830196    -0.110963176805     0.144636181246    12.000000000000
         H            0.351932169804    -0.993705176805    -1.223560818754     1.007825032230
         H            0.325380169804     0.778928823195    -1.194901818754     1.007825032230
         H           -0.314152830196     0.778918823195     1.206225181246     1.007825032230
         H           -0.340705830196    -0.993715176805     1.234869181246     1.007825032230

  Basis Set: AUG-CC-PVTZ
    Blend: AUG-CC-PVTZ
  Basis Set: (AUG-CC-PVTZ AUX)
    Blend: AUG-CC-PVTZ-JKFIT
	 Reference Energy          =    -502.5959597855958236 [Eh]
	 Singles Energy            =      -0.0000000000000000 [Eh]
	 Same-Spin Energy          =      -0.4449601869418546 [Eh]
	 Opposite-Spin Energy      =      -1.3272866896661539 [Eh]
	 Correlation Energy        =      -1.7722468766080084 [Eh]
	 Total Energy              =    -504.3682066622038178 [Eh]

	 ================> DF-SCS-MP2 Energies <==================
	-----------------------------------------------------------
	 SCS Same-Spin Scale       =       0.3333333333333333 [-]
	 SCS Opposite-Spin Scale   =       1.2000000000000000 [-]
	 SCS Same-Spin Energy      =      -0.1483200623139515 [Eh]
	 SCS Opposite-Spin Energy  =      -1.5927440275993847 [Eh]
	 SCS Correlation Energy    =      -1.7410640899133363 [Eh]
	 SCS Total Energy          =    -504.3370238755091464 [Eh]
	-----------------------------------------------------------

  Dipole Moment: [D]
     X:     0.1915      Y:     0.5706      Z:    -0.0078     Total:     0.6019

*** Psi4 exiting successfully. Buy a developer a beer!
