                               Psi4 1.4a3.dev225

  ==> Input File <==

--------------------------------------------------------------------------
#psi4
#
memory 32 gb

molecule  {
0 1
  F        2.1226300     0.9082170     0.7600610
  F       -2.1226300     0.9082210    -0.7600560
  O        2.8120520    -0.8324970    -0.4615260
  O       -2.8120520    -0.8324980     0.4615220
  C        0.4856120    -0.1117560    -0.5938050
  C       -0.4958819    -0.1349070     0.5851033
  C        1.9157900    -0.1063220    -0.1389790
  C       -1.9157900    -0.1063230     0.1389780
  H        0.3463190    -0.9890650    -1.2292190
  H        0.3197670     0.7835690    -1.2005600
  H       -0.3197660     0.7835590     1.2005670
  H       -0.3463190    -0.9890750     1.2292110
units angstrom
no_reorient  #important for SAPT in psi4, default
symmetry c1  #important for SAPT in psi4, default
}

set PROPERTIES_ORIGIN ["COM"]
properties('MP2/aug-cc-pvtz', properties = ['dipole'])
--------------------------------------------------------------------------

    Molecular point group: c1
  Charge       = 0
  Multiplicity = 1
  Basis Set: AUG-CC-PVTZ
    Blend: AUG-CC-PVTZ
  Basis Set: (AUG-CC-PVTZ AUX)
    Blend: AUG-CC-PVTZ-JKFIT

    Orbital Energies [Eh]
    ---------------------

    Doubly Occupied:

       1A    -26.348770     2A    -26.348330     3A    -20.605714
       4A    -20.604598     5A    -11.450270     6A    -11.449523
       7A    -11.302240     8A    -11.301637     9A     -1.666954
      10A     -1.666482    11A     -1.443244    12A     -1.442775
      13A     -1.141557    14A     -1.007009    15A     -0.866560
      16A     -0.855592    17A     -0.773589    18A     -0.752323
      19A     -0.743866    20A     -0.735580    21A     -0.730919
      22A     -0.717091    23A     -0.671960    24A     -0.638348
      25A     -0.628606    26A     -0.596228    27A     -0.579442
      28A     -0.551761    29A     -0.537983    30A     -0.519597
      31A     -0.497548

  @DF-RHF Final Energy:  -502.61917254940727

   => Energetics <=

    Nuclear Repulsion Energy =            363.4335779157437969
    One-Electron Energy =               -1413.7533098857663845
    Two-Electron Energy =                 547.7005594206152637
    Total Energy =                       -502.6191725494072671
  Basis Set: (AUG-CC-PVTZ AUX)
    Blend: AUG-CC-PVTZ-RI
    Molecular point group: c1

    Geometry (in Angstrom), charge = 0, multiplicity = 1:

       Center              X                  Y                   Z               Mass
    ------------   -----------------  -----------------  -----------------  -----------------
         F            2.123639997354     0.892218988037     0.760916631550    18.998403162730
         F           -2.121620002646     0.892222988037    -0.759200368450    18.998403162730
         O            2.813061997354    -0.848495011963    -0.460670368450    15.994914619570
         O           -2.811042002646    -0.848496011963     0.462377631550    15.994914619570
         C            0.486621997354    -0.127754011963    -0.592949368450    12.000000000000
         C           -0.494871902646    -0.150905011963     0.585958931550    12.000000000000
         C            1.916799997354    -0.122320011963    -0.138123368450    12.000000000000
         C           -1.914780002646    -0.122321011963     0.139833631550    12.000000000000
         H            0.347328997354    -1.005063011963    -1.228363368450     1.007825032230
         H            0.320776997354     0.767570988037    -1.199704368450     1.007825032230
         H           -0.318756002646     0.767560988037     1.201422631550     1.007825032230
         H           -0.345309002646    -1.005073011963     1.230066631550     1.007825032230

  Basis Set: AUG-CC-PVTZ
    Blend: AUG-CC-PVTZ
  Basis Set: (AUG-CC-PVTZ AUX)
    Blend: AUG-CC-PVTZ-JKFIT
	 Reference Energy          =    -502.6191725494072671 [Eh]
	 Singles Energy            =      -0.0000000000000000 [Eh]
	 Same-Spin Energy          =      -0.4440769963158016 [Eh]
	 Opposite-Spin Energy      =      -1.3256965536399012 [Eh]
	 Correlation Energy        =      -1.7697735499557028 [Eh]
	 Total Energy              =    -504.3889460993629541 [Eh]

	 ================> DF-SCS-MP2 Energies <==================
	-----------------------------------------------------------
	 SCS Same-Spin Scale       =       0.3333333333333333 [-]
	 SCS Opposite-Spin Scale   =       1.2000000000000000 [-]
	 SCS Same-Spin Energy      =      -0.1480256654386005 [Eh]
	 SCS Opposite-Spin Energy  =      -1.5908358643678815 [Eh]
	 SCS Correlation Energy    =      -1.7388615298064820 [Eh]
	 SCS Total Energy          =    -504.3580340792137235 [Eh]
	-----------------------------------------------------------

  Dipole Moment: [D]
     X:     0.0290      Y:     0.5987      Z:     0.0018     Total:     0.5994

*** Psi4 exiting successfully. Buy a developer a beer!
