                               Psi4 1.3.2 release

  ==> Input File <==

--------------------------------------------------------------------------
#psi4
#
memory 32 gb

molecule  {
0 1
 Cl        2.5659450    -0.4371030     1.3752130
 Cl        1.7577160     1.6056000    -0.4867050
 Cl        1.4335130    -1.1845460    -1.1803420
 Cl       -1.7577110    -1.6055990    -0.4867100
 Cl       -2.5659460     0.4370970     1.3752140
 Cl       -1.4335160     1.1845510    -1.1803390
  C        0.0000010     0.0000010     0.8764180
  C        1.4180054    -0.0087041     0.2801150
  C       -1.3479090     0.0082740     0.1351610
  H        0.0268670     0.8819410     1.5209820
  H       -0.0268640    -0.8819390     1.5209810
units angstrom
no_reorient  #important for SAPT in psi4, default
symmetry c1  #important for SAPT in psi4, default
}

set PROPERTIES_ORIGIN ["COM"]
properties('MP2/aug-cc-pvtz', properties = ['dipole'])
--------------------------------------------------------------------------

    Molecular point group: c1
  Charge       = 0
  Multiplicity = 1
  Basis Set: AUG-CC-PVTZ
    Blend: AUG-CC-PVTZ
  Basis Set: (AUG-CC-PVTZ AUX)
    Blend: AUG-CC-PVTZ-JKFIT

    Orbital Energies [Eh]
    ---------------------

    Doubly Occupied:

       1A   -104.889593     2A   -104.870059     3A   -104.866820
       4A   -104.865087     5A   -104.861614     6A   -104.852873
       7A    -11.456524     8A    -11.456468     9A    -11.307603
      10A    -10.616480    11A    -10.594535    12A    -10.591500
      13A    -10.589765    14A    -10.585924    15A    -10.576784
      16A     -8.083552    17A     -8.080985    18A     -8.080943
      19A     -8.061243    20A     -8.059140    21A     -8.059134
      22A     -8.058264    23A     -8.056506    24A     -8.056082
      25A     -8.056064    26A     -8.054359    27A     -8.054335
      28A     -8.052574    29A     -8.050538    30A     -8.050518
      31A     -8.043349    32A     -8.041421    33A     -8.041411
      34A     -1.281088    35A     -1.250787    36A     -1.133611
      37A     -1.118082    38A     -1.116893    39A     -1.095621
      40A     -1.051121    41A     -0.870202    42A     -0.792579
      43A     -0.696651    44A     -0.682073    45A     -0.673934
      46A     -0.630571    47A     -0.624257    48A     -0.589482
      49A     -0.570768    50A     -0.524317    51A     -0.515383
      52A     -0.501516    53A     -0.496990    54A     -0.484120
      55A     -0.481482    56A     -0.471443    57A     -0.463624
      58A     -0.454081    59A     -0.451094    60A     -0.448671
      61A     -0.441232

  @DF-RHF Final Energy: -2871.85160599675146

   => Energetics <=

    Nuclear Repulsion Energy =           1105.9256742986192421
    One-Electron Energy =               -6171.6871247837480041
    Two-Electron Energy =                2193.9098444883775301
    Total Energy =                      -2871.8516059967514593
  Basis Set: (AUG-CC-PVTZ AUX)
    Blend: AUG-CC-PVTZ-RI
    Molecular point group: c1

    Geometry (in Angstrom), charge = 0, multiplicity = 1:

       Center              X                  Y                   Z               Mass
    ------------   -----------------  -----------------  -----------------  -----------------
         CL           2.562550693498    -0.437082230884     1.382654189520    34.968852682000
         CL           1.754321693498     1.605620769116    -0.479263810480    34.968852682000
         CL           1.430118693498    -1.184525230884    -1.172900810480    34.968852682000
         CL          -1.761105306502    -1.605578230884    -0.479268810480    34.968852682000
         CL          -2.569340306502     0.437117769116     1.382655189520    34.968852682000
         CL          -1.436910306502     1.184571769116    -1.172897810480    34.968852682000
         C           -0.003393306502     0.000021769116     0.883859189520    12.000000000000
         C            1.414611093498    -0.008683330884     0.287556189520    12.000000000000
         C           -1.351303306502     0.008294769116     0.142602189520    12.000000000000
         H            0.023472693498     0.881961769116     1.528423189520     1.007825032230
         H           -0.030258306502    -0.881918230884     1.528422189520     1.007825032230

  Basis Set: AUG-CC-PVTZ
    Blend: AUG-CC-PVTZ
  Basis Set: (AUG-CC-PVTZ AUX)
    Blend: AUG-CC-PVTZ-JKFIT
	 Reference Energy          =   -2871.8516059967514593 [Eh]
	 Singles Energy            =      -0.0000000000000000 [Eh]
	 Same-Spin Energy          =      -0.5152379795646633 [Eh]
	 Opposite-Spin Energy      =      -1.4602404782825484 [Eh]
	 Correlation Energy        =      -1.9754784578472118 [Eh]
	 Total Energy              =   -2873.8270844545986620 [Eh]

	 ================> DF-SCS-MP2 Energies <==================
	-----------------------------------------------------------
	 SCS Same-Spin Scale       =       0.3333333333333333 [-]
	 SCS Opposite-Spin Scale   =       1.2000000000000000 [-]
	 SCS Same-Spin Energy      =      -0.1717459931882211 [Eh]
	 SCS Opposite-Spin Energy  =      -1.7522885739390581 [Eh]
	 SCS Correlation Energy    =      -1.9240345671272792 [Eh]
	 SCS Total Energy          =   -2873.7756405638788237 [Eh]
	-----------------------------------------------------------

  Dipole Moment: [D]
     X:     0.3864      Y:    -0.0205      Z:     1.6487     Total:     1.6935

*** Psi4 exiting successfully. Buy a developer a beer!
