                               Psi4 1.3.2 release

  ==> Input File <==

--------------------------------------------------------------------------
#psi4
#
memory 32 gb

molecule  {
0 1
 Cl        2.5659450    -0.4371030     1.3752130
 Cl        1.7577160     1.6056000    -0.4867050
 Cl        1.4335130    -1.1845460    -1.1803420
 Cl       -1.7577110    -1.6055990    -0.4867100
 Cl       -2.5659460     0.4370970     1.3752140
 Cl       -1.4335160     1.1845510    -1.1803390
  C        0.0000010     0.0000010     0.8764180
  C        1.3606393    -0.0083521     0.1587946
  C       -1.3479090     0.0082740     0.1351610
  H        0.0268670     0.8819410     1.5209820
  H       -0.0268640    -0.8819390     1.5209810
units angstrom
no_reorient  #important for SAPT in psi4, default
symmetry c1  #important for SAPT in psi4, default
}

set PROPERTIES_ORIGIN ["COM"]
properties('MP2/aug-cc-pvtz', properties = ['dipole'])
--------------------------------------------------------------------------

    Molecular point group: c1
  Charge       = 0
  Multiplicity = 1
  Basis Set: AUG-CC-PVTZ
    Blend: AUG-CC-PVTZ
  Basis Set: (AUG-CC-PVTZ AUX)
    Blend: AUG-CC-PVTZ-JKFIT

    Orbital Energies [Eh]
    ---------------------

    Doubly Occupied:

       1A   -104.873126     2A   -104.869644     3A   -104.868797
       4A   -104.866744     5A   -104.866656     6A   -104.866133
       7A    -11.455091     8A    -11.454767     9A    -11.306850
      10A    -10.597923    11A    -10.594165    12A    -10.593510
      13A    -10.591371    14A    -10.591284    15A    -10.590804
      16A     -8.064682    17A     -8.062528    18A     -8.062515
      19A     -8.060873    20A     -8.060271    21A     -8.058779
      22A     -8.058770    23A     -8.058111    24A     -8.058101
      25A     -8.058082    26A     -8.058009    27A     -8.057531
      28A     -8.055976    29A     -8.055952    30A     -8.055885
      31A     -8.055869    32A     -8.055413    33A     -8.055390
      34A     -1.273597    35A     -1.243482    36A     -1.124311
      37A     -1.121891    38A     -1.116582    39A     -1.112024
      40A     -1.050325    41A     -0.866617    42A     -0.793628
      43A     -0.695842    44A     -0.677029    45A     -0.672399
      46A     -0.628551    47A     -0.617096    48A     -0.593666
      49A     -0.569719    50A     -0.523293    51A     -0.517062
      52A     -0.504346    53A     -0.499924    54A     -0.491308
      55A     -0.477877    56A     -0.473355    57A     -0.464865
      58A     -0.456420    59A     -0.455698    60A     -0.449949
      61A     -0.445296

  @DF-RHF Final Energy: -2871.86737128318146

   => Energetics <=

    Nuclear Repulsion Energy =           1106.6733189696963109
    One-Electron Energy =               -6173.1698795020065518
    Two-Electron Energy =                2194.6291892491290128
    Total Energy =                      -2871.8673712831814555
  Basis Set: (AUG-CC-PVTZ AUX)
    Blend: AUG-CC-PVTZ-RI
    Molecular point group: c1

    Geometry (in Angstrom), charge = 0, multiplicity = 1:

       Center              X                  Y                   Z               Mass
    ------------   -----------------  -----------------  -----------------  -----------------
         CL           2.565328390416    -0.437099274910     1.388528587487    34.968852682000
         CL           1.757099390416     1.605603725090    -0.473389412513    34.968852682000
         CL           1.432896390416    -1.184542274910    -1.167026412513    34.968852682000
         CL          -1.758327609584    -1.605595274910    -0.473394412513    34.968852682000
         CL          -2.566562609584     0.437100725090     1.388529587487    34.968852682000
         CL          -1.434132609584     1.184554725090    -1.167023412513    34.968852682000
         C           -0.000615609584     0.000004725090     0.889733587487    12.000000000000
         C            1.360022690416    -0.008348374910     0.172110187487    12.000000000000
         C           -1.348525609584     0.008277725090     0.148476587487    12.000000000000
         H            0.026250390416     0.881944725090     1.534297587487     1.007825032230
         H           -0.027480609584    -0.881935274910     1.534296587487     1.007825032230

  Basis Set: AUG-CC-PVTZ
    Blend: AUG-CC-PVTZ
  Basis Set: (AUG-CC-PVTZ AUX)
    Blend: AUG-CC-PVTZ-JKFIT
	 Reference Energy          =   -2871.8673712831814555 [Eh]
	 Singles Energy            =      -0.0000000000000000 [Eh]
	 Same-Spin Energy          =      -0.5143754244701744 [Eh]
	 Opposite-Spin Energy      =      -1.4589919439448926 [Eh]
	 Correlation Energy        =      -1.9733673684150670 [Eh]
	 Total Energy              =   -2873.8407386515964390 [Eh]

	 ================> DF-SCS-MP2 Energies <==================
	-----------------------------------------------------------
	 SCS Same-Spin Scale       =       0.3333333333333333 [-]
	 SCS Opposite-Spin Scale   =       1.2000000000000000 [-]
	 SCS Same-Spin Energy      =      -0.1714584748233914 [Eh]
	 SCS Opposite-Spin Energy  =      -1.7507903327338712 [Eh]
	 SCS Correlation Energy    =      -1.9222488075572626 [Eh]
	 SCS Total Energy          =   -2873.7896200907389357 [Eh]
	-----------------------------------------------------------

  Dipole Moment: [D]
     X:     0.0644      Y:    -0.0007      Z:     0.9724     Total:     0.9746

*** Psi4 exiting successfully. Buy a developer a beer!
