                               Psi4 1.3.2 release

  ==> Input File <==

--------------------------------------------------------------------------
#psi4
#
memory 32 gb

molecule  {
0 1
 Cl        2.5659450    -0.4371030     1.3752130
 Cl        1.7577160     1.6056000    -0.4867050
 Cl        1.4335130    -1.1845460    -1.1803420
 Cl       -1.7577110    -1.6055990    -0.4867100
 Cl       -2.5659460     0.4370970     1.3752140
 Cl       -1.4335160     1.1845510    -1.1803390
  C        0.0000010     0.0000010     0.8764180
  C        1.3479080    -0.0082740     0.1351570
  C       -1.3479090     0.0082740     0.1351610
  H        0.0268670     0.8819410     1.5209820
  H       -0.0268640    -0.8819390     1.5209810
units angstrom
no_reorient  #important for SAPT in psi4, default
symmetry c1  #important for SAPT in psi4, default
}

set PROPERTIES_ORIGIN ["COM"]
properties('MP2/aug-cc-pvtz', properties = ['dipole'])
--------------------------------------------------------------------------

    Molecular point group: c1
  Charge       = 0
  Multiplicity = 1
  Basis Set: AUG-CC-PVTZ
    Blend: AUG-CC-PVTZ
  Basis Set: (AUG-CC-PVTZ AUX)
    Blend: AUG-CC-PVTZ-JKFIT

    Orbital Energies [Eh]
    ---------------------

    Doubly Occupied:

       1A   -104.869614     2A   -104.869613     3A   -104.869250
       4A   -104.869250     5A   -104.867020     6A   -104.867020
       7A    -11.454896     8A    -11.454889     9A    -11.306975
      10A    -10.594144    11A    -10.594143    12A    -10.593970
      13A    -10.593969    14A    -10.591741    15A    -10.591741
      16A     -8.060851    17A     -8.060850    18A     -8.060730
      19A     -8.060729    20A     -8.058759    21A     -8.058759
      22A     -8.058750    23A     -8.058749    24A     -8.058562
      25A     -8.058562    26A     -8.058544    27A     -8.058543
      28A     -8.058480    29A     -8.058480    30A     -8.056347
      31A     -8.056347    32A     -8.056323    33A     -8.056323
      34A     -1.273721    35A     -1.243006    36A     -1.124093
      37A     -1.122506    38A     -1.115190    39A     -1.113843
      40A     -1.050210    41A     -0.866042    42A     -0.794223
      43A     -0.696088    44A     -0.676723    45A     -0.672660
      46A     -0.629089    47A     -0.615145    48A     -0.594873
      49A     -0.570044    50A     -0.524291    51A     -0.515910
      52A     -0.504875    53A     -0.500004    54A     -0.492823
      55A     -0.476779    56A     -0.473795    57A     -0.464382
      58A     -0.457451    59A     -0.455848    60A     -0.449948
      61A     -0.445071

  @DF-RHF Final Energy: -2871.86774910629811

   => Energetics <=

    Nuclear Repulsion Energy =           1106.8377720428818520
    One-Electron Energy =               -6173.4879188208260530
    Two-Electron Energy =                2194.7823976716463221
    Total Energy =                      -2871.8677491062981062
  Basis Set: (AUG-CC-PVTZ AUX)
    Blend: AUG-CC-PVTZ-RI
    Molecular point group: c1

    Geometry (in Angstrom), charge = 0, multiplicity = 1:

       Center              X                  Y                   Z               Mass
    ------------   -----------------  -----------------  -----------------  -----------------
         CL           2.565944846699    -0.437103056554     1.389673132587    34.968852682000
         CL           1.757715846699     1.605599943446    -0.472244867413    34.968852682000
         CL           1.433512846699    -1.184546056554    -1.165881867413    34.968852682000
         CL          -1.757711153301    -1.605599056554    -0.472249867413    34.968852682000
         CL          -2.565946153301     0.437096943446     1.389674132587    34.968852682000
         CL          -1.433516153301     1.184550943446    -1.165878867413    34.968852682000
         C            0.000000846699     0.000000943446     0.890878132587    12.000000000000
         C            1.347907846699    -0.008274056554     0.149617132587    12.000000000000
         C           -1.347909153301     0.008273943446     0.149621132587    12.000000000000
         H            0.026866846699     0.881940943446     1.535442132587     1.007825032230
         H           -0.026864153301    -0.881939056554     1.535441132587     1.007825032230

  Basis Set: AUG-CC-PVTZ
    Blend: AUG-CC-PVTZ
  Basis Set: (AUG-CC-PVTZ AUX)
    Blend: AUG-CC-PVTZ-JKFIT
	 Reference Energy          =   -2871.8677491062981062 [Eh]
	 Singles Energy            =      -0.0000000000000000 [Eh]
	 Same-Spin Energy          =      -0.5143792715377393 [Eh]
	 Opposite-Spin Energy      =      -1.4589903252405039 [Eh]
	 Correlation Energy        =      -1.9733695967782432 [Eh]
	 Total Energy              =   -2873.8411187030765177 [Eh]

	 ================> DF-SCS-MP2 Energies <==================
	-----------------------------------------------------------
	 SCS Same-Spin Scale       =       0.3333333333333333 [-]
	 SCS Opposite-Spin Scale   =       1.2000000000000000 [-]
	 SCS Same-Spin Energy      =      -0.1714597571792464 [Eh]
	 SCS Opposite-Spin Energy  =      -1.7507883902886046 [Eh]
	 SCS Correlation Energy    =      -1.9222481474678510 [Eh]
	 SCS Total Energy          =   -2873.7899972537661597 [Eh]
	-----------------------------------------------------------

  Dipole Moment: [D]
     X:    -0.0000      Y:    -0.0000      Z:     0.8445     Total:     0.8445

*** Psi4 exiting successfully. Buy a developer a beer!
