                               Psi4 1.3.2 release

  ==> Input File <==

--------------------------------------------------------------------------
#psi4
#
memory 32 gb

molecule  {
0 1
 Cl        2.5200660    -0.4405840     1.4174990
 Cl        1.7577160     1.6056000    -0.4867050
 Cl        1.4335130    -1.1845460    -1.1803420
 Cl       -1.7577110    -1.6055990    -0.4867100
 Cl       -2.5659460     0.4370970     1.3752140
 Cl       -1.4335160     1.1845510    -1.1803390
  C        0.0000010     0.0000010     0.8764180
  C        1.3479080    -0.0082740     0.1351570
  C       -1.3479090     0.0082740     0.1351610
  H        0.0268670     0.8819410     1.5209820
  H       -0.0268640    -0.8819390     1.5209810
units angstrom
no_reorient  #important for SAPT in psi4, default
symmetry c1  #important for SAPT in psi4, default
}

set PROPERTIES_ORIGIN ["COM"]
properties('MP2/aug-cc-pvtz', properties = ['dipole'])
--------------------------------------------------------------------------

    Molecular point group: c1
  Charge       = 0
  Multiplicity = 1
  Basis Set: AUG-CC-PVTZ
    Blend: AUG-CC-PVTZ
  Basis Set: (AUG-CC-PVTZ AUX)
    Blend: AUG-CC-PVTZ-JKFIT

    Orbital Energies [Eh]
    ---------------------

    Doubly Occupied:

       1A   -104.870195     2A   -104.869834     3A   -104.869160
       4A   -104.868969     5A   -104.867936     6A   -104.866725
       7A    -11.454923     8A    -11.454078     9A    -11.306104
      10A    -10.594838    11A    -10.594402    12A    -10.593699
      13A    -10.593691    14A    -10.592583    15A    -10.591451
      16A     -8.061600    17A     -8.061108    18A     -8.060454
      19A     -8.060403    20A     -8.059432    21A     -8.059413
      22A     -8.059325    23A     -8.059019    24A     -8.059009
      25A     -8.058314    26A     -8.058304    27A     -8.058291
      28A     -8.058271    29A     -8.058190    30A     -8.057191
      31A     -8.057166    32A     -8.056060    33A     -8.056035
      34A     -1.273670    35A     -1.242683    36A     -1.124195
      37A     -1.123407    38A     -1.115779    39A     -1.113893
      40A     -1.048919    41A     -0.865757    42A     -0.794334
      43A     -0.696097    44A     -0.676277    45A     -0.672590
      46A     -0.629010    47A     -0.614848    48A     -0.595126
      49A     -0.569418    50A     -0.524330    51A     -0.515571
      52A     -0.504515    53A     -0.500146    54A     -0.492932
      55A     -0.477220    56A     -0.474068    57A     -0.463782
      58A     -0.457681    59A     -0.456278    60A     -0.450644
      61A     -0.444938

  @DF-RHF Final Energy: -2871.86720505545645

   => Energetics <=

    Nuclear Repulsion Energy =           1107.1490937536402726
    One-Electron Energy =               -6174.1040392958466327
    Two-Electron Energy =                2195.0877404867501355
    Total Energy =                      -2871.8672050554564521
  Basis Set: (AUG-CC-PVTZ AUX)
    Blend: AUG-CC-PVTZ-RI
    Molecular point group: c1

    Geometry (in Angstrom), charge = 0, multiplicity = 1:

       Center              X                  Y                   Z               Mass
    ------------   -----------------  -----------------  -----------------  -----------------
         CL           2.526539413175    -0.440092884451     1.425992541511    34.968852682000
         CL           1.764189413175     1.606091115549    -0.478211458489    34.968852682000
         CL           1.439986413175    -1.184054884451    -1.171848458489    34.968852682000
         CL          -1.751237586825    -1.605107884451    -0.478216458489    34.968852682000
         CL          -2.559472586825     0.437588115549     1.383707541511    34.968852682000
         CL          -1.427042586825     1.185042115549    -1.171845458489    34.968852682000
         C            0.006474413175     0.000492115549     0.884911541511    12.000000000000
         C            1.354381413175    -0.007782884451     0.143650541511    12.000000000000
         C           -1.341435586825     0.008765115549     0.143654541511    12.000000000000
         H            0.033340413175     0.882432115549     1.529475541511     1.007825032230
         H           -0.020390586825    -0.881447884451     1.529474541511     1.007825032230

  Basis Set: AUG-CC-PVTZ
    Blend: AUG-CC-PVTZ
  Basis Set: (AUG-CC-PVTZ AUX)
    Blend: AUG-CC-PVTZ-JKFIT
	 Reference Energy          =   -2871.8672050554564521 [Eh]
	 Singles Energy            =      -0.0000000000000000 [Eh]
	 Same-Spin Energy          =      -0.5144545817537443 [Eh]
	 Opposite-Spin Energy      =      -1.4591399122793760 [Eh]
	 Correlation Energy        =      -1.9735944940331203 [Eh]
	 Total Energy              =   -2873.8407995494894749 [Eh]

	 ================> DF-SCS-MP2 Energies <==================
	-----------------------------------------------------------
	 SCS Same-Spin Scale       =       0.3333333333333333 [-]
	 SCS Opposite-Spin Scale   =       1.2000000000000000 [-]
	 SCS Same-Spin Energy      =      -0.1714848605845814 [Eh]
	 SCS Opposite-Spin Energy  =      -1.7509678947352512 [Eh]
	 SCS Correlation Energy    =      -1.9224527553198325 [Eh]
	 SCS Total Energy          =   -2873.7896578107761343 [Eh]
	-----------------------------------------------------------

  Dipole Moment: [D]
     X:     0.0341      Y:     0.0038      Z:     0.8216     Total:     0.8223

*** Psi4 exiting successfully. Buy a developer a beer!
