                               Psi4 1.3.2 release

  ==> Input File <==

--------------------------------------------------------------------------
#psi4
#
memory 32 gb

molecule  {
0 1
 Cl        2.5659450    -0.4371030     1.3752130
 Cl        1.7577160     1.6056000    -0.4867050
 Cl        1.4335130    -1.1845460    -1.1803420
 Cl       -1.7577110    -1.6055990    -0.4867100
 Cl       -2.5659460     0.4370970     1.3752140
 Cl       -1.4335160     1.1845510    -1.1803390
  C        0.0000010     0.0000010     0.8764180
  C        1.3347662    -0.0081934     0.1117452
  C       -1.3479090     0.0082740     0.1351610
  H        0.0268670     0.8819410     1.5209820
  H       -0.0268640    -0.8819390     1.5209810
units angstrom
no_reorient  #important for SAPT in psi4, default
symmetry c1  #important for SAPT in psi4, default
}

set PROPERTIES_ORIGIN ["COM"]
properties('MP2/aug-cc-pvtz', properties = ['dipole'])
--------------------------------------------------------------------------

    Molecular point group: c1
  Charge       = 0
  Multiplicity = 1
  Basis Set: AUG-CC-PVTZ
    Blend: AUG-CC-PVTZ
  Basis Set: (AUG-CC-PVTZ AUX)
    Blend: AUG-CC-PVTZ-JKFIT

    Orbital Energies [Eh]
    ---------------------

    Doubly Occupied:

       1A   -104.871717     2A   -104.869730     3A   -104.869606
       4A   -104.867920     5A   -104.867407     6A   -104.865966
       7A    -11.455191     8A    -11.454727     9A    -11.307193
      10A    -10.596630    11A    -10.594455    12A    -10.594144
      13A    -10.592683    14A    -10.592135    15A    -10.590275
      16A     -8.063426    17A     -8.061214    18A     -8.061214
      19A     -8.061191    20A     -8.060852    21A     -8.059432
      22A     -8.059050    23A     -8.059030    24A     -8.058873
      25A     -8.058762    26A     -8.058752    27A     -8.057284
      28A     -8.057259    29A     -8.056934    30A     -8.056742
      31A     -8.056718    32A     -8.054900    33A     -8.054893
      34A     -1.274159    35A     -1.242944    36A     -1.126536
      37A     -1.121852    38A     -1.115423    39A     -1.112344
      40A     -1.050100    41A     -0.865520    42A     -0.794920
      43A     -0.696453    44A     -0.676632    45A     -0.673094
      46A     -0.629850    47A     -0.613267    48A     -0.596088
      49A     -0.570525    50A     -0.525486    51A     -0.514566
      52A     -0.505401    53A     -0.499897    54A     -0.494235
      55A     -0.475936    56A     -0.474115    57A     -0.463680
      58A     -0.458426    59A     -0.455838    60A     -0.449906
      61A     -0.444496

  @DF-RHF Final Energy: -2871.86730555743043

   => Energetics <=

    Nuclear Repulsion Energy =           1107.0055341869870063
    One-Electron Energy =               -6173.8096816920497076
    Two-Electron Energy =                2194.9368419476327290
    Total Energy =                      -2871.8673055574304271
  Basis Set: (AUG-CC-PVTZ AUX)
    Blend: AUG-CC-PVTZ-RI
    Molecular point group: c1

    Geometry (in Angstrom), charge = 0, multiplicity = 1:

       Center              X                  Y                   Z               Mass
    ------------   -----------------  -----------------  -----------------  -----------------
         CL           2.566581179609    -0.437106959248     1.390806744332    34.968852682000
         CL           1.758352179609     1.605596040752    -0.471111255668    34.968852682000
         CL           1.434149179609    -1.184549959248    -1.164748255668    34.968852682000
         CL          -1.757074820391    -1.605602959248    -0.471116255668    34.968852682000
         CL          -2.565309820391     0.437093040752     1.390807744332    34.968852682000
         CL          -1.432879820391     1.184547040752    -1.164745255668    34.968852682000
         C            0.000637179609    -0.000002959248     0.892011744332    12.000000000000
         C            1.335402379609    -0.008197359248     0.127338944332    12.000000000000
         C           -1.347272820391     0.008270040752     0.150754744332    12.000000000000
         H            0.027503179609     0.881937040752     1.536575744332     1.007825032230
         H           -0.026227820391    -0.881942959248     1.536574744332     1.007825032230

  Basis Set: AUG-CC-PVTZ
    Blend: AUG-CC-PVTZ
  Basis Set: (AUG-CC-PVTZ AUX)
    Blend: AUG-CC-PVTZ-JKFIT
	 Reference Energy          =   -2871.8673055574304271 [Eh]
	 Singles Energy            =      -0.0000000000000000 [Eh]
	 Same-Spin Energy          =      -0.5144372332773257 [Eh]
	 Opposite-Spin Energy      =      -1.4590637629806285 [Eh]
	 Correlation Energy        =      -1.9735009962579542 [Eh]
	 Total Energy              =   -2873.8408065536882532 [Eh]

	 ================> DF-SCS-MP2 Energies <==================
	-----------------------------------------------------------
	 SCS Same-Spin Scale       =       0.3333333333333333 [-]
	 SCS Opposite-Spin Scale   =       1.2000000000000000 [-]
	 SCS Same-Spin Energy      =      -0.1714790777591086 [Eh]
	 SCS Opposite-Spin Energy  =      -1.7508765155767541 [Eh]
	 SCS Correlation Energy    =      -1.9223555933358627 [Eh]
	 SCS Total Energy          =   -2873.7896611507662783 [Eh]
	-----------------------------------------------------------

  Dipole Moment: [D]
     X:    -0.0652      Y:    -0.0003      Z:     0.7175     Total:     0.7205

*** Psi4 exiting successfully. Buy a developer a beer!
