                               Psi4 1.3.2 release

  ==> Input File <==

--------------------------------------------------------------------------
#psi4
#
memory 32 gb

molecule  {
0 1
 Cl        2.5659450    -0.4371030     1.3752130
 Cl        1.7577160     1.6056000    -0.4867050
 Cl        1.4335130    -1.1845460    -1.1803420
 Cl       -1.7577110    -1.6055990    -0.4867100
 Cl       -2.5659460     0.4370970     1.3752140
 Cl       -1.4335160     1.1845510    -1.1803390
  C        0.0000010     0.0000010     0.8764180
  C        1.3614920     0.0366149     0.1613017
  C       -1.3479090     0.0082740     0.1351610
  H        0.0268670     0.8819410     1.5209820
  H       -0.0268640    -0.8819390     1.5209810
units angstrom
no_reorient  #important for SAPT in psi4, default
symmetry c1  #important for SAPT in psi4, default
}

set PROPERTIES_ORIGIN ["COM"]
properties('MP2/aug-cc-pvtz', properties = ['dipole'])
--------------------------------------------------------------------------

    Molecular point group: c1
  Charge       = 0
  Multiplicity = 1
  Basis Set: AUG-CC-PVTZ
    Blend: AUG-CC-PVTZ
  Basis Set: (AUG-CC-PVTZ AUX)
    Blend: AUG-CC-PVTZ-JKFIT

    Orbital Energies [Eh]
    ---------------------

    Doubly Occupied:

       1A   -104.871971     2A   -104.871904     3A   -104.869590
       4A   -104.869215     5A   -104.866224     6A   -104.861939
       7A    -11.455085     8A    -11.454992     9A    -11.307000
      10A    -10.597038    11A    -10.596659    12A    -10.594117
      13A    -10.593937    14A    -10.590924    15A    -10.586198
      16A     -8.063850    17A     -8.063398    18A     -8.061626
      19A     -8.061596    20A     -8.061267    21A     -8.061254
      22A     -8.060824    23A     -8.060698    24A     -8.058732
      25A     -8.058721    26A     -8.058530    27A     -8.058515
      28A     -8.057664    29A     -8.055525    30A     -8.055500
      31A     -8.052864    32A     -8.050815    33A     -8.050803
      34A     -1.273984    35A     -1.243976    36A     -1.127757
      37A     -1.119129    38A     -1.118153    39A     -1.109368
      40A     -1.050395    41A     -0.866766    42A     -0.793740
      43A     -0.696291    44A     -0.676599    45A     -0.672813
      46A     -0.629582    47A     -0.616720    48A     -0.593572
      49A     -0.569963    50A     -0.521849    51A     -0.516499
      52A     -0.507200    53A     -0.501235    54A     -0.488704
      55A     -0.477573    56A     -0.473463    57A     -0.464386
      58A     -0.456815    59A     -0.454437    60A     -0.450960
      61A     -0.444622

  @DF-RHF Final Energy: -2871.86609947531497

   => Energetics <=

    Nuclear Repulsion Energy =           1106.6701113047133731
    One-Electron Energy =               -6173.1613698159071646
    Two-Electron Energy =                2194.6251590358792782
    Total Energy =                      -2871.8660994753149680
  Basis Set: (AUG-CC-PVTZ AUX)
    Blend: AUG-CC-PVTZ-RI
    Molecular point group: c1

    Geometry (in Angstrom), charge = 0, multiplicity = 1:

       Center              X                  Y                   Z               Mass
    ------------   -----------------  -----------------  -----------------  -----------------
         CL           2.565287102231    -0.439276600845     1.388407192378    34.968852682000
         CL           1.757058102231     1.603426399155    -0.473510807622    34.968852682000
         CL           1.432855102231    -1.186719600845    -1.167147807622    34.968852682000
         CL          -1.758368897769    -1.607772600845    -0.473515807622    34.968852682000
         CL          -2.566603897769     0.434923399155     1.388408192378    34.968852682000
         CL          -1.434173897769     1.182377399155    -1.167144807622    34.968852682000
         C           -0.000656897769    -0.002172600845     0.889612192378    12.000000000000
         C            1.360834102231     0.034441299155     0.174495892378    12.000000000000
         C           -1.348566897769     0.006100399155     0.148355192378    12.000000000000
         H            0.026209102231     0.879767399155     1.534176192378     1.007825032230
         H           -0.027521897769    -0.884112600845     1.534175192378     1.007825032230

  Basis Set: AUG-CC-PVTZ
    Blend: AUG-CC-PVTZ
  Basis Set: (AUG-CC-PVTZ AUX)
    Blend: AUG-CC-PVTZ-JKFIT
	 Reference Energy          =   -2871.8660994753149680 [Eh]
	 Singles Energy            =      -0.0000000000000000 [Eh]
	 Same-Spin Energy          =      -0.5144542183437184 [Eh]
	 Opposite-Spin Energy      =      -1.4590943385017496 [Eh]
	 Correlation Energy        =      -1.9735485568454680 [Eh]
	 Total Energy              =   -2873.8396480321603121 [Eh]

	 ================> DF-SCS-MP2 Energies <==================
	-----------------------------------------------------------
	 SCS Same-Spin Scale       =       0.3333333333333333 [-]
	 SCS Opposite-Spin Scale   =       1.2000000000000000 [-]
	 SCS Same-Spin Energy      =      -0.1714847394479061 [Eh]
	 SCS Opposite-Spin Energy  =      -1.7509132062020996 [Eh]
	 SCS Correlation Energy    =      -1.9223979456500058 [Eh]
	 SCS Total Energy          =   -2873.7884974209650863 [Eh]
	-----------------------------------------------------------

  Dipole Moment: [D]
     X:     0.0722      Y:     0.2358      Z:     0.9825     Total:     1.0130

*** Psi4 exiting successfully. Buy a developer a beer!
