                               Psi4 1.3.2 release

  ==> Input File <==

--------------------------------------------------------------------------
#psi4
#
memory 32 gb

molecule  {
0 1
 Cl        2.5659450    -0.4371030     1.3752130
 Cl        1.7577160     1.6056000    -0.4867050
 Cl        1.4335130    -1.1845460    -1.1803420
 Cl       -1.7577110    -1.6055990    -0.4867100
 Cl       -2.5659460     0.4370970     1.3752140
 Cl       -1.4335160     1.1845510    -1.1803390
  C        0.0000010     0.0000010     0.8764180
  C        1.4355307    -0.0088119     0.0869702
  C       -1.3479090     0.0082740     0.1351610
  H        0.0268670     0.8819410     1.5209820
  H       -0.0268640    -0.8819390     1.5209810
units angstrom
no_reorient  #important for SAPT in psi4, default
symmetry c1  #important for SAPT in psi4, default
}

set PROPERTIES_ORIGIN ["COM"]
properties('MP2/aug-cc-pvtz', properties = ['dipole'])
--------------------------------------------------------------------------

    Molecular point group: c1
  Charge       = 0
  Multiplicity = 1
  Basis Set: AUG-CC-PVTZ
    Blend: AUG-CC-PVTZ
  Basis Set: (AUG-CC-PVTZ AUX)
    Blend: AUG-CC-PVTZ-JKFIT

    Orbital Energies [Eh]
    ---------------------

    Doubly Occupied:

       1A   -104.871208     2A   -104.869952     3A   -104.868789
       4A   -104.868030     5A   -104.867653     6A   -104.865365
       7A    -11.452258     8A    -11.452051     9A    -11.307400
      10A    -10.596572    11A    -10.594858    12A    -10.594047
      13A    -10.592565    14A    -10.592395    15A    -10.590113
      16A     -8.063420    17A     -8.061617    18A     -8.061153
      19A     -8.061125    20A     -8.060862    21A     -8.059481
      22A     -8.059465    23A     -8.059269    24A     -8.059156
      25A     -8.058648    26A     -8.058613    27A     -8.057180
      28A     -8.057173    29A     -8.057000    30A     -8.056978
      31A     -8.056853    32A     -8.054732    33A     -8.054704
      34A     -1.273648    35A     -1.246609    36A     -1.130607
      37A     -1.125501    38A     -1.116813    39A     -1.114603
      40A     -1.034450    41A     -0.855375    42A     -0.796003
      43A     -0.689539    44A     -0.671554    45A     -0.667492
      46A     -0.634684    47A     -0.620905    48A     -0.596987
      49A     -0.573803    50A     -0.524408    51A     -0.514541
      52A     -0.504519    53A     -0.499934    54A     -0.487964
      55A     -0.478908    56A     -0.475660    57A     -0.460361
      58A     -0.458902    59A     -0.454756    60A     -0.450573
      61A     -0.439019

  @DF-RHF Final Energy: -2871.86078054389191

   => Energetics <=

    Nuclear Repulsion Energy =           1106.5479619533562072
    One-Electron Energy =               -6172.9398714183671473
    Two-Electron Energy =                2194.5311289211190342
    Total Energy =                      -2871.8607805438919058
  Basis Set: (AUG-CC-PVTZ AUX)
    Blend: AUG-CC-PVTZ-RI
    Molecular point group: c1

    Geometry (in Angstrom), charge = 0, multiplicity = 1:

       Center              X                  Y                   Z               Mass
    ------------   -----------------  -----------------  -----------------  -----------------
         CL           2.561702109198    -0.437077011151     1.392006362942    34.968852682000
         CL           1.753473109198     1.605625988849    -0.469911637058    34.968852682000
         CL           1.429270109198    -1.184520011151    -1.163548637058    34.968852682000
         CL          -1.761953890802    -1.605573011151    -0.469916637058    34.968852682000
         CL          -2.570188890802     0.437122988849     1.392007362942    34.968852682000
         CL          -1.437758890802     1.184576988849    -1.163545637058    34.968852682000
         C           -0.004241890802     0.000026988849     0.893211362942    12.000000000000
         C            1.431287809198    -0.008785911151     0.103763562942    12.000000000000
         C           -1.352151890802     0.008299988849     0.151954362942    12.000000000000
         H            0.022624109198     0.881966988849     1.537775362942     1.007825032230
         H           -0.031106890802    -0.881913011151     1.537774362942     1.007825032230

  Basis Set: AUG-CC-PVTZ
    Blend: AUG-CC-PVTZ
  Basis Set: (AUG-CC-PVTZ AUX)
    Blend: AUG-CC-PVTZ-JKFIT
	 Reference Energy          =   -2871.8607805438919058 [Eh]
	 Singles Energy            =      -0.0000000000000000 [Eh]
	 Same-Spin Energy          =      -0.5146629039699273 [Eh]
	 Opposite-Spin Energy      =      -1.4589040630255157 [Eh]
	 Correlation Energy        =      -1.9735669669954430 [Eh]
	 Total Energy              =   -2873.8343475108872553 [Eh]

	 ================> DF-SCS-MP2 Energies <==================
	-----------------------------------------------------------
	 SCS Same-Spin Scale       =       0.3333333333333333 [-]
	 SCS Opposite-Spin Scale   =       1.2000000000000000 [-]
	 SCS Same-Spin Energy      =      -0.1715543013233091 [Eh]
	 SCS Opposite-Spin Energy  =      -1.7506848756306188 [Eh]
	 SCS Correlation Energy    =      -1.9222391769539280 [Eh]
	 SCS Total Energy          =   -2873.7830197208459140 [Eh]
	-----------------------------------------------------------

  Dipole Moment: [D]
     X:     0.2018      Y:     0.0066      Z:     0.7539     Total:     0.7804

*** Psi4 exiting successfully. Buy a developer a beer!
