                               Psi4 1.3.2 release

  ==> Input File <==

--------------------------------------------------------------------------
#psi4
#
memory 32 gb

molecule  {
0 1
 Cl        2.6531969    -0.4285784     1.2861620
 Cl        1.7577160     1.6056000    -0.4867050
 Cl        1.4335130    -1.1845460    -1.1803420
 Cl       -1.7577110    -1.6055990    -0.4867100
 Cl       -2.5659460     0.4370970     1.3752140
 Cl       -1.4335160     1.1845510    -1.1803390
  C        0.0000010     0.0000010     0.8764180
  C        1.3479080    -0.0082740     0.1351570
  C       -1.3479090     0.0082740     0.1351610
  H        0.0268670     0.8819410     1.5209820
  H       -0.0268640    -0.8819390     1.5209810
units angstrom
no_reorient  #important for SAPT in psi4, default
symmetry c1  #important for SAPT in psi4, default
}

set PROPERTIES_ORIGIN ["COM"]
properties('MP2/aug-cc-pvtz', properties = ['dipole'])
--------------------------------------------------------------------------

    Molecular point group: c1
  Charge       = 0
  Multiplicity = 1
  Basis Set: AUG-CC-PVTZ
    Blend: AUG-CC-PVTZ
  Basis Set: (AUG-CC-PVTZ AUX)
    Blend: AUG-CC-PVTZ-JKFIT

    Orbital Energies [Eh]
    ---------------------

    Doubly Occupied:

       1A   -104.870481     2A   -104.869749     3A   -104.869019
       4A   -104.867559     5A   -104.867343     6A   -104.865186
       7A    -11.456396     8A    -11.454774     9A    -11.308727
      10A    -10.594998    11A    -10.594456    12A    -10.593517
      13A    -10.592272    14A    -10.592221    15A    -10.590061
      16A     -8.061705    17A     -8.061216    18A     -8.060222
      19A     -8.059609    20A     -8.059600    21A     -8.059043
      22A     -8.059025    23A     -8.059011    24A     -8.058975
      25A     -8.058119    26A     -8.058112    27A     -8.056873
      28A     -8.056849    29A     -8.056809    30A     -8.056794
      31A     -8.056791    32A     -8.054662    33A     -8.054639
      34A     -1.273972    35A     -1.243759    36A     -1.124018
      37A     -1.121553    38A     -1.114169    39A     -1.112694
      40A     -1.052532    41A     -0.866603    42A     -0.794120
      43A     -0.696187    44A     -0.678049    45A     -0.672412
      46A     -0.629219    47A     -0.615695    48A     -0.594359
      49A     -0.571369    50A     -0.524322    51A     -0.516479
      52A     -0.505686    53A     -0.499698    54A     -0.492609
      55A     -0.475902    56A     -0.473221    57A     -0.465811
      58A     -0.457241    59A     -0.454752    60A     -0.447985
      61A     -0.444465

  @DF-RHF Final Energy: -2871.86695010504172

   => Energetics <=

    Nuclear Repulsion Energy =           1106.4548536733607307
    One-Electron Energy =               -6172.7362202757922205
    Two-Electron Energy =                2194.4144164973895386
    Total Energy =                      -2871.8669501050417239
  Basis Set: (AUG-CC-PVTZ AUX)
    Blend: AUG-CC-PVTZ-RI
    Molecular point group: c1

    Geometry (in Angstrom), charge = 0, multiplicity = 1:

       Center              X                  Y                   Z               Mass
    ------------   -----------------  -----------------  -----------------  -----------------
         CL           2.640885428346    -0.429781284967     1.313187305503    34.968852682000
         CL           1.745404528346     1.604397115033    -0.459679694497    34.968852682000
         CL           1.421201528346    -1.185748884967    -1.153316694497    34.968852682000
         CL          -1.770022471654    -1.606801884967    -0.459684694497    34.968852682000
         CL          -2.578257471654     0.435894115033     1.402239305503    34.968852682000
         CL          -1.445827471654     1.183348115033    -1.153313694497    34.968852682000
         C           -0.012310471654    -0.001201884967     0.903443305503    12.000000000000
         C            1.335596528346    -0.009476884967     0.162182305503    12.000000000000
         C           -1.360220471654     0.007071115033     0.162186305503    12.000000000000
         H            0.014555528346     0.880738115033     1.548007305503     1.007825032230
         H           -0.039175471654    -0.883141884967     1.548006305503     1.007825032230

  Basis Set: AUG-CC-PVTZ
    Blend: AUG-CC-PVTZ
  Basis Set: (AUG-CC-PVTZ AUX)
    Blend: AUG-CC-PVTZ-JKFIT
	 Reference Energy          =   -2871.8669501050417239 [Eh]
	 Singles Energy            =      -0.0000000000000000 [Eh]
	 Same-Spin Energy          =      -0.5143362785462188 [Eh]
	 Opposite-Spin Energy      =      -1.4588683755146528 [Eh]
	 Correlation Energy        =      -1.9732046540608716 [Eh]
	 Total Energy              =   -2873.8401547591024610 [Eh]

	 ================> DF-SCS-MP2 Energies <==================
	-----------------------------------------------------------
	 SCS Same-Spin Scale       =       0.3333333333333333 [-]
	 SCS Opposite-Spin Scale   =       1.2000000000000000 [-]
	 SCS Same-Spin Energy      =      -0.1714454261820729 [Eh]
	 SCS Opposite-Spin Energy  =      -1.7506420506175833 [Eh]
	 SCS Correlation Energy    =      -1.9220874767996561 [Eh]
	 SCS Total Energy          =   -2873.7890375818415123 [Eh]
	-----------------------------------------------------------

  Dipole Moment: [D]
     X:    -0.0648      Y:    -0.0076      Z:     0.8911     Total:     0.8935

*** Psi4 exiting successfully. Buy a developer a beer!
