                               Psi4 1.3.2 release

  ==> Input File <==

--------------------------------------------------------------------------
#psi4
#
memory 32 gb

molecule  {
0 1
 Cl        2.5659450    -0.4371030     1.3752130
 Cl        1.7577160     1.6056000    -0.4867050
 Cl        1.4335130    -1.1845460    -1.1803420
 Cl       -1.7577110    -1.6055990    -0.4867100
 Cl       -2.5659460     0.4370970     1.3752140
 Cl       -1.4335160     1.1845510    -1.1803390
  C        0.0000010     0.0000010     0.8764180
  C        1.3734172     0.0814592     0.1883176
  C       -1.3479090     0.0082740     0.1351610
  H        0.0268670     0.8819410     1.5209820
  H       -0.0268640    -0.8819390     1.5209810
units angstrom
no_reorient  #important for SAPT in psi4, default
symmetry c1  #important for SAPT in psi4, default
}

set PROPERTIES_ORIGIN ["COM"]
properties('MP2/aug-cc-pvtz', properties = ['dipole'])
--------------------------------------------------------------------------

    Molecular point group: c1
  Charge       = 0
  Multiplicity = 1
  Basis Set: AUG-CC-PVTZ
    Blend: AUG-CC-PVTZ
  Basis Set: (AUG-CC-PVTZ AUX)
    Blend: AUG-CC-PVTZ-JKFIT

    Orbital Energies [Eh]
    ---------------------

    Doubly Occupied:

       1A   -104.876739     2A   -104.874401     3A   -104.869634
       4A   -104.869245     5A   -104.865505     6A   -104.853956
       7A    -11.455855     8A    -11.455372     9A    -11.307431
      10A    -10.602340    11A    -10.599220    12A    -10.594157
      13A    -10.593968    14A    -10.590182    15A    -10.577925
      16A     -8.069226    17A     -8.066904    18A     -8.066867
      19A     -8.065987    20A     -8.063817    21A     -8.063800
      22A     -8.060864    23A     -8.060730    24A     -8.058771
      25A     -8.058760    26A     -8.058562    27A     -8.058550
      28A     -8.056923    29A     -8.054778    30A     -8.054752
      31A     -8.044508    32A     -8.042564    33A     -8.042557
      34A     -1.275560    35A     -1.246020    36A     -1.134637
      37A     -1.119312    38A     -1.117395    39A     -1.100976
      40A     -1.050680    41A     -0.867723    42A     -0.793754
      43A     -0.696761    44A     -0.676922    45A     -0.674287
      46A     -0.630574    47A     -0.618285    48A     -0.593440
      49A     -0.569803    50A     -0.520587    51A     -0.516703
      52A     -0.509836    53A     -0.501555    54A     -0.483933
      55A     -0.479219    56A     -0.472206    57A     -0.463410
      58A     -0.455997    59A     -0.453767    60A     -0.450537
      61A     -0.442617

  @DF-RHF Final Energy: -2871.86127692063701

   => Energetics <=

    Nuclear Repulsion Energy =           1106.5069372337109144
    One-Electron Energy =               -6172.8337314284117383
    Two-Electron Energy =                2194.4655172740635862
    Total Energy =                      -2871.8612769206370103
  Basis Set: (AUG-CC-PVTZ AUX)
    Blend: AUG-CC-PVTZ-RI
    Molecular point group: c1

    Geometry (in Angstrom), charge = 0, multiplicity = 1:

       Center              X                  Y                   Z               Mass
    ------------   -----------------  -----------------  -----------------  -----------------
         CL           2.564709677737    -0.441447985582     1.387099068204    34.968852682000
         CL           1.756480677737     1.601255014418    -0.474818931796    34.968852682000
         CL           1.432277677737    -1.188890985582    -1.168455931796    34.968852682000
         CL          -1.758946322263    -1.609943985582    -0.474823931796    34.968852682000
         CL          -2.567181322263     0.432752014418     1.387100068204    34.968852682000
         CL          -1.434751322263     1.180206014418    -1.168452931796    34.968852682000
         C           -0.001234322263    -0.004343985582     0.888304068204    12.000000000000
         C            1.372181877737     0.077114214418     0.200203668204    12.000000000000
         C           -1.349144322263     0.003929014418     0.147047068204    12.000000000000
         H            0.025631677737     0.877596014418     1.532868068204     1.007825032230
         H           -0.028099322263    -0.886283985582     1.532867068204     1.007825032230

  Basis Set: AUG-CC-PVTZ
    Blend: AUG-CC-PVTZ
  Basis Set: (AUG-CC-PVTZ AUX)
    Blend: AUG-CC-PVTZ-JKFIT
	 Reference Energy          =   -2871.8612769206370103 [Eh]
	 Singles Energy            =      -0.0000000000000000 [Eh]
	 Same-Spin Energy          =      -0.5147365489835265 [Eh]
	 Opposite-Spin Energy      =      -1.4594750318187870 [Eh]
	 Correlation Energy        =      -1.9742115808023135 [Eh]
	 Total Energy              =   -2873.8354885014391584 [Eh]

	 ================> DF-SCS-MP2 Energies <==================
	-----------------------------------------------------------
	 SCS Same-Spin Scale       =       0.3333333333333333 [-]
	 SCS Opposite-Spin Scale   =       1.2000000000000000 [-]
	 SCS Same-Spin Energy      =      -0.1715788496611755 [Eh]
	 SCS Opposite-Spin Energy  =      -1.7513700381825443 [Eh]
	 SCS Correlation Energy    =      -1.9229488878437198 [Eh]
	 SCS Total Energy          =   -2873.7842258084806417 [Eh]
	-----------------------------------------------------------

  Dipole Moment: [D]
     X:     0.1378      Y:     0.4735      Z:     1.1197     Total:     1.2235

*** Psi4 exiting successfully. Buy a developer a beer!
