                               Psi4 1.3.2 release

  ==> Input File <==

--------------------------------------------------------------------------
#psi4
#
memory 32 gb

molecule  {
0 1
 Cl        2.5659450    -0.4371030     1.3752130
 Cl        1.7577160     1.6056000    -0.4867050
 Cl        1.4335130    -1.1845460    -1.1803420
 Cl       -1.7577110    -1.6055990    -0.4867100
 Cl       -2.5659460     0.4370970     1.3752140
 Cl       -1.4335160     1.1845510    -1.1803390
  C        0.0000010     0.0000010     0.8764180
  C        1.3326818    -0.0531528     0.1099154
  C       -1.3479090     0.0082740     0.1351610
  H        0.0268670     0.8819410     1.5209820
  H       -0.0268640    -0.8819390     1.5209810
units angstrom
no_reorient  #important for SAPT in psi4, default
symmetry c1  #important for SAPT in psi4, default
}

set PROPERTIES_ORIGIN ["COM"]
properties('MP2/aug-cc-pvtz', properties = ['dipole'])
--------------------------------------------------------------------------

    Molecular point group: c1
  Charge       = 0
  Multiplicity = 1
  Basis Set: AUG-CC-PVTZ
    Blend: AUG-CC-PVTZ
  Basis Set: (AUG-CC-PVTZ AUX)
    Blend: AUG-CC-PVTZ-JKFIT

    Orbital Energies [Eh]
    ---------------------

    Doubly Occupied:

       1A   -104.876105     2A   -104.869703     3A   -104.869348
       4A   -104.867908     5A   -104.867247     6A   -104.861922
       7A    -11.455500     8A    -11.454795     9A    -11.307344
      10A    -10.601459    11A    -10.594235    12A    -10.594062
      13A    -10.592649    14A    -10.591601    15A    -10.586299
      16A     -8.068326    17A     -8.066021    18A     -8.065994
      19A     -8.060943    20A     -8.060821    21A     -8.059387
      22A     -8.058852    23A     -8.058843    24A     -8.058654
      25A     -8.058632    26A     -8.058274    27A     -8.057260
      28A     -8.057236    29A     -8.056222    30A     -8.056215
      31A     -8.052970    32A     -8.050919    33A     -8.050898
      34A     -1.274826    35A     -1.243715    36A     -1.129221
      37A     -1.121960    38A     -1.116594    39A     -1.107686
      40A     -1.050151    41A     -0.865539    42A     -0.795210
      43A     -0.696075    44A     -0.677305    45A     -0.674082
      46A     -0.628898    47A     -0.613879    48A     -0.597210
      49A     -0.570192    50A     -0.527176    51A     -0.515181
      52A     -0.503854    53A     -0.498338    54A     -0.494305
      55A     -0.476906    56A     -0.473079    57A     -0.464040
      58A     -0.457639    59A     -0.456669    60A     -0.449768
      61A     -0.443374

  @DF-RHF Final Energy: -2871.86592213507038

   => Energetics <=

    Nuclear Repulsion Energy =           1107.0160806468509236
    One-Electron Energy =               -6173.8249698946565331
    Two-Electron Energy =                2194.9429671127350048
    Total Energy =                      -2871.8659221350703774
  Basis Set: (AUG-CC-PVTZ AUX)
    Blend: AUG-CC-PVTZ-RI
    Molecular point group: c1

    Geometry (in Angstrom), charge = 0, multiplicity = 1:

       Center              X                  Y                   Z               Mass
    ------------   -----------------  -----------------  -----------------  -----------------
         CL           2.566682107360    -0.434930001309     1.390895344216    34.968852682000
         CL           1.758453107360     1.607772998691    -0.471022655784    34.968852682000
         CL           1.434250107360    -1.182373001309    -1.164659655784    34.968852682000
         CL          -1.756973892640    -1.603426001309    -0.471027655784    34.968852682000
         CL          -2.565208892640     0.439269998691     1.390896344216    34.968852682000
         CL          -1.432778892640     1.186723998691    -1.164656655784    34.968852682000
         C            0.000738107360     0.002173998691     0.892100344216    12.000000000000
         C            1.333418907360    -0.050979801309     0.125597744216    12.000000000000
         C           -1.347171892640     0.010446998691     0.150843344216    12.000000000000
         H            0.027604107360     0.884113998691     1.536664344216     1.007825032230
         H           -0.026126892640    -0.879766001309     1.536663344216     1.007825032230

  Basis Set: AUG-CC-PVTZ
    Blend: AUG-CC-PVTZ
  Basis Set: (AUG-CC-PVTZ AUX)
    Blend: AUG-CC-PVTZ-JKFIT
	 Reference Energy          =   -2871.8659221350703774 [Eh]
	 Singles Energy            =      -0.0000000000000000 [Eh]
	 Same-Spin Energy          =      -0.5145305684815574 [Eh]
	 Opposite-Spin Energy      =      -1.4591933554449801 [Eh]
	 Correlation Energy        =      -1.9737239239265376 [Eh]
	 Total Energy              =   -2873.8396460589970047 [Eh]

	 ================> DF-SCS-MP2 Energies <==================
	-----------------------------------------------------------
	 SCS Same-Spin Scale       =       0.3333333333333333 [-]
	 SCS Opposite-Spin Scale   =       1.2000000000000000 [-]
	 SCS Same-Spin Energy      =      -0.1715101894938525 [Eh]
	 SCS Opposite-Spin Energy  =      -1.7510320265339760 [Eh]
	 SCS Correlation Energy    =      -1.9225422160278285 [Eh]
	 SCS Total Energy          =   -2873.7884643510983551 [Eh]
	-----------------------------------------------------------

  Dipole Moment: [D]
     X:    -0.0797      Y:    -0.2382      Z:     0.7030     Total:     0.7465

*** Psi4 exiting successfully. Buy a developer a beer!
