                               Psi4 1.3.2 release

  ==> Input File <==

--------------------------------------------------------------------------
#psi4
#
memory 32 gb

molecule  {
0 1
 Cl        2.5659450    -0.4371030     1.3752130
 Cl        1.7577160     1.6056000    -0.4867050
 Cl        1.4335130    -1.1845460    -1.1803420
 Cl       -1.7577110    -1.6055990    -0.4867100
 Cl       -2.5659460     0.4370970     1.3752140
 Cl       -1.4335160     1.1845510    -1.1803390
  C        0.0000010     0.0000010     0.8764180
  C        1.5231535    -0.0093499     0.0387834
  C       -1.3479090     0.0082740     0.1351610
  H        0.0268670     0.8819410     1.5209820
  H       -0.0268640    -0.8819390     1.5209810
units angstrom
no_reorient  #important for SAPT in psi4, default
symmetry c1  #important for SAPT in psi4, default
}

set PROPERTIES_ORIGIN ["COM"]
properties('MP2/aug-cc-pvtz', properties = ['dipole'])
--------------------------------------------------------------------------

    Molecular point group: c1
  Charge       = 0
  Multiplicity = 1
  Basis Set: AUG-CC-PVTZ
    Blend: AUG-CC-PVTZ
  Basis Set: (AUG-CC-PVTZ AUX)
    Blend: AUG-CC-PVTZ-JKFIT

    Orbital Energies [Eh]
    ---------------------

    Doubly Occupied:

       1A   -104.873281     2A   -104.870671     3A   -104.870640
       4A   -104.866486     5A   -104.866196     6A   -104.863934
       7A    -11.450233     8A    -11.449863     9A    -11.306157
      10A    -10.599219    11A    -10.596376    12A    -10.595782
      13A    -10.591030    14A    -10.590955    15A    -10.588702
      16A     -8.066153    17A     -8.063773    18A     -8.063734
      19A     -8.063263    20A     -8.062584    21A     -8.060959
      22A     -8.060915    23A     -8.060402    24A     -8.060380
      25A     -8.057730    26A     -8.057718    27A     -8.055645
      28A     -8.055639    29A     -8.055572    30A     -8.055548
      31A     -8.055442    32A     -8.053333    33A     -8.053301
      34A     -1.276129    35A     -1.248366    36A     -1.138651
      37A     -1.129966    38A     -1.116330    39A     -1.113600
      40A     -1.022248    41A     -0.845995    42A     -0.797573
      43A     -0.684608    44A     -0.668299    45A     -0.662734
      46A     -0.641271    47A     -0.627388    48A     -0.597268
      49A     -0.575318    50A     -0.524332    51A     -0.513547
      52A     -0.504974    53A     -0.499132    54A     -0.485140
      55A     -0.480481    56A     -0.478272    57A     -0.461692
      58A     -0.457995    59A     -0.454017    60A     -0.450023
      61A     -0.423163

  @DF-RHF Final Energy: -2871.84286683742448

   => Energetics <=

    Nuclear Repulsion Energy =           1106.1618577658812228
    One-Electron Energy =               -6172.1691980366167627
    Two-Electron Energy =                2194.1644734333112865
    Total Energy =                      -2871.8428668374244808
  Basis Set: (AUG-CC-PVTZ AUX)
    Blend: AUG-CC-PVTZ-RI
    Molecular point group: c1

    Geometry (in Angstrom), charge = 0, multiplicity = 1:

       Center              X                  Y                   Z               Mass
    ------------   -----------------  -----------------  -----------------  -----------------
         CL           2.557459366855    -0.437050960906     1.394339593297    34.968852682000
         CL           1.749230366855     1.605652039094    -0.467578406703    34.968852682000
         CL           1.425027366855    -1.184493960906    -1.161215406703    34.968852682000
         CL          -1.766196633145    -1.605546960906    -0.467583406703    34.968852682000
         CL          -2.574431633145     0.437149039094     1.394340593297    34.968852682000
         CL          -1.442001633145     1.184603039094    -1.161212406703    34.968852682000
         C           -0.008484633145     0.000053039094     0.895544593297    12.000000000000
         C            1.514667866855    -0.009297860906     0.057909993297    12.000000000000
         C           -1.356394633145     0.008326039094     0.154287593297    12.000000000000
         H            0.018381366855     0.881993039094     1.540108593297     1.007825032230
         H           -0.035349633145    -0.881886960906     1.540107593297     1.007825032230

  Basis Set: AUG-CC-PVTZ
    Blend: AUG-CC-PVTZ
  Basis Set: (AUG-CC-PVTZ AUX)
    Blend: AUG-CC-PVTZ-JKFIT
	 Reference Energy          =   -2871.8428668374244808 [Eh]
	 Singles Energy            =      -0.0000000000000000 [Eh]
	 Same-Spin Energy          =      -0.5155818551215996 [Eh]
	 Opposite-Spin Energy      =      -1.4601514769400499 [Eh]
	 Correlation Energy        =      -1.9757333320616495 [Eh]
	 Total Energy              =   -2873.8186001694862171 [Eh]

	 ================> DF-SCS-MP2 Energies <==================
	-----------------------------------------------------------
	 SCS Same-Spin Scale       =       0.3333333333333333 [-]
	 SCS Opposite-Spin Scale   =       1.2000000000000000 [-]
	 SCS Same-Spin Energy      =      -0.1718606183738665 [Eh]
	 SCS Opposite-Spin Energy  =      -1.7521817723280597 [Eh]
	 SCS Correlation Energy    =      -1.9240423907019262 [Eh]
	 SCS Total Energy          =   -2873.7669092281262238 [Eh]
	-----------------------------------------------------------

  Dipole Moment: [D]
     X:     0.3852      Y:     0.0111      Z:     0.6701     Total:     0.7730

*** Psi4 exiting successfully. Buy a developer a beer!
