                               Psi4 1.4a3.dev225

  ==> Input File <==

--------------------------------------------------------------------------
#psi4
#
memory 32 gb

molecule  {
0 1
 Cl        2.5659450    -0.4371030     1.3752130
 Cl        1.7577160     1.6056000    -0.4867050
 Cl        1.4335130    -1.1845460    -1.1803420
 Cl       -1.7577110    -1.6055990    -0.4867100
 Cl       -2.5659460     0.4370970     1.3752140
 Cl       -1.4335160     1.1845510    -1.1803390
  C        0.0000010     0.0000010     0.8764180
  C        1.3654325    -0.0083816     0.1255196
  C       -1.3479090     0.0082740     0.1351610
  H        0.0268670     0.8819410     1.5209820
  H       -0.0268640    -0.8819390     1.5209810
units angstrom
no_reorient  #important for SAPT in psi4, default
symmetry c1  #important for SAPT in psi4, default
}

set PROPERTIES_ORIGIN ["COM"]
properties('MP2/aug-cc-pvtz', properties = ['dipole'])
--------------------------------------------------------------------------

    Molecular point group: c1
  Charge       = 0
  Multiplicity = 1
  Basis Set: AUG-CC-PVTZ
    Blend: AUG-CC-PVTZ
  Basis Set: (AUG-CC-PVTZ AUX)
    Blend: AUG-CC-PVTZ-JKFIT

    Orbital Energies [Eh]
    ---------------------

    Doubly Occupied:

       1A   -104.869671     2A   -104.869651     3A   -104.869282
       4A   -104.868913     5A   -104.867386     6A   -104.866663
       7A    -11.454332     8A    -11.454276     9A    -11.307177
      10A    -10.594503    11A    -10.594285    12A    -10.593812
      13A    -10.593637    14A    -10.592219    15A    -10.591390
      16A     -8.061280    17A     -8.061003    18A     -8.060519
      19A     -8.060398    20A     -8.059094    21A     -8.059073
      22A     -8.058973    23A     -8.058903    24A     -8.058892
      25A     -8.058428    26A     -8.058419    27A     -8.058233
      28A     -8.058213    29A     -8.058129    30A     -8.056825
      31A     -8.056799    32A     -8.055999    33A     -8.055974
      34A     -1.273471    35A     -1.243844    36A     -1.125002
      37A     -1.122958    38A     -1.115682    39A     -1.114420
      40A     -1.046742    41A     -0.863840    42A     -0.794583
      43A     -0.694625    44A     -0.675529    45A     -0.671610
      46A     -0.630066    47A     -0.616049    48A     -0.595609
      49A     -0.571016    50A     -0.524326    51A     -0.515583
      52A     -0.504670    53A     -0.500100    54A     -0.491875
      55A     -0.477139    56A     -0.474094    57A     -0.463191
      58A     -0.457859    59A     -0.455811    60A     -0.450143
      61A     -0.444546

  @DF-RHF Final Energy: -2871.86741508965997

   => Energetics <=

    Nuclear Repulsion Energy =           1106.7847966485167035
    One-Electron Energy =               -6173.3909500132804169
    Two-Electron Energy =                2194.7387382751035148
    Total Energy =                      -2871.8674150896599713
  Basis Set: (AUG-CC-PVTZ AUX)
    Blend: AUG-CC-PVTZ-RI
    Molecular point group: c1

    Geometry (in Angstrom), charge = 0, multiplicity = 1:

       Center              X                  Y                   Z               Mass
    ------------   -----------------  -----------------  -----------------  -----------------
         CL           2.565096301136    -0.437097846505     1.390139780595    34.968852682000
         CL           1.756867301136     1.605605153495    -0.471778219405    34.968852682000
         CL           1.432664301136    -1.184540846505    -1.165415219405    34.968852682000
         CL          -1.758559698864    -1.605593846505    -0.471783219405    34.968852682000
         CL          -2.566794698864     0.437102153495     1.390140780595    34.968852682000
         CL          -1.434364698864     1.184556153495    -1.165412219405    34.968852682000
         C           -0.000847698864     0.000006153495     0.891344780595    12.000000000000
         C            1.364583801136    -0.008376446505     0.140446380595    12.000000000000
         C           -1.348757698864     0.008279153495     0.150087780595    12.000000000000
         H            0.026018301136     0.881946153495     1.535908780595     1.007825032230
         H           -0.027712698864    -0.881933846505     1.535907780595     1.007825032230

  Basis Set: AUG-CC-PVTZ
    Blend: AUG-CC-PVTZ
  Basis Set: (AUG-CC-PVTZ AUX)
    Blend: AUG-CC-PVTZ-JKFIT
	 Reference Energy          =   -2871.8674150896599713 [Eh]
	 Singles Energy            =      -0.0000000000000000 [Eh]
	 Same-Spin Energy          =      -0.5143786820897245 [Eh]
	 Opposite-Spin Energy      =      -1.4588607031561267 [Eh]
	 Correlation Energy        =      -1.9732393852458512 [Eh]
	 Total Energy              =   -2873.8406544749059321 [Eh]

	 ================> DF-SCS-MP2 Energies <==================
	-----------------------------------------------------------
	 SCS Same-Spin Scale       =       0.3333333333333333 [-]
	 SCS Opposite-Spin Scale   =       1.2000000000000000 [-]
	 SCS Same-Spin Energy      =      -0.1714595606965748 [Eh]
	 SCS Opposite-Spin Energy  =      -1.7506328437873520 [Eh]
	 SCS Correlation Energy    =      -1.9220924044839267 [Eh]
	 SCS Total Energy          =   -2873.7895074941438907 [Eh]
	-----------------------------------------------------------

  Dipole Moment: [D]
     X:     0.0433      Y:     0.0015      Z:     0.8253     Total:     0.8264

*** Psi4 exiting successfully. Buy a developer a beer!
