                               Psi4 1.3.2 release

  ==> Input File <==

--------------------------------------------------------------------------
#psi4
#
memory 32 gb

molecule  {
0 1
 Cl        2.5659450    -0.4371030     1.3752130
 Cl        1.7577160     1.6056000    -0.4867050
 Cl        1.4335130    -1.1845460    -1.1803420
 Cl       -1.7577110    -1.6055990    -0.4867100
 Cl       -2.5659460     0.4370970     1.3752140
 Cl       -1.4335160     1.1845510    -1.1803390
  C        0.0000010     0.0000010     0.8764180
  C        1.1726625    -0.0071981     0.2315306
  C       -1.3479090     0.0082740     0.1351610
  H        0.0268670     0.8819410     1.5209820
  H       -0.0268640    -0.8819390     1.5209810
units angstrom
no_reorient  #important for SAPT in psi4, default
symmetry c1  #important for SAPT in psi4, default
}

set PROPERTIES_ORIGIN ["COM"]
properties('MP2/aug-cc-pvtz', properties = ['dipole'])
--------------------------------------------------------------------------

    Molecular point group: c1
  Charge       = 0
  Multiplicity = 1
  Basis Set: AUG-CC-PVTZ
    Blend: AUG-CC-PVTZ
  Basis Set: (AUG-CC-PVTZ AUX)
    Blend: AUG-CC-PVTZ-JKFIT

    Orbital Energies [Eh]
    ---------------------

    Doubly Occupied:

       1A   -104.874055     2A   -104.873494     3A   -104.871827
       4A   -104.868245     5A   -104.863881     6A   -104.861735
       7A    -11.462390     8A    -11.460547     9A    -11.302895
      10A    -10.598578    11A    -10.598132    12A    -10.596455
      13A    -10.591816    14A    -10.587332    15A    -10.585367
      16A     -8.065289    17A     -8.064890    18A     -8.063193
      19A     -8.063187    20A     -8.063174    21A     -8.062692
      22A     -8.062680    23A     -8.061028    24A     -8.061013
      25A     -8.058406    26A     -8.056388    27A     -8.056381
      28A     -8.053928    29A     -8.051954    30A     -8.051904
      31A     -8.051899    32A     -8.049953    33A     -8.049941
      34A     -1.284141    35A     -1.235568    36A     -1.125853
      37A     -1.123070    38A     -1.103605    39A     -1.098638
      40A     -1.090808    41A     -0.888344    42A     -0.791607
      43A     -0.716773    44A     -0.692210    45A     -0.683522
      46A     -0.625241    47A     -0.616676    48A     -0.575863
      49A     -0.553567    50A     -0.524309    51A     -0.520609
      52A     -0.510290    53A     -0.497321    54A     -0.493633
      55A     -0.477414    56A     -0.473011    57A     -0.472426
      58A     -0.458424    59A     -0.448595    60A     -0.445533
      61A     -0.442127

  @DF-RHF Final Energy: -2871.83056829361294

   => Energetics <=

    Nuclear Repulsion Energy =           1107.3662085946702973
    One-Electron Energy =               -6174.3658957844145334
    Two-Electron Energy =                2195.1691188961308399
    Total Energy =                      -2871.8305682936129415
  Basis Set: (AUG-CC-PVTZ AUX)
    Blend: AUG-CC-PVTZ-RI
    Molecular point group: c1

    Geometry (in Angstrom), charge = 0, multiplicity = 1:

       Center              X                  Y                   Z               Mass
    ------------   -----------------  -----------------  -----------------  -----------------
         CL           2.574430326543    -0.437155152201     1.385006671877    34.968852682000
         CL           1.766201326543     1.605547847799    -0.476911328123    34.968852682000
         CL           1.441998326543    -1.184598152201    -1.170548328123    34.968852682000
         CL          -1.749225673457    -1.605651152201    -0.476916328123    34.968852682000
         CL          -2.557460673457     0.437044847799     1.385007671877    34.968852682000
         CL          -1.425030673457     1.184498847799    -1.170545328123    34.968852682000
         C            0.008486326543    -0.000051152201     0.886211671877    12.000000000000
         C            1.181147826543    -0.007250252201     0.241324271877    12.000000000000
         C           -1.339423673457     0.008221847799     0.144954671877    12.000000000000
         H            0.035352326543     0.881888847799     1.530775671877     1.007825032230
         H           -0.018378673457    -0.881991152201     1.530774671877     1.007825032230

  Basis Set: AUG-CC-PVTZ
    Blend: AUG-CC-PVTZ
  Basis Set: (AUG-CC-PVTZ AUX)
    Blend: AUG-CC-PVTZ-JKFIT
	 Reference Energy          =   -2871.8305682936129415 [Eh]
	 Singles Energy            =      -0.0000000000000000 [Eh]
	 Same-Spin Energy          =      -0.5163432390662195 [Eh]
	 Opposite-Spin Energy      =      -1.4636243254414065 [Eh]
	 Correlation Energy        =      -1.9799675645076260 [Eh]
	 Total Energy              =   -2873.8105358581206019 [Eh]

	 ================> DF-SCS-MP2 Energies <==================
	-----------------------------------------------------------
	 SCS Same-Spin Scale       =       0.3333333333333333 [-]
	 SCS Opposite-Spin Scale   =       1.2000000000000000 [-]
	 SCS Same-Spin Energy      =      -0.1721144130220731 [Eh]
	 SCS Opposite-Spin Energy  =      -1.7563491905296877 [Eh]
	 SCS Correlation Energy    =      -1.9284636035517608 [Eh]
	 SCS Total Energy          =   -2873.7590318971647321 [Eh]
	-----------------------------------------------------------

  Dipole Moment: [D]
     X:    -0.6029      Y:    -0.0232      Z:     1.0943     Total:     1.2496

*** Psi4 exiting successfully. Buy a developer a beer!
