                               Psi4 1.4a3.dev225

  ==> Input File <==

--------------------------------------------------------------------------
#psi4
#
memory 32 gb

molecule  {
0 1
 Cl        2.5659450    -0.4371030     1.3752130
 Cl        1.7577160     1.6056000    -0.4867050
 Cl        1.4335130    -1.1845460    -1.1803420
 Cl       -1.7577110    -1.6055990    -0.4867100
 Cl       -2.5659460     0.4370970     1.3752140
 Cl       -1.4335160     1.1845510    -1.1803390
  C        0.0000010     0.0000010     0.8764180
  C        1.3303835    -0.0081664     0.1447944
  C       -1.3479090     0.0082740     0.1351610
  H        0.0268670     0.8819410     1.5209820
  H       -0.0268640    -0.8819390     1.5209810
units angstrom
no_reorient  #important for SAPT in psi4, default
symmetry c1  #important for SAPT in psi4, default
}

set PROPERTIES_ORIGIN ["COM"]
properties('MP2/aug-cc-pvtz', properties = ['dipole'])
--------------------------------------------------------------------------

    Molecular point group: c1
  Charge       = 0
  Multiplicity = 1
  Basis Set: AUG-CC-PVTZ
    Blend: AUG-CC-PVTZ
  Basis Set: (AUG-CC-PVTZ AUX)
    Blend: AUG-CC-PVTZ-JKFIT

    Orbital Energies [Eh]
    ---------------------

    Doubly Occupied:

       1A   -104.869958     2A   -104.869598     3A   -104.869554
       4A   -104.868838     5A   -104.867393     6A   -104.866639
       7A    -11.455520     8A    -11.455476     9A    -11.306722
      10A    -10.594487    11A    -10.594312    12A    -10.593996
      13A    -10.593424    14A    -10.592108    15A    -10.591248
      16A     -8.061195    17A     -8.061071    18A     -8.060692
      19A     -8.060167    20A     -8.059103    21A     -8.059093
      22A     -8.058902    23A     -8.058884    24A     -8.058847
      25A     -8.058609    26A     -8.058601    27A     -8.058018
      28A     -8.058001    29A     -8.057971    30A     -8.056711
      31A     -8.056688    32A     -8.055853    33A     -8.055831
      34A     -1.274096    35A     -1.242132    36A     -1.123592
      37A     -1.122014    38A     -1.114622    39A     -1.112955
      40A     -1.053835    41A     -0.868266    42A     -0.793867
      43A     -0.697638    44A     -0.677992    45A     -0.673719
      46A     -0.628202    47A     -0.614437    48A     -0.593915
      49A     -0.568951    50A     -0.524255    51A     -0.516272
      52A     -0.505171    53A     -0.499836    54A     -0.493696
      55A     -0.476469    56A     -0.473534    57A     -0.465590
      58A     -0.457147    59A     -0.455696    60A     -0.449727
      61A     -0.445364

  @DF-RHF Final Energy: -2871.86748261277580

   => Energetics <=

    Nuclear Repulsion Energy =           1106.8892060864816358
    One-Electron Energy =               -6173.5803767735342262
    Two-Electron Energy =                2194.8236880742765607
    Total Energy =                      -2871.8674826127758024
  Basis Set: (AUG-CC-PVTZ AUX)
    Blend: AUG-CC-PVTZ-RI
    Molecular point group: c1

    Geometry (in Angstrom), charge = 0, multiplicity = 1:

       Center              X                  Y                   Z               Mass
    ------------   -----------------  -----------------  -----------------  -----------------
         CL           2.566793392263    -0.437108266603     1.389206484579    34.968852682000
         CL           1.758564392263     1.605594733397    -0.472711515421    34.968852682000
         CL           1.434361392263    -1.184551266603    -1.166348515421    34.968852682000
         CL          -1.756862607737    -1.605604266603    -0.472716515421    34.968852682000
         CL          -2.565097607737     0.437091733397     1.389207484579    34.968852682000
         CL          -1.432667607737     1.184545733397    -1.166345515421    34.968852682000
         C            0.000849392263    -0.000004266603     0.890411484579    12.000000000000
         C            1.331231892263    -0.008171666603     0.158787884579    12.000000000000
         C           -1.347060607737     0.008268733397     0.149154484579    12.000000000000
         H            0.027715392263     0.881935733397     1.534975484579     1.007825032230
         H           -0.026015607737    -0.881944266603     1.534974484579     1.007825032230

  Basis Set: AUG-CC-PVTZ
    Blend: AUG-CC-PVTZ
  Basis Set: (AUG-CC-PVTZ AUX)
    Blend: AUG-CC-PVTZ-JKFIT
	 Reference Energy          =   -2871.8674826127758024 [Eh]
	 Singles Energy            =      -0.0000000000000000 [Eh]
	 Same-Spin Energy          =      -0.5144110048185746 [Eh]
	 Opposite-Spin Energy      =      -1.4591780476876171 [Eh]
	 Correlation Energy        =      -1.9735890525061917 [Eh]
	 Total Energy              =   -2873.8410716652820156 [Eh]

	 ================> DF-SCS-MP2 Energies <==================
	-----------------------------------------------------------
	 SCS Same-Spin Scale       =       0.3333333333333333 [-]
	 SCS Opposite-Spin Scale   =       1.2000000000000000 [-]
	 SCS Same-Spin Energy      =      -0.1714703349395248 [Eh]
	 SCS Opposite-Spin Energy  =      -1.7510136572251405 [Eh]
	 SCS Correlation Energy    =      -1.9224839921646653 [Eh]
	 SCS Total Energy          =   -2873.7899666049406733 [Eh]
	-----------------------------------------------------------

  Dipole Moment: [D]
     X:    -0.0454      Y:    -0.0016      Z:     0.8643     Total:     0.8655

*** Psi4 exiting successfully. Buy a developer a beer!
