                               Psi4 1.3.2 release

  ==> Input File <==

--------------------------------------------------------------------------
#psi4
#
memory 32 gb

molecule  {
0 1
 Cl        2.4727590    -0.4435384     1.4582226
 Cl        1.7577160     1.6056000    -0.4867050
 Cl        1.4335130    -1.1845460    -1.1803420
 Cl       -1.7577110    -1.6055990    -0.4867100
 Cl       -2.5659460     0.4370970     1.3752140
 Cl       -1.4335160     1.1845510    -1.1803390
  C        0.0000010     0.0000010     0.8764180
  C        1.3479080    -0.0082740     0.1351570
  C       -1.3479090     0.0082740     0.1351610
  H        0.0268670     0.8819410     1.5209820
  H       -0.0268640    -0.8819390     1.5209810
units angstrom
no_reorient  #important for SAPT in psi4, default
symmetry c1  #important for SAPT in psi4, default
}

set PROPERTIES_ORIGIN ["COM"]
properties('MP2/aug-cc-pvtz', properties = ['dipole'])
--------------------------------------------------------------------------

    Molecular point group: c1
  Charge       = 0
  Multiplicity = 1
  Basis Set: AUG-CC-PVTZ
    Blend: AUG-CC-PVTZ
  Basis Set: (AUG-CC-PVTZ AUX)
    Blend: AUG-CC-PVTZ-JKFIT

    Orbital Energies [Eh]
    ---------------------

    Doubly Occupied:

       1A   -104.871135     2A   -104.870002     3A   -104.868853
       4A   -104.868690     5A   -104.868665     6A   -104.866413
       7A    -11.454935     8A    -11.453217     9A    -11.305239
      10A    -10.595702    11A    -10.594625    12A    -10.593427
      13A    -10.593397    14A    -10.593233    15A    -10.591143
      16A     -8.062467    17A     -8.061327    18A     -8.060298
      19A     -8.060277    20A     -8.060172    21A     -8.060157
      22A     -8.059941    23A     -8.059239    24A     -8.059230
      25A     -8.058036    26A     -8.058010    27A     -8.057996
      28A     -8.057977    29A     -8.057882    30A     -8.057854
      31A     -8.057844    32A     -8.055755    33A     -8.055730
      34A     -1.273676    35A     -1.242392    36A     -1.124819
      37A     -1.124136    38A     -1.116141    39A     -1.113858
      40A     -1.047536    41A     -0.865468    42A     -0.794493
      43A     -0.696156    44A     -0.676089    45A     -0.672275
      46A     -0.628919    47A     -0.614549    48A     -0.595386
      49A     -0.568825    50A     -0.524392    51A     -0.515193
      52A     -0.504202    53A     -0.500258    54A     -0.493065
      55A     -0.477624    56A     -0.474326    57A     -0.463286
      58A     -0.458014    59A     -0.456610    60A     -0.451082
      61A     -0.444545

  @DF-RHF Final Energy: -2871.86598725140766

   => Energetics <=

    Nuclear Repulsion Energy =           1107.5419496508793600
    One-Electron Energy =               -6174.8835078891997910
    Two-Electron Energy =                2195.4755709869127713
    Total Energy =                      -2871.8659872514076596
  Basis Set: (AUG-CC-PVTZ AUX)
    Blend: AUG-CC-PVTZ-RI
    Molecular point group: c1

    Geometry (in Angstrom), charge = 0, multiplicity = 1:

       Center              X                  Y                   Z               Mass
    ------------   -----------------  -----------------  -----------------  -----------------
         CL           2.485907471682    -0.442630416063     1.460970006423    34.968852682000
         CL           1.770864471682     1.606507983937    -0.483957593577    34.968852682000
         CL           1.446661471682    -1.183638016063    -1.177594593577    34.968852682000
         CL          -1.744562528318    -1.604691016063    -0.483962593577    34.968852682000
         CL          -2.552797528318     0.438004983937     1.377961406423    34.968852682000
         CL          -1.420367528318     1.185458983937    -1.177591593577    34.968852682000
         C            0.013149471682     0.000908983937     0.879165406423    12.000000000000
         C            1.361056471682    -0.007366016063     0.137904406423    12.000000000000
         C           -1.334760528318     0.009181983937     0.137908406423    12.000000000000
         H            0.040015471682     0.882848983937     1.523729406423     1.007825032230
         H           -0.013715528318    -0.881031016063     1.523728406423     1.007825032230

  Basis Set: AUG-CC-PVTZ
    Blend: AUG-CC-PVTZ
  Basis Set: (AUG-CC-PVTZ AUX)
    Blend: AUG-CC-PVTZ-JKFIT
	 Reference Energy          =   -2871.8659872514076596 [Eh]
	 Singles Energy            =      -0.0000000000000000 [Eh]
	 Same-Spin Energy          =      -0.5145685376051263 [Eh]
	 Opposite-Spin Energy      =      -1.4593530521666316 [Eh]
	 Correlation Energy        =      -1.9739215897717579 [Eh]
	 Total Energy              =   -2873.8399088411792945 [Eh]

	 ================> DF-SCS-MP2 Energies <==================
	-----------------------------------------------------------
	 SCS Same-Spin Scale       =       0.3333333333333333 [-]
	 SCS Opposite-Spin Scale   =       1.2000000000000000 [-]
	 SCS Same-Spin Energy      =      -0.1715228458683754 [Eh]
	 SCS Opposite-Spin Energy  =      -1.7512236625999578 [Eh]
	 SCS Correlation Energy    =      -1.9227465084683333 [Eh]
	 SCS Total Energy          =   -2873.7887337598758677 [Eh]
	-----------------------------------------------------------

  Dipole Moment: [D]
     X:     0.0693      Y:     0.0076      Z:     0.7992     Total:     0.8022

*** Psi4 exiting successfully. Buy a developer a beer!
