                               Psi4 1.3.2 release

  ==> Input File <==

--------------------------------------------------------------------------
#psi4
#
memory 32 gb

molecule  {
0 1
 Cl        2.5659450    -0.4371030     1.3752130
 Cl        1.7577160     1.6056000    -0.4867050
 Cl        1.4335130    -1.1845460    -1.1803420
 Cl       -1.7577110    -1.6055990    -0.4867100
 Cl       -2.5659460     0.4370970     1.3752140
 Cl       -1.4335160     1.1845510    -1.1803390
  C        0.0000010     0.0000010     0.8764180
  C        1.2929178    -0.0079366     0.0429357
  C       -1.3479090     0.0082740     0.1351610
  H        0.0268670     0.8819410     1.5209820
  H       -0.0268640    -0.8819390     1.5209810
units angstrom
no_reorient  #important for SAPT in psi4, default
symmetry c1  #important for SAPT in psi4, default
}

set PROPERTIES_ORIGIN ["COM"]
properties('MP2/aug-cc-pvtz', properties = ['dipole'])
--------------------------------------------------------------------------

    Molecular point group: c1
  Charge       = 0
  Multiplicity = 1
  Basis Set: AUG-CC-PVTZ
    Blend: AUG-CC-PVTZ
  Basis Set: (AUG-CC-PVTZ AUX)
    Blend: AUG-CC-PVTZ-JKFIT

    Orbital Energies [Eh]
    ---------------------

    Doubly Occupied:

       1A   -104.879081     2A   -104.871361     3A   -104.870764
       4A   -104.869737     5A   -104.868742     6A   -104.854013
       7A    -11.457162     8A    -11.454454     9A    -11.308407
      10A    -10.604642    11A    -10.596106    12A    -10.595582
      13A    -10.594298    14A    -10.593485    15A    -10.577921
      16A     -8.071544    17A     -8.069191    18A     -8.069151
      19A     -8.062862    20A     -8.062355    21A     -8.061006
      22A     -8.060706    23A     -8.060684    24A     -8.060223
      25A     -8.060167    26A     -8.060139    27A     -8.058920
      28A     -8.058908    29A     -8.058098    30A     -8.058072
      31A     -8.044456    32A     -8.042575    33A     -8.042569
      34A     -1.277079    35A     -1.244841    36A     -1.135440
      37A     -1.122242    38A     -1.117633    39A     -1.101231
      40A     -1.049666    41A     -0.864301    42A     -0.797554
      43A     -0.698231    44A     -0.678512    45A     -0.674273
      46A     -0.633168    47A     -0.609276    48A     -0.599065
      49A     -0.572706    50A     -0.529315    51A     -0.511333
      52A     -0.507108    53A     -0.499225    54A     -0.496514
      55A     -0.477402    56A     -0.472593    57A     -0.461728
      58A     -0.459124    59A     -0.455425    60A     -0.448649
      61A     -0.440718

  @DF-RHF Final Energy: -2871.86150880054811

   => Energetics <=

    Nuclear Repulsion Energy =           1107.5205159259110133
    One-Electron Energy =               -6174.7805768933767467
    Two-Electron Energy =                2195.3985521669173977
    Total Energy =                      -2871.8615088005481084
  Basis Set: (AUG-CC-PVTZ AUX)
    Blend: AUG-CC-PVTZ-RI
    Molecular point group: c1

    Geometry (in Angstrom), charge = 0, multiplicity = 1:

       Center              X                  Y                   Z               Mass
    ------------   -----------------  -----------------  -----------------  -----------------
         CL           2.568607501282    -0.437119393640     1.394138536734    34.968852682000
         CL           1.760378501282     1.605583606360    -0.467779463266    34.968852682000
         CL           1.436175501282    -1.184562393640    -1.161416463266    34.968852682000
         CL          -1.755048498718    -1.605615393640    -0.467784463266    34.968852682000
         CL          -2.563283498718     0.437080606360     1.394139536734    34.968852682000
         CL          -1.430853498718     1.184534606360    -1.161413463266    34.968852682000
         C            0.002663501282    -0.000015393640     0.895343536734    12.000000000000
         C            1.295580301282    -0.007952993640     0.061861236734    12.000000000000
         C           -1.345246498718     0.008257606360     0.154086536734    12.000000000000
         H            0.029529501282     0.881924606360     1.539907536734     1.007825032230
         H           -0.024201498718    -0.881955393640     1.539906536734     1.007825032230

  Basis Set: AUG-CC-PVTZ
    Blend: AUG-CC-PVTZ
  Basis Set: (AUG-CC-PVTZ AUX)
    Blend: AUG-CC-PVTZ-JKFIT
	 Reference Energy          =   -2871.8615088005481084 [Eh]
	 Singles Energy            =      -0.0000000000000000 [Eh]
	 Same-Spin Energy          =      -0.5149058880061201 [Eh]
	 Opposite-Spin Energy      =      -1.4596828204240704 [Eh]
	 Correlation Energy        =      -1.9745887084301905 [Eh]
	 Total Energy              =   -2873.8360975089781277 [Eh]

	 ================> DF-SCS-MP2 Energies <==================
	-----------------------------------------------------------
	 SCS Same-Spin Scale       =       0.3333333333333333 [-]
	 SCS Opposite-Spin Scale   =       1.2000000000000000 [-]
	 SCS Same-Spin Energy      =      -0.1716352960020400 [Eh]
	 SCS Opposite-Spin Energy  =      -1.7516193845088843 [Eh]
	 SCS Correlation Energy    =      -1.9232546805109243 [Eh]
	 SCS Total Energy          =   -2873.7847634810591444 [Eh]
	-----------------------------------------------------------

  Dipole Moment: [D]
     X:    -0.2684      Y:    -0.0077      Z:     0.3385     Total:     0.4321

*** Psi4 exiting successfully. Buy a developer a beer!
