                               Psi4 1.3.2 release

  ==> Input File <==

--------------------------------------------------------------------------
#psi4
#
memory 32 gb

molecule  {
0 1
 Cl        2.4240814    -0.4459624     1.4973343
 Cl        1.7577160     1.6056000    -0.4867050
 Cl        1.4335130    -1.1845460    -1.1803420
 Cl       -1.7577110    -1.6055990    -0.4867100
 Cl       -2.5659460     0.4370970     1.3752140
 Cl       -1.4335160     1.1845510    -1.1803390
  C        0.0000010     0.0000010     0.8764180
  C        1.3479080    -0.0082740     0.1351570
  C       -1.3479090     0.0082740     0.1351610
  H        0.0268670     0.8819410     1.5209820
  H       -0.0268640    -0.8819390     1.5209810
units angstrom
no_reorient  #important for SAPT in psi4, default
symmetry c1  #important for SAPT in psi4, default
}

set PROPERTIES_ORIGIN ["COM"]
properties('MP2/aug-cc-pvtz', properties = ['dipole'])
--------------------------------------------------------------------------

    Molecular point group: c1
  Charge       = 0
  Multiplicity = 1
  Basis Set: AUG-CC-PVTZ
    Blend: AUG-CC-PVTZ
  Basis Set: (AUG-CC-PVTZ AUX)
    Blend: AUG-CC-PVTZ-JKFIT

    Orbital Energies [Eh]
    ---------------------

    Doubly Occupied:

       1A   -104.872069     2A   -104.870117     3A   -104.869772
       4A   -104.868335     5A   -104.868206     6A   -104.866082
       7A    -11.454927     8A    -11.452305     9A    -11.304382
      10A    -10.596563    11A    -10.594812    12A    -10.594273
      13A    -10.593075    14A    -10.592756    15A    -10.590817
      16A     -8.063330    17A     -8.061508    18A     -8.061159
      19A     -8.061137    20A     -8.061021    21A     -8.059835
      22A     -8.059463    23A     -8.059420    24A     -8.059413
      25A     -8.058883    26A     -8.058857    27A     -8.057678
      28A     -8.057657    29A     -8.057556    30A     -8.057379
      31A     -8.057369    32A     -8.055432    33A     -8.055406
      34A     -1.273749    35A     -1.242130    36A     -1.126309
      37A     -1.124312    38A     -1.116300    39A     -1.113764
      40A     -1.046055    41A     -0.865175    42A     -0.794710
      43A     -0.696277    44A     -0.676169    45A     -0.671705
      46A     -0.628815    47A     -0.614265    48A     -0.595660
      49A     -0.568272    50A     -0.524467    51A     -0.514779
      52A     -0.503962    53A     -0.500316    54A     -0.493239
      55A     -0.477955    56A     -0.474560    57A     -0.462917
      58A     -0.458426    59A     -0.456852    60A     -0.451251
      61A     -0.443891

  @DF-RHF Final Energy: -2871.86405057770571

   => Energetics <=

    Nuclear Repulsion Energy =           1108.0177475647806205
    One-Electron Energy =               -6175.8290369415235546
    Two-Electron Energy =                2195.9472387990372226
    Total Energy =                      -2871.8640505777057115
  Basis Set: (AUG-CC-PVTZ AUX)
    Blend: AUG-CC-PVTZ-RI
    Molecular point group: c1

    Geometry (in Angstrom), charge = 0, multiplicity = 1:

       Center              X                  Y                   Z               Mass
    ------------   -----------------  -----------------  -----------------  -----------------
         CL           2.444098323031    -0.444712387572     1.494563011815    34.968852682000
         CL           1.777732923031     1.606850012428    -0.489476288185    34.968852682000
         CL           1.453529923031    -1.183295987572    -1.183113288185    34.968852682000
         CL          -1.737694076969    -1.604348987572    -0.489481288185    34.968852682000
         CL          -2.545929076969     0.438347012428     1.372442711815    34.968852682000
         CL          -1.413499076969     1.185801012428    -1.183110288185    34.968852682000
         C            0.020017923031     0.001251012428     0.873646711815    12.000000000000
         C            1.367924923031    -0.007023987572     0.132385711815    12.000000000000
         C           -1.327892076969     0.009524012428     0.132389711815    12.000000000000
         H            0.046883923031     0.883191012428     1.518210711815     1.007825032230
         H           -0.006847076969    -0.880688987572     1.518209711815     1.007825032230

  Basis Set: AUG-CC-PVTZ
    Blend: AUG-CC-PVTZ
  Basis Set: (AUG-CC-PVTZ AUX)
    Blend: AUG-CC-PVTZ-JKFIT
	 Reference Energy          =   -2871.8640505777057115 [Eh]
	 Singles Energy            =      -0.0000000000000000 [Eh]
	 Same-Spin Energy          =      -0.5147236893995217 [Eh]
	 Opposite-Spin Energy      =      -1.4596334470145469 [Eh]
	 Correlation Energy        =      -1.9743571364140686 [Eh]
	 Total Energy              =   -2873.8384077141199668 [Eh]

	 ================> DF-SCS-MP2 Energies <==================
	-----------------------------------------------------------
	 SCS Same-Spin Scale       =       0.3333333333333333 [-]
	 SCS Opposite-Spin Scale   =       1.2000000000000000 [-]
	 SCS Same-Spin Energy      =      -0.1715745631331739 [Eh]
	 SCS Opposite-Spin Energy  =      -1.7515601364174562 [Eh]
	 SCS Correlation Energy    =      -1.9231346995506302 [Eh]
	 SCS Total Energy          =   -2873.7871852772564125 [Eh]
	-----------------------------------------------------------

  Dipole Moment: [D]
     X:     0.1057      Y:     0.0113      Z:     0.7774     Total:     0.7846

*** Psi4 exiting successfully. Buy a developer a beer!
