                               Psi4 1.3.2 release

  ==> Input File <==

--------------------------------------------------------------------------
#psi4
#
memory 32 gb

molecule  {
0 1
 Cl        2.5659450    -0.4371030     1.3752130
 Cl        1.7577160     1.6056000    -0.4867050
 Cl        1.4335130    -1.1845460    -1.1803420
 Cl       -1.7577110    -1.6055990    -0.4867100
 Cl       -2.5659460     0.4370970     1.3752140
 Cl       -1.4335160     1.1845510    -1.1803390
  C        0.0000010     0.0000010     0.8764180
  C        1.3549064     0.0141726     0.1481184
  C       -1.3479090     0.0082740     0.1351610
  H        0.0268670     0.8819410     1.5209820
  H       -0.0268640    -0.8819390     1.5209810
units angstrom
no_reorient  #important for SAPT in psi4, default
symmetry c1  #important for SAPT in psi4, default
}

set PROPERTIES_ORIGIN ["COM"]
properties('MP2/aug-cc-pvtz', properties = ['dipole'])
--------------------------------------------------------------------------

    Molecular point group: c1
  Charge       = 0
  Multiplicity = 1
  Basis Set: AUG-CC-PVTZ
    Blend: AUG-CC-PVTZ
  Basis Set: (AUG-CC-PVTZ AUX)
    Blend: AUG-CC-PVTZ-JKFIT

    Orbital Energies [Eh]
    ---------------------

    Doubly Occupied:

       1A   -104.870788     2A   -104.869594     3A   -104.869478
       4A   -104.869224     5A   -104.866611     6A   -104.865666
       7A    -11.454977     8A    -11.454850     9A    -11.306938
      10A    -10.595399    11A    -10.594398    12A    -10.594122
      13A    -10.593945    14A    -10.591322    15A    -10.590133
      16A     -8.062123    17A     -8.061173    18A     -8.060829
      19A     -8.060706    20A     -8.060012    21A     -8.060001
      22A     -8.058996    23A     -8.058969    24A     -8.058737
      25A     -8.058728    26A     -8.058538    27A     -8.058521
      28A     -8.058062    29A     -8.056845    30A     -8.055926
      31A     -8.055901    32A     -8.054739    33A     -8.054723
      34A     -1.273692    35A     -1.243314    36A     -1.125155
      37A     -1.120677    38A     -1.116907    39A     -1.112420
      40A     -1.050287    41A     -0.866376    42A     -0.793919
      43A     -0.696161    44A     -0.676611    45A     -0.672547
      46A     -0.629287    47A     -0.615914    48A     -0.594077
      49A     -0.570010    50A     -0.522971    51A     -0.516235
      52A     -0.505911    53A     -0.500793    54A     -0.490925
      55A     -0.477020    56A     -0.473797    57A     -0.464458
      58A     -0.457167    59A     -0.455199    60A     -0.450407
      61A     -0.445094

  @DF-RHF Final Energy: -2871.86734090022355

   => Energetics <=

    Nuclear Repulsion Energy =           1106.7529705091401411
    One-Electron Energy =               -6173.3240046840592186
    Two-Electron Energy =                2194.7036932746955245
    Total Energy =                      -2871.8673409002235530
  Basis Set: (AUG-CC-PVTZ AUX)
    Blend: AUG-CC-PVTZ-RI
    Molecular point group: c1

    Geometry (in Angstrom), charge = 0, multiplicity = 1:

       Center              X                  Y                   Z               Mass
    ------------   -----------------  -----------------  -----------------  -----------------
         CL           2.565605980468    -0.438189932804     1.389045534740    34.968852682000
         CL           1.757376980468     1.604513067196    -0.472872465260    34.968852682000
         CL           1.433173980468    -1.185632932804    -1.166509465260    34.968852682000
         CL          -1.758050019532    -1.606685932804    -0.472877465260    34.968852682000
         CL          -2.566285019532     0.436010067196     1.389046534740    34.968852682000
         CL          -1.433855019532     1.183464067196    -1.166506465260    34.968852682000
         C           -0.000338019532    -0.001085932804     0.890250534740    12.000000000000
         C            1.354567380468     0.013085667196     0.161950934740    12.000000000000
         C           -1.348248019532     0.007187067196     0.148993534740    12.000000000000
         H            0.026527980468     0.880854067196     1.534814534740     1.007825032230
         H           -0.027203019532    -0.883025932804     1.534813534740     1.007825032230

  Basis Set: AUG-CC-PVTZ
    Blend: AUG-CC-PVTZ
  Basis Set: (AUG-CC-PVTZ AUX)
    Blend: AUG-CC-PVTZ-JKFIT
	 Reference Energy          =   -2871.8673409002235530 [Eh]
	 Singles Energy            =      -0.0000000000000000 [Eh]
	 Same-Spin Energy          =      -0.5143894665192315 [Eh]
	 Opposite-Spin Energy      =      -1.4590055177549046 [Eh]
	 Correlation Energy        =      -1.9733949842741361 [Eh]
	 Total Energy              =   -2873.8407358844974624 [Eh]

	 ================> DF-SCS-MP2 Energies <==================
	-----------------------------------------------------------
	 SCS Same-Spin Scale       =       0.3333333333333333 [-]
	 SCS Opposite-Spin Scale   =       1.2000000000000000 [-]
	 SCS Same-Spin Energy      =      -0.1714631555064105 [Eh]
	 SCS Opposite-Spin Energy  =      -1.7508066213058855 [Eh]
	 SCS Correlation Energy    =      -1.9222697768122960 [Eh]
	 SCS Total Energy          =   -2873.7896106770358529 [Eh]
	-----------------------------------------------------------

  Dipole Moment: [D]
     X:     0.0370      Y:     0.1179      Z:     0.9137     Total:     0.9220

*** Psi4 exiting successfully. Buy a developer a beer!
