                               Psi4 1.3.2 release

  ==> Input File <==

--------------------------------------------------------------------------
#psi4
#
memory 32 gb

molecule  {
0 1
 Cl        2.6944635    -0.4235452     1.2395054
 Cl        1.7577160     1.6056000    -0.4867050
 Cl        1.4335130    -1.1845460    -1.1803420
 Cl       -1.7577110    -1.6055990    -0.4867100
 Cl       -2.5659460     0.4370970     1.3752140
 Cl       -1.4335160     1.1845510    -1.1803390
  C        0.0000010     0.0000010     0.8764180
  C        1.3479080    -0.0082740     0.1351570
  C       -1.3479090     0.0082740     0.1351610
  H        0.0268670     0.8819410     1.5209820
  H       -0.0268640    -0.8819390     1.5209810
units angstrom
no_reorient  #important for SAPT in psi4, default
symmetry c1  #important for SAPT in psi4, default
}

set PROPERTIES_ORIGIN ["COM"]
properties('MP2/aug-cc-pvtz', properties = ['dipole'])
--------------------------------------------------------------------------

    Molecular point group: c1
  Charge       = 0
  Multiplicity = 1
  Basis Set: AUG-CC-PVTZ
    Blend: AUG-CC-PVTZ
  Basis Set: (AUG-CC-PVTZ AUX)
    Blend: AUG-CC-PVTZ-JKFIT

    Orbital Energies [Eh]
    ---------------------

    Doubly Occupied:

       1A   -104.870895     2A   -104.869970     3A   -104.868647
       4A   -104.867804     5A   -104.866380     6A   -104.864269
       7A    -11.457090     8A    -11.454686     9A    -11.309603
      10A    -10.595404    11A    -10.594671    12A    -10.593151
      13A    -10.592513    14A    -10.591341    15A    -10.589223
      16A     -8.062112    17A     -8.061431    18A     -8.060014
      19A     -8.060005    20A     -8.059852    21A     -8.059255
      22A     -8.059252    23A     -8.059237    24A     -8.058091
      25A     -8.057740    26A     -8.057735    27A     -8.057112
      28A     -8.057089    29A     -8.055951    30A     -8.055925
      31A     -8.055908    32A     -8.053821    33A     -8.053798
      34A     -1.274161    35A     -1.244193    36A     -1.124014
      37A     -1.121390    38A     -1.114013    39A     -1.111449
      40A     -1.053569    41A     -0.866879    42A     -0.794115
      43A     -0.696282    44A     -0.678792    45A     -0.672230
      46A     -0.629273    47A     -0.615935    48A     -0.594085
      49A     -0.572058    50A     -0.524409    51A     -0.516713
      52A     -0.506123    53A     -0.499560    54A     -0.492470
      55A     -0.475508    56A     -0.472929    57A     -0.466600
      58A     -0.457201    59A     -0.454171    60A     -0.446803
      61A     -0.443661

  @DF-RHF Final Energy: -2871.86565439892456

   => Energetics <=

    Nuclear Repulsion Energy =           1106.3811435852687737
    One-Electron Energy =               -6172.5964784299312669
    Two-Electron Energy =                2194.3496804457381586
    Total Energy =                      -2871.8656543989245620
  Basis Set: (AUG-CC-PVTZ AUX)
    Blend: AUG-CC-PVTZ-RI
    Molecular point group: c1

    Geometry (in Angstrom), charge = 0, multiplicity = 1:

       Center              X                  Y                   Z               Mass
    ------------   -----------------  -----------------  -----------------  -----------------
         CL           2.676329275489    -0.425458273829     1.273113992009    34.968852682000
         CL           1.739581775489     1.603686926171    -0.453096407991    34.968852682000
         CL           1.415378775489    -1.186459073829    -1.146733407991    34.968852682000
         CL          -1.775845224511    -1.607512073829    -0.453101407991    34.968852682000
         CL          -2.584080224511     0.435183926171     1.408822592009    34.968852682000
         CL          -1.451650224511     1.182637926171    -1.146730407991    34.968852682000
         C           -0.018133224511    -0.001912073829     0.910026592009    12.000000000000
         C            1.329773775489    -0.010187073829     0.168765592009    12.000000000000
         C           -1.366043224511     0.006360926171     0.168769592009    12.000000000000
         H            0.008732775489     0.880027926171     1.554590592009     1.007825032230
         H           -0.044998224511    -0.883852073829     1.554589592009     1.007825032230

  Basis Set: AUG-CC-PVTZ
    Blend: AUG-CC-PVTZ
  Basis Set: (AUG-CC-PVTZ AUX)
    Blend: AUG-CC-PVTZ-JKFIT
	 Reference Energy          =   -2871.8656543989245620 [Eh]
	 Singles Energy            =      -0.0000000000000000 [Eh]
	 Same-Spin Energy          =      -0.5143653197987994 [Eh]
	 Opposite-Spin Energy      =      -1.4588900302493903 [Eh]
	 Correlation Energy        =      -1.9732553500481897 [Eh]
	 Total Energy              =   -2873.8389097489725827 [Eh]

	 ================> DF-SCS-MP2 Energies <==================
	-----------------------------------------------------------
	 SCS Same-Spin Scale       =       0.3333333333333333 [-]
	 SCS Opposite-Spin Scale   =       1.2000000000000000 [-]
	 SCS Same-Spin Energy      =      -0.1714551065995998 [Eh]
	 SCS Opposite-Spin Energy  =      -1.7506680362992684 [Eh]
	 SCS Correlation Energy    =      -1.9221231428988681 [Eh]
	 SCS Total Energy          =   -2873.7877775418232886 [Eh]
	-----------------------------------------------------------

  Dipole Moment: [D]
     X:    -0.0956      Y:    -0.0114      Z:     0.9146     Total:     0.9197

*** Psi4 exiting successfully. Buy a developer a beer!
