                               Psi4 1.3.2 release

  ==> Input File <==

--------------------------------------------------------------------------
#psi4
#
memory 32 gb

molecule  {
0 1
 Cl        2.5883314    -0.4351663     1.3535002
 Cl        1.7577160     1.6056000    -0.4867050
 Cl        1.4335130    -1.1845460    -1.1803420
 Cl       -1.7577110    -1.6055990    -0.4867100
 Cl       -2.5659460     0.4370970     1.3752140
 Cl       -1.4335160     1.1845510    -1.1803390
  C        0.0000010     0.0000010     0.8764180
  C        1.3479080    -0.0082740     0.1351570
  C       -1.3479090     0.0082740     0.1351610
  H        0.0268670     0.8819410     1.5209820
  H       -0.0268640    -0.8819390     1.5209810
units angstrom
no_reorient  #important for SAPT in psi4, default
symmetry c1  #important for SAPT in psi4, default
}

set PROPERTIES_ORIGIN ["COM"]
properties('MP2/aug-cc-pvtz', properties = ['dipole'])
--------------------------------------------------------------------------

    Molecular point group: c1
  Charge       = 0
  Multiplicity = 1
  Basis Set: AUG-CC-PVTZ
    Blend: AUG-CC-PVTZ
  Basis Set: (AUG-CC-PVTZ AUX)
    Blend: AUG-CC-PVTZ-JKFIT

    Orbital Energies [Eh]
    ---------------------

    Doubly Occupied:

       1A   -104.869836     2A   -104.869484     3A   -104.869382
       4A   -104.868776     5A   -104.867161     6A   -104.866562
       7A    -11.455284     8A    -11.454870     9A    -11.307413
      10A    -10.594362    11A    -10.594098    12A    -10.594000
      13A    -10.593534    14A    -10.591880    15A    -10.591321
      16A     -8.061070    17A     -8.060858    18A     -8.060708
      19A     -8.060292    20A     -8.058977    21A     -8.058968
      22A     -8.058690    23A     -8.058671    24A     -8.058619
      25A     -8.058614    26A     -8.058605    27A     -8.058126
      28A     -8.058107    29A     -8.058058    30A     -8.056485
      31A     -8.056461    32A     -8.055926    33A     -8.055902
      34A     -1.273767    35A     -1.243181    36A     -1.124064
      37A     -1.122167    38A     -1.114842    39A     -1.113751
      40A     -1.050822    41A     -0.866184    42A     -0.794184
      43A     -0.696100    44A     -0.677017    45A     -0.672630
      46A     -0.629124    47A     -0.615290    48A     -0.594747
      49A     -0.570367    50A     -0.524284    51A     -0.516066
      52A     -0.505068    53A     -0.499928    54A     -0.492772
      55A     -0.476554    56A     -0.473654    57A     -0.464715
      58A     -0.457373    59A     -0.455598    60A     -0.449519
      61A     -0.445035

  @DF-RHF Final Energy: -2871.86777993542682

   => Energetics <=

    Nuclear Repulsion Energy =           1106.7122891033959604
    One-Electron Energy =               -6173.2403424742878997
    Two-Electron Energy =                2194.6602734354651147
    Total Energy =                      -2871.8677799354268245
  Basis Set: (AUG-CC-PVTZ AUX)
    Blend: AUG-CC-PVTZ-RI
    Molecular point group: c1

    Geometry (in Angstrom), charge = 0, multiplicity = 1:

       Center              X                  Y                   Z               Mass
    ------------   -----------------  -----------------  -----------------  -----------------
         CL           2.585172506349    -0.435439626594     1.371024027397    34.968852682000
         CL           1.754557106349     1.605326673406    -0.469181172603    34.968852682000
         CL           1.430354106349    -1.184819326594    -1.162818172603    34.968852682000
         CL          -1.760869893651    -1.605872326594    -0.469186172603    34.968852682000
         CL          -2.569104893651     0.436823673406     1.392737827397    34.968852682000
         CL          -1.436674893651     1.184277673406    -1.162815172603    34.968852682000
         C           -0.003157893651    -0.000272326594     0.893941827397    12.000000000000
         C            1.344749106349    -0.008547326594     0.152680827397    12.000000000000
         C           -1.351067893651     0.008000673406     0.152684827397    12.000000000000
         H            0.023708106349     0.881667673406     1.538505827397     1.007825032230
         H           -0.030022893651    -0.882212326594     1.538504827397     1.007825032230

  Basis Set: AUG-CC-PVTZ
    Blend: AUG-CC-PVTZ
  Basis Set: (AUG-CC-PVTZ AUX)
    Blend: AUG-CC-PVTZ-JKFIT
	 Reference Energy          =   -2871.8677799354268245 [Eh]
	 Singles Energy            =      -0.0000000000000000 [Eh]
	 Same-Spin Energy          =      -0.5143554170975433 [Eh]
	 Opposite-Spin Energy      =      -1.4589382813457812 [Eh]
	 Correlation Energy        =      -1.9732936984433245 [Eh]
	 Total Energy              =   -2873.8410736338701099 [Eh]

	 ================> DF-SCS-MP2 Energies <==================
	-----------------------------------------------------------
	 SCS Same-Spin Scale       =       0.3333333333333333 [-]
	 SCS Opposite-Spin Scale   =       1.2000000000000000 [-]
	 SCS Same-Spin Energy      =      -0.1714518056991811 [Eh]
	 SCS Opposite-Spin Energy  =      -1.7507259376149373 [Eh]
	 SCS Correlation Energy    =      -1.9221777433141185 [Eh]
	 SCS Total Energy          =   -2873.7899576787408478 [Eh]
	-----------------------------------------------------------

  Dipole Moment: [D]
     X:    -0.0166      Y:    -0.0019      Z:     0.8560     Total:     0.8562

*** Psi4 exiting successfully. Buy a developer a beer!
