                               Psi4 1.3.2 release

  ==> Input File <==

--------------------------------------------------------------------------
#psi4
#
memory 32 gb

molecule  {
0 1
 Cl        2.5659450    -0.4371030     1.3752130
 Cl        1.7577160     1.6056000    -0.4867050
 Cl        1.4335130    -1.1845460    -1.1803420
 Cl       -1.7577110    -1.6055990    -0.4867100
 Cl       -2.5659460     0.4370970     1.3752140
 Cl       -1.4335160     1.1845510    -1.1803390
  C        0.0000010     0.0000010     0.8764180
  C        1.3404991    -0.0307181     0.1224214
  C       -1.3479090     0.0082740     0.1351610
  H        0.0268670     0.8819410     1.5209820
  H       -0.0268640    -0.8819390     1.5209810
units angstrom
no_reorient  #important for SAPT in psi4, default
symmetry c1  #important for SAPT in psi4, default
}

set PROPERTIES_ORIGIN ["COM"]
properties('MP2/aug-cc-pvtz', properties = ['dipole'])
--------------------------------------------------------------------------

    Molecular point group: c1
  Charge       = 0
  Multiplicity = 1
  Basis Set: AUG-CC-PVTZ
    Blend: AUG-CC-PVTZ
  Basis Set: (AUG-CC-PVTZ AUX)
    Blend: AUG-CC-PVTZ-JKFIT

    Orbital Energies [Eh]
    ---------------------

    Doubly Occupied:

       1A   -104.872720     2A   -104.869650     3A   -104.869291
       4A   -104.868437     5A   -104.867451     6A   -104.864508
       7A    -11.455112     8A    -11.454832     9A    -11.307111
      10A    -10.597735    11A    -10.594181    12A    -10.594008
      13A    -10.592880    14A    -10.592183    15A    -10.589048
      16A     -8.064547    17A     -8.062314    18A     -8.062291
      19A     -8.060889    20A     -8.060768    21A     -8.059570
      22A     -8.058921    23A     -8.058798    24A     -8.058789
      25A     -8.058601    26A     -8.058580    27A     -8.057499
      28A     -8.057490    29A     -8.056791    30A     -8.056767
      31A     -8.055752    32A     -8.053661    33A     -8.053639
      34A     -1.274087    35A     -1.243124    36A     -1.126379
      37A     -1.122287    38A     -1.115847    39A     -1.111243
      40A     -1.050165    41A     -0.865764    42A     -0.794653
      43A     -0.696062    44A     -0.676945    45A     -0.673175
      46A     -0.628964    47A     -0.614454    48A     -0.595932
      49A     -0.570092    50A     -0.525721    51A     -0.515554
      52A     -0.504211    53A     -0.498939    54A     -0.494175
      55A     -0.476794    56A     -0.473503    57A     -0.464226
      58A     -0.457624    59A     -0.456338    60A     -0.449752
      61A     -0.444472

  @DF-RHF Final Energy: -2871.86728744120001

   => Energetics <=

    Nuclear Repulsion Energy =           1106.9252536090780268
    One-Electron Energy =               -6173.6544957741207327
    Two-Electron Energy =                2194.8619547238427003
    Total Energy =                      -2871.8672874412000056
  Basis Set: (AUG-CC-PVTZ AUX)
    Blend: AUG-CC-PVTZ-RI
    Molecular point group: c1

    Geometry (in Angstrom), charge = 0, multiplicity = 1:

       Center              X                  Y                   Z               Mass
    ------------   -----------------  -----------------  -----------------  -----------------
         CL           2.566303589558    -0.436016301355     1.390289797078    34.968852682000
         CL           1.758074589558     1.606686698645    -0.471628202922    34.968852682000
         CL           1.433871589558    -1.183459301355    -1.165265202922    34.968852682000
         CL          -1.757352410442    -1.604512301355    -0.471633202922    34.968852682000
         CL          -2.565587410442     0.438183698645     1.390290797078    34.968852682000
         CL          -1.433157410442     1.185637698645    -1.165262202922    34.968852682000
         C            0.000359589558     0.001087698645     0.891494797078    12.000000000000
         C            1.340857689558    -0.029631401355     0.137498197078    12.000000000000
         C           -1.347550410442     0.009360698645     0.150237797078    12.000000000000
         H            0.027225589558     0.883027698645     1.536058797078     1.007825032230
         H           -0.026505410442    -0.880852301355     1.536057797078     1.007825032230

  Basis Set: AUG-CC-PVTZ
    Blend: AUG-CC-PVTZ
  Basis Set: (AUG-CC-PVTZ AUX)
    Blend: AUG-CC-PVTZ-JKFIT
	 Reference Energy          =   -2871.8672874412000056 [Eh]
	 Singles Energy            =      -0.0000000000000000 [Eh]
	 Same-Spin Energy          =      -0.5144257580193189 [Eh]
	 Opposite-Spin Energy      =      -1.4590521043973332 [Eh]
	 Correlation Energy        =      -1.9734778624166522 [Eh]
	 Total Energy              =   -2873.8407653036165357 [Eh]

	 ================> DF-SCS-MP2 Energies <==================
	-----------------------------------------------------------
	 SCS Same-Spin Scale       =       0.3333333333333333 [-]
	 SCS Opposite-Spin Scale   =       1.2000000000000000 [-]
	 SCS Same-Spin Energy      =      -0.1714752526731063 [Eh]
	 SCS Opposite-Spin Energy  =      -1.7508625252767998 [Eh]
	 SCS Correlation Energy    =      -1.9223377779499060 [Eh]
	 SCS Total Energy          =   -2873.7896252191499116 [Eh]
	-----------------------------------------------------------

  Dipole Moment: [D]
     X:    -0.0389      Y:    -0.1185      Z:     0.7743     Total:     0.7843

*** Psi4 exiting successfully. Buy a developer a beer!
