                               Psi4 1.3.2 release

  ==> Input File <==

--------------------------------------------------------------------------
#psi4
#
memory 32 gb

molecule  {
0 1
 Cl        2.5659450    -0.4371030     1.3752130
 Cl        1.7577160     1.6056000    -0.4867050
 Cl        1.4335130    -1.1845460    -1.1803420
 Cl       -1.7577110    -1.6055990    -0.4867100
 Cl       -2.5659460     0.4370970     1.3752140
 Cl       -1.4335160     1.1845510    -1.1803390
  C        0.0000010     0.0000010     0.8764180
  C        1.3158319    -0.0979668     0.0856077
  C       -1.3479090     0.0082740     0.1351610
  H        0.0268670     0.8819410     1.5209820
  H       -0.0268640    -0.8819390     1.5209810
units angstrom
no_reorient  #important for SAPT in psi4, default
symmetry c1  #important for SAPT in psi4, default
}

set PROPERTIES_ORIGIN ["COM"]
properties('MP2/aug-cc-pvtz', properties = ['dipole'])
--------------------------------------------------------------------------

    Molecular point group: c1
  Charge       = 0
  Multiplicity = 1
  Basis Set: AUG-CC-PVTZ
    Blend: AUG-CC-PVTZ
  Basis Set: (AUG-CC-PVTZ AUX)
    Blend: AUG-CC-PVTZ-JKFIT

    Orbital Energies [Eh]
    ---------------------

    Doubly Occupied:

       1A   -104.882740     2A   -104.869857     3A   -104.869507
       4A   -104.868907     5A   -104.864783     6A   -104.856444
       7A    -11.456746     8A    -11.454795     9A    -11.308098
      10A    -10.608906    11A    -10.594393    12A    -10.594215
      13A    -10.593666    14A    -10.588959    15A    -10.580556
      16A     -8.075891    17A     -8.073426    18A     -8.073387
      19A     -8.061101    20A     -8.060973    21A     -8.060403
      22A     -8.059011    23A     -8.059002    24A     -8.058805
      25A     -8.058779    26A     -8.058282    27A     -8.058258
      28A     -8.055594    29A     -8.053582    30A     -8.053575
      31A     -8.047162    32A     -8.045186    33A     -8.045168
      34A     -1.277710    35A     -1.246320    36A     -1.133942
      37A     -1.121798    38A     -1.117695    39A     -1.099929
      40A     -1.050205    41A     -0.865254    42A     -0.796717
      43A     -0.696194    44A     -0.678975    45A     -0.676565
      46A     -0.628951    47A     -0.613223    48A     -0.600228
      49A     -0.570718    50A     -0.529880    51A     -0.514430
      52A     -0.503601    53A     -0.499569    54A     -0.490431
      55A     -0.477018    56A     -0.472224    57A     -0.463745
      58A     -0.457100    59A     -0.456840    60A     -0.449909
      61A     -0.440203

  @DF-RHF Final Energy: -2871.86036146931337

   => Energetics <=

    Nuclear Repulsion Energy =           1107.2100136191586444
    One-Electron Energy =               -6174.1816882529055874
    Two-Electron Energy =                2195.1113131644337955
    Total Energy =                      -2871.8603614693133750
  Basis Set: (AUG-CC-PVTZ AUX)
    Blend: AUG-CC-PVTZ-RI
    Molecular point group: c1

    Geometry (in Angstrom), charge = 0, multiplicity = 1:

       Center              X                  Y                   Z               Mass
    ------------   -----------------  -----------------  -----------------  -----------------
         CL           2.567497988435    -0.432760083715     1.392072335913    34.968852682000
         CL           1.759268988435     1.609942916285    -0.469845664087    34.968852682000
         CL           1.435065988435    -1.180203083715    -1.163482664087    34.968852682000
         CL          -1.756158011565    -1.601256083715    -0.469850664087    34.968852682000
         CL          -2.564393011565     0.441439916285     1.392073335913    34.968852682000
         CL          -1.431963011565     1.188893916285    -1.163479664087    34.968852682000
         C            0.001553988435     0.004343916285     0.893277335913    12.000000000000
         C            1.317384888435    -0.093623883715     0.102467035913    12.000000000000
         C           -1.346356011565     0.012616916285     0.152020335913    12.000000000000
         H            0.028419988435     0.886283916285     1.537841335913     1.007825032230
         H           -0.025311011565    -0.877596083715     1.537840335913     1.007825032230

  Basis Set: AUG-CC-PVTZ
    Blend: AUG-CC-PVTZ
  Basis Set: (AUG-CC-PVTZ AUX)
    Blend: AUG-CC-PVTZ-JKFIT
	 Reference Energy          =   -2871.8603614693133750 [Eh]
	 Singles Energy            =      -0.0000000000000000 [Eh]
	 Same-Spin Energy          =      -0.5149191130051829 [Eh]
	 Opposite-Spin Energy      =      -1.4597201204184920 [Eh]
	 Correlation Energy        =      -1.9746392334236749 [Eh]
	 Total Energy              =   -2873.8350007027370339 [Eh]

	 ================> DF-SCS-MP2 Energies <==================
	-----------------------------------------------------------
	 SCS Same-Spin Scale       =       0.3333333333333333 [-]
	 SCS Opposite-Spin Scale   =       1.2000000000000000 [-]
	 SCS Same-Spin Energy      =      -0.1716397043350610 [Eh]
	 SCS Opposite-Spin Energy  =      -1.7516641445021903 [Eh]
	 SCS Correlation Energy    =      -1.9233038488372514 [Eh]
	 SCS Total Energy          =   -2873.7836653181507245 [Eh]
	-----------------------------------------------------------

  Dipole Moment: [D]
     X:    -0.1681      Y:    -0.4830      Z:     0.5553     Total:     0.7549

*** Psi4 exiting successfully. Buy a developer a beer!
