                               Psi4 1.3.2 release

  ==> Input File <==

--------------------------------------------------------------------------
#psi4
#
memory 32 gb

molecule  {
0 1
 Cl        2.5659450    -0.4371030     1.3752130
 Cl        1.7577160     1.6056000    -0.4867050
 Cl        1.4335130    -1.1845460    -1.1803420
 Cl       -1.7577110    -1.6055990    -0.4867100
 Cl       -2.5659460     0.4370970     1.3752140
 Cl       -1.4335160     1.1845510    -1.1803390
  C        0.0000010     0.0000010     0.8764180
  C        1.3836691     0.1262042     0.2161719
  C       -1.3479090     0.0082740     0.1351610
  H        0.0268670     0.8819410     1.5209820
  H       -0.0268640    -0.8819390     1.5209810
units angstrom
no_reorient  #important for SAPT in psi4, default
symmetry c1  #important for SAPT in psi4, default
}

set PROPERTIES_ORIGIN ["COM"]
properties('MP2/aug-cc-pvtz', properties = ['dipole'])
--------------------------------------------------------------------------

    Molecular point group: c1
  Charge       = 0
  Multiplicity = 1
  Basis Set: AUG-CC-PVTZ
    Blend: AUG-CC-PVTZ
  Basis Set: (AUG-CC-PVTZ AUX)
    Blend: AUG-CC-PVTZ-JKFIT

    Orbital Energies [Eh]
    ---------------------

    Doubly Occupied:

       1A   -104.881679     2A   -104.876976     3A   -104.869747
       4A   -104.869344     5A   -104.864851     6A   -104.845124
       7A    -11.457525     8A    -11.455754     9A    -11.308281
      10A    -10.607785    11A    -10.601888    12A    -10.594268
      13A    -10.594066    14A    -10.589502    15A    -10.568964
      16A     -8.074746    17A     -8.072318    18A     -8.072270
      19A     -8.068678    20A     -8.066471    21A     -8.066448
      22A     -8.060974    23A     -8.060830    24A     -8.058880
      25A     -8.058868    26A     -8.058661    27A     -8.058652
      28A     -8.056244    29A     -8.054093    30A     -8.054065
      31A     -8.035474    32A     -8.033627    33A     -8.033624
      34A     -1.278575    35A     -1.248466    36A     -1.142100
      37A     -1.119739    38A     -1.116555    39A     -1.091434
      40A     -1.050953    41A     -0.868937    42A     -0.794264
      43A     -0.697589    44A     -0.678290    45A     -0.676159
      46A     -0.632230    47A     -0.619607    48A     -0.594308
      49A     -0.569665    50A     -0.520780    51A     -0.516825
      52A     -0.511707    53A     -0.501565    54A     -0.482411
      55A     -0.478688    56A     -0.470895    57A     -0.460849
      58A     -0.454802    59A     -0.454319    60A     -0.447224
      61A     -0.439410

  @DF-RHF Final Energy: -2871.85362518115198

   => Energetics <=

    Nuclear Repulsion Energy =           1106.3411280500447447
    One-Electron Energy =               -6172.4914675880309005
    Two-Electron Energy =                2194.2967143568339452
    Total Energy =                      -2871.8536251811519833
  Basis Set: (AUG-CC-PVTZ AUX)
    Blend: AUG-CC-PVTZ-RI
    Molecular point group: c1

    Geometry (in Angstrom), charge = 0, multiplicity = 1:

       Center              X                  Y                   Z               Mass
    ------------   -----------------  -----------------  -----------------  -----------------
         CL           2.564213275314    -0.443614562159     1.385750348259    34.968852682000
         CL           1.755984275314     1.599088437841    -0.476167651741    34.968852682000
         CL           1.431781275314    -1.191057562159    -1.169804651741    34.968852682000
         CL          -1.759442724686    -1.612110562159    -0.476172651741    34.968852682000
         CL          -2.567677724686     0.430585437841     1.385751348259    34.968852682000
         CL          -1.435247724686     1.178039437841    -1.169801651741    34.968852682000
         C           -0.001730724686    -0.006510562159     0.886955348259    12.000000000000
         C            1.381937375314     0.119692637841     0.226709248259    12.000000000000
         C           -1.349640724686     0.001762437841     0.145698348259    12.000000000000
         H            0.025135275314     0.875429437841     1.531519348259     1.007825032230
         H           -0.028595724686    -0.888450562159     1.531518348259     1.007825032230

  Basis Set: AUG-CC-PVTZ
    Blend: AUG-CC-PVTZ
  Basis Set: (AUG-CC-PVTZ AUX)
    Blend: AUG-CC-PVTZ-JKFIT
	 Reference Energy          =   -2871.8536251811519833 [Eh]
	 Singles Energy            =      -0.0000000000000000 [Eh]
	 Same-Spin Energy          =      -0.5151998579122298 [Eh]
	 Opposite-Spin Energy      =      -1.4600873366721976 [Eh]
	 Correlation Energy        =      -1.9752871945844275 [Eh]
	 Total Energy              =   -2873.8289123757363086 [Eh]

	 ================> DF-SCS-MP2 Energies <==================
	-----------------------------------------------------------
	 SCS Same-Spin Scale       =       0.3333333333333333 [-]
	 SCS Opposite-Spin Scale   =       1.2000000000000000 [-]
	 SCS Same-Spin Energy      =      -0.1717332859707432 [Eh]
	 SCS Opposite-Spin Energy  =      -1.7521048040066372 [Eh]
	 SCS Correlation Energy    =      -1.9238380899773804 [Eh]
	 SCS Total Energy          =   -2873.7774632711293634 [Eh]
	-----------------------------------------------------------

  Dipole Moment: [D]
     X:     0.1975      Y:     0.7163      Z:     1.2583     Total:     1.4613

*** Psi4 exiting successfully. Buy a developer a beer!
