                               Psi4 1.3.2 release

  ==> Input File <==

--------------------------------------------------------------------------
#psi4
#
memory 32 gb

molecule  {
0 1
 Cl        2.5659450    -0.4371030     1.3752130
 Cl        1.7577160     1.6056000    -0.4867050
 Cl        1.4335130    -1.1845460    -1.1803420
 Cl       -1.7577110    -1.6055990    -0.4867100
 Cl       -2.5659460     0.4370970     1.3752140
 Cl       -1.4335160     1.1845510    -1.1803390
  C        0.0000010     0.0000010     0.8764180
  C        1.2630426    -0.0077532    -0.0016796
  C       -1.3479090     0.0082740     0.1351610
  H        0.0268670     0.8819410     1.5209820
  H       -0.0268640    -0.8819390     1.5209810
units angstrom
no_reorient  #important for SAPT in psi4, default
symmetry c1  #important for SAPT in psi4, default
}

set PROPERTIES_ORIGIN ["COM"]
properties('MP2/aug-cc-pvtz', properties = ['dipole'])
--------------------------------------------------------------------------

    Molecular point group: c1
  Charge       = 0
  Multiplicity = 1
  Basis Set: AUG-CC-PVTZ
    Blend: AUG-CC-PVTZ
  Basis Set: (AUG-CC-PVTZ AUX)
    Blend: AUG-CC-PVTZ-JKFIT

    Orbital Energies [Eh]
    ---------------------

    Doubly Occupied:

       1A   -104.884138     2A   -104.872824     3A   -104.872638
       4A   -104.869970     5A   -104.869800     6A   -104.845053
       7A    -11.459387     8A    -11.454483     9A    -11.309680
      10A    -10.610163    11A    -10.597616    12A    -10.597398
      13A    -10.594555    14A    -10.594543    15A    -10.568890
      16A     -8.077136    17A     -8.074684    18A     -8.074628
      19A     -8.064396    20A     -8.064152    21A     -8.062186
      22A     -8.062155    23A     -8.062001    24A     -8.061976
      25A     -8.061289    26A     -8.061252    27A     -8.059169
      28A     -8.059168    29A     -8.059156    30A     -8.059141
      31A     -8.035357    32A     -8.033567    33A     -8.033559
      34A     -1.280307    35A     -1.247326    36A     -1.141386
      37A     -1.123220    38A     -1.118670    39A     -1.093158
      40A     -1.049012    41A     -0.863819    42A     -0.799706
      43A     -0.699972    44A     -0.681677    45A     -0.674566
      46A     -0.636015    47A     -0.609097    48A     -0.599679
      49A     -0.574561    50A     -0.531771    51A     -0.510931
      52A     -0.508368    53A     -0.500932    54A     -0.493930
      55A     -0.479553    56A     -0.471861    57A     -0.463033
      58A     -0.456103    59A     -0.454726    60A     -0.445920
      61A     -0.436435

  @DF-RHF Final Energy: -2871.85439218276633

   => Energetics <=

    Nuclear Repulsion Energy =           1107.8649905324034535
    One-Electron Energy =               -6175.4150739086553585
    Two-Electron Energy =                2195.6956911934853451
    Total Energy =                      -2871.8543921827663326
  Basis Set: (AUG-CC-PVTZ AUX)
    Blend: AUG-CC-PVTZ-RI
    Molecular point group: c1

    Geometry (in Angstrom), charge = 0, multiplicity = 1:

       Center              X                  Y                   Z               Mass
    ------------   -----------------  -----------------  -----------------  -----------------
         CL           2.570054074275    -0.437128273965     1.396298833169    34.968852682000
         CL           1.761825074275     1.605574726035    -0.465619166831    34.968852682000
         CL           1.437622074275    -1.184571273965    -1.159256166831    34.968852682000
         CL          -1.753601925725    -1.605624273965    -0.465624166831    34.968852682000
         CL          -2.561836925725     0.437071726035     1.396299833169    34.968852682000
         CL          -1.429406925725     1.184525726035    -1.159253166831    34.968852682000
         C            0.004110074275    -0.000024273965     0.897503833169    12.000000000000
         C            1.267151674275    -0.007778473965     0.019406233169    12.000000000000
         C           -1.343799925725     0.008248726035     0.156246833169    12.000000000000
         H            0.030976074275     0.881915726035     1.542067833169     1.007825032230
         H           -0.022754925725    -0.881964273965     1.542066833169     1.007825032230

  Basis Set: AUG-CC-PVTZ
    Blend: AUG-CC-PVTZ
  Basis Set: (AUG-CC-PVTZ AUX)
    Blend: AUG-CC-PVTZ-JKFIT
	 Reference Energy          =   -2871.8543921827663326 [Eh]
	 Singles Energy            =      -0.0000000000000000 [Eh]
	 Same-Spin Energy          =      -0.5154275474154114 [Eh]
	 Opposite-Spin Energy      =      -1.4603652087504309 [Eh]
	 Correlation Energy        =      -1.9757927561658422 [Eh]
	 Total Energy              =   -2873.8301849389322342 [Eh]

	 ================> DF-SCS-MP2 Energies <==================
	-----------------------------------------------------------
	 SCS Same-Spin Scale       =       0.3333333333333333 [-]
	 SCS Opposite-Spin Scale   =       1.2000000000000000 [-]
	 SCS Same-Spin Energy      =      -0.1718091824718038 [Eh]
	 SCS Opposite-Spin Energy  =      -1.7524382505005169 [Eh]
	 SCS Correlation Energy    =      -1.9242474329723207 [Eh]
	 SCS Total Energy          =   -2873.7786396157384843 [Eh]
	-----------------------------------------------------------

  Dipole Moment: [D]
     X:    -0.4119      Y:    -0.0182      Z:     0.0843     Total:     0.4208

*** Psi4 exiting successfully. Buy a developer a beer!
