                               Psi4 1.4a3.dev225

  ==> Input File <==

--------------------------------------------------------------------------
#psi4
#
memory 32 gb

molecule  {
0 1
 Cl        2.5659450    -0.4371030     1.3752130
 Cl        1.7577160     1.6056000    -0.4867050
 Cl        1.4335130    -1.1845460    -1.1803420
 Cl       -1.7577110    -1.6055990    -0.4867100
 Cl       -2.5659460     0.4370970     1.3752140
 Cl       -1.4335160     1.1845510    -1.1803390
  C        0.0000010     0.0000010     0.8764180
  C        1.3040966    -0.0080050     0.1592504
  C       -1.3479090     0.0082740     0.1351610
  H        0.0268670     0.8819410     1.5209820
  H       -0.0268640    -0.8819390     1.5209810
units angstrom
no_reorient  #important for SAPT in psi4, default
symmetry c1  #important for SAPT in psi4, default
}

set PROPERTIES_ORIGIN ["COM"]
properties('MP2/aug-cc-pvtz', properties = ['dipole'])
--------------------------------------------------------------------------

    Molecular point group: c1
  Charge       = 0
  Multiplicity = 1
  Basis Set: AUG-CC-PVTZ
    Blend: AUG-CC-PVTZ
  Basis Set: (AUG-CC-PVTZ AUX)
    Blend: AUG-CC-PVTZ-JKFIT

    Orbital Energies [Eh]
    ---------------------

    Doubly Occupied:

       1A   -104.870503     2A   -104.870144     3A   -104.869453
       4A   -104.868188     5A   -104.867988     6A   -104.866031
       7A    -11.456466     8A    -11.456403     9A    -11.306254
      10A    -10.595031    11A    -10.594849    12A    -10.593757
      13A    -10.592693    14A    -10.592576    15A    -10.590470
      16A     -8.061739    17A     -8.061608    18A     -8.060437
      19A     -8.059646    20A     -8.059635    21A     -8.059435
      22A     -8.059431    23A     -8.059417    24A     -8.059293
      25A     -8.058365    26A     -8.058359    27A     -8.057291
      28A     -8.057269    29A     -8.057171    30A     -8.057168
      31A     -8.057154    32A     -8.055074    33A     -8.055054
      34A     -1.274900    35A     -1.240786    36A     -1.123435
      37A     -1.121401    38A     -1.113446    39A     -1.111200
      40A     -1.059556    41A     -0.871629    42A     -0.793346
      43A     -0.700142    44A     -0.680026    45A     -0.675328
      46A     -0.627058    47A     -0.613783    48A     -0.592024
      49A     -0.567075    50A     -0.524198    51A     -0.516886
      52A     -0.505784    53A     -0.499443    54A     -0.494803
      55A     -0.476116    56A     -0.473216    57A     -0.467321
      58A     -0.457000    59A     -0.455036    60A     -0.449341
      61A     -0.445462

  @DF-RHF Final Energy: -2871.86587054947677

   => Energetics <=

    Nuclear Repulsion Energy =           1106.9645417668114078
    One-Electron Energy =               -6173.7126391464744302
    Two-Electron Energy =                2194.8822268301860277
    Total Energy =                      -2871.8658705494767673
  Basis Set: (AUG-CC-PVTZ AUX)
    Blend: AUG-CC-PVTZ-RI
    Molecular point group: c1

    Geometry (in Angstrom), charge = 0, multiplicity = 1:

       Center              X                  Y                   Z               Mass
    ------------   -----------------  -----------------  -----------------  -----------------
         CL           2.568066217871    -0.437116081676     1.388506517410    34.968852682000
         CL           1.759837217871     1.605586918324    -0.473411482590    34.968852682000
         CL           1.435634217871    -1.184559081676    -1.167048482590    34.968852682000
         CL          -1.755589782129    -1.605612081676    -0.473416482590    34.968852682000
         CL          -2.563824782129     0.437083918324     1.388507517410    34.968852682000
         CL          -1.431394782129     1.184537918324    -1.167045482590    34.968852682000
         C            0.002122217871    -0.000012081676     0.889711517410    12.000000000000
         C            1.306217817871    -0.008018081676     0.172543917410    12.000000000000
         C           -1.345787782129     0.008260918324     0.148454517410    12.000000000000
         H            0.028988217871     0.881927918324     1.534275517410     1.007825032230
         H           -0.024742782129    -0.881952081676     1.534274517410     1.007825032230

  Basis Set: AUG-CC-PVTZ
    Blend: AUG-CC-PVTZ
  Basis Set: (AUG-CC-PVTZ AUX)
    Blend: AUG-CC-PVTZ-JKFIT
	 Reference Energy          =   -2871.8658705494767673 [Eh]
	 Singles Energy            =      -0.0000000000000000 [Eh]
	 Same-Spin Energy          =      -0.5145199961878604 [Eh]
	 Opposite-Spin Energy      =      -1.4595706419828356 [Eh]
	 Correlation Energy        =      -1.9740906381706960 [Eh]
	 Total Energy              =   -2873.8399611876475319 [Eh]

	 ================> DF-SCS-MP2 Energies <==================
	-----------------------------------------------------------
	 SCS Same-Spin Scale       =       0.3333333333333333 [-]
	 SCS Opposite-Spin Scale   =       1.2000000000000000 [-]
	 SCS Same-Spin Energy      =      -0.1715066653959534 [Eh]
	 SCS Opposite-Spin Energy  =      -1.7514847703794028 [Eh]
	 SCS Correlation Energy    =      -1.9229914357753561 [Eh]
	 SCS Total Energy          =   -2873.7888619852519696 [Eh]
	-----------------------------------------------------------

  Dipole Moment: [D]
     X:    -0.1180      Y:    -0.0043      Z:     0.8958     Total:     0.9035

*** Psi4 exiting successfully. Buy a developer a beer!
