                               Psi4 1.3.2 release

  ==> Input File <==

--------------------------------------------------------------------------
#psi4
#
memory 32 gb

molecule  {
0 1
 Cl        2.6103400    -0.4330995     1.3314162
 Cl        1.7577160     1.6056000    -0.4867050
 Cl        1.4335130    -1.1845460    -1.1803420
 Cl       -1.7577110    -1.6055990    -0.4867100
 Cl       -2.5659460     0.4370970     1.3752140
 Cl       -1.4335160     1.1845510    -1.1803390
  C        0.0000010     0.0000010     0.8764180
  C        1.3479080    -0.0082740     0.1351570
  C       -1.3479090     0.0082740     0.1351610
  H        0.0268670     0.8819410     1.5209820
  H       -0.0268640    -0.8819390     1.5209810
units angstrom
no_reorient  #important for SAPT in psi4, default
symmetry c1  #important for SAPT in psi4, default
}

set PROPERTIES_ORIGIN ["COM"]
properties('MP2/aug-cc-pvtz', properties = ['dipole'])
--------------------------------------------------------------------------

    Molecular point group: c1
  Charge       = 0
  Multiplicity = 1
  Basis Set: AUG-CC-PVTZ
    Blend: AUG-CC-PVTZ
  Basis Set: (AUG-CC-PVTZ AUX)
    Blend: AUG-CC-PVTZ-JKFIT

    Orbital Energies [Eh]
    ---------------------

    Doubly Occupied:

       1A   -104.870054     2A   -104.869510     3A   -104.869342
       4A   -104.868300     5A   -104.867297     6A   -104.866103
       7A    -11.455664     8A    -11.454842     9A    -11.307850
      10A    -10.594577    11A    -10.594223    12A    -10.593848
      13A    -10.593097    14A    -10.592015    15A    -10.590901
      16A     -8.061285    17A     -8.060983    18A     -8.060555
      19A     -8.059854    20A     -8.059191    21A     -8.059182
      22A     -8.058812    23A     -8.058794    24A     -8.058754
      25A     -8.058458    26A     -8.058450    27A     -8.057688
      28A     -8.057670    29A     -8.057636    30A     -8.056618
      31A     -8.056594    32A     -8.055505    33A     -8.055481
      34A     -1.273824    35A     -1.243364    36A     -1.124043
      37A     -1.121900    38A     -1.114524    39A     -1.113556
      40A     -1.051413    41A     -0.866324    42A     -0.794154
      43A     -0.696121    44A     -0.677342    45A     -0.672573
      46A     -0.629158    47A     -0.615430    48A     -0.594620
      49A     -0.570696    50A     -0.524286    51A     -0.516212
      52A     -0.505269    53A     -0.499850    54A     -0.492721
      55A     -0.476332    56A     -0.473511    57A     -0.465065
      58A     -0.457314    59A     -0.455328    60A     -0.449044
      61A     -0.444925

  @DF-RHF Final Energy: -2871.86765501366881

   => Energetics <=

    Nuclear Repulsion Energy =           1106.6067329577974760
    One-Electron Energy =               -6173.0327135495244875
    Two-Electron Energy =                2194.5583255780584295
    Total Energy =                      -2871.8676550136688093
  Basis Set: (AUG-CC-PVTZ AUX)
    Blend: AUG-CC-PVTZ-RI
    Molecular point group: c1

    Geometry (in Angstrom), charge = 0, multiplicity = 1:

       Center              X                  Y                   Z               Mass
    ------------   -----------------  -----------------  -----------------  -----------------
         CL           2.604075673904    -0.433664453857     1.352056098846    34.968852682000
         CL           1.751451673904     1.605035046143    -0.466065101154    34.968852682000
         CL           1.427248673904    -1.185110953857    -1.159702101154    34.968852682000
         CL          -1.763975326096    -1.606163953857    -0.466070101154    34.968852682000
         CL          -2.572210326096     0.436532046143     1.395853898846    34.968852682000
         CL          -1.439780326096     1.183986046143    -1.159699101154    34.968852682000
         C           -0.006263326096    -0.000563953857     0.897057898846    12.000000000000
         C            1.341643673904    -0.008838953857     0.155796898846    12.000000000000
         C           -1.354173326096     0.007709046143     0.155800898846    12.000000000000
         H            0.020602673904     0.881376046143     1.541621898846     1.007825032230
         H           -0.033128326096    -0.882503953857     1.541620898846     1.007825032230

  Basis Set: AUG-CC-PVTZ
    Blend: AUG-CC-PVTZ
  Basis Set: (AUG-CC-PVTZ AUX)
    Blend: AUG-CC-PVTZ-JKFIT
	 Reference Energy          =   -2871.8676550136688093 [Eh]
	 Singles Energy            =      -0.0000000000000000 [Eh]
	 Same-Spin Energy          =      -0.5143404402692898 [Eh]
	 Opposite-Spin Energy      =      -1.4589008615233188 [Eh]
	 Correlation Energy        =      -1.9732413017926085 [Eh]
	 Total Energy              =   -2873.8408963154615776 [Eh]

	 ================> DF-SCS-MP2 Energies <==================
	-----------------------------------------------------------
	 SCS Same-Spin Scale       =       0.3333333333333333 [-]
	 SCS Opposite-Spin Scale   =       1.2000000000000000 [-]
	 SCS Same-Spin Energy      =      -0.1714468134230966 [Eh]
	 SCS Opposite-Spin Energy  =      -1.7506810338279826 [Eh]
	 SCS Correlation Energy    =      -1.9221278472510792 [Eh]
	 SCS Total Energy          =   -2873.7897828609197859 [Eh]
	-----------------------------------------------------------

  Dipole Moment: [D]
     X:    -0.0330      Y:    -0.0038      Z:     0.8677     Total:     0.8683

*** Psi4 exiting successfully. Buy a developer a beer!
