                               Psi4 1.3.2 release

  ==> Input File <==

--------------------------------------------------------------------------
#psi4
#
memory 32 gb

molecule  {
0 1
 Cl        2.5431876    -0.4389091     1.3965481
 Cl        1.7577160     1.6056000    -0.4867050
 Cl        1.4335130    -1.1845460    -1.1803420
 Cl       -1.7577110    -1.6055990    -0.4867100
 Cl       -2.5659460     0.4370970     1.3752140
 Cl       -1.4335160     1.1845510    -1.1803390
  C        0.0000010     0.0000010     0.8764180
  C        1.3479080    -0.0082740     0.1351570
  C       -1.3479090     0.0082740     0.1351610
  H        0.0268670     0.8819410     1.5209820
  H       -0.0268640    -0.8819390     1.5209810
units angstrom
no_reorient  #important for SAPT in psi4, default
symmetry c1  #important for SAPT in psi4, default
}

set PROPERTIES_ORIGIN ["COM"]
properties('MP2/aug-cc-pvtz', properties = ['dipole'])
--------------------------------------------------------------------------

    Molecular point group: c1
  Charge       = 0
  Multiplicity = 1
  Basis Set: AUG-CC-PVTZ
    Blend: AUG-CC-PVTZ
  Basis Set: (AUG-CC-PVTZ AUX)
    Blend: AUG-CC-PVTZ-JKFIT

    Orbital Energies [Eh]
    ---------------------

    Doubly Occupied:

       1A   -104.869730     2A   -104.869724     3A   -104.869389
       4A   -104.869112     5A   -104.867478     6A   -104.866875
       7A    -11.454910     8A    -11.454491     9A    -11.306539
      10A    -10.594404    11A    -10.594277    12A    -10.593922
      13A    -10.593834    14A    -10.592162    15A    -10.591598
      16A     -8.061166    17A     -8.060984    18A     -8.060629
      19A     -8.060594    20A     -8.058998    21A     -8.058979
      22A     -8.058903    23A     -8.058894    24A     -8.058884
      25A     -8.058538    26A     -8.058529    27A     -8.058429
      28A     -8.058410    29A     -8.058337    30A     -8.056769
      31A     -8.056744    32A     -8.056206    33A     -8.056181
      34A     -1.273689    35A     -1.242840    36A     -1.124133
      37A     -1.122922    38A     -1.115511    39A     -1.113883
      40A     -1.049576    41A     -0.865900    42A     -0.794273
      43A     -0.696087    44A     -0.676472    45A     -0.672651
      46A     -0.629050    47A     -0.614998    48A     -0.594999
      49A     -0.569728    50A     -0.524307    51A     -0.515745
      52A     -0.504690    53A     -0.500078    54A     -0.492876
      55A     -0.477002    56A     -0.473933    57A     -0.464070
      58A     -0.457553    59A     -0.456075    60A     -0.450326
      61A     -0.445038

  @DF-RHF Final Energy: -2871.86755886206493

   => Energetics <=

    Nuclear Repulsion Energy =           1106.9833202043982965
    One-Electron Energy =               -6173.7757136668233215
    Two-Electron Energy =                2194.9248346003601000
    Total Energy =                      -2871.8675588620649251
  Basis Set: (AUG-CC-PVTZ AUX)
    Blend: AUG-CC-PVTZ-RI
    Molecular point group: c1

    Geometry (in Angstrom), charge = 0, multiplicity = 1:

       Center              X                  Y                   Z               Mass
    ------------   -----------------  -----------------  -----------------  -----------------
         CL           2.546398535470    -0.438654314286     1.407997831573    34.968852682000
         CL           1.760926935470     1.605854785714    -0.475255268427    34.968852682000
         CL           1.436723935470    -1.184291214286    -1.168892268427    34.968852682000
         CL          -1.754500064530    -1.605344214286    -0.475260268427    34.968852682000
         CL          -2.562735064530     0.437351785714     1.386663731573    34.968852682000
         CL          -1.430305064530     1.184805785714    -1.168889268427    34.968852682000
         C            0.003211935470     0.000255785714     0.887867731573    12.000000000000
         C            1.351118935470    -0.008019214286     0.146606731573    12.000000000000
         C           -1.344698064530     0.008528785714     0.146610731573    12.000000000000
         H            0.030077935470     0.882195785714     1.532431731573     1.007825032230
         H           -0.023653064530    -0.881684214286     1.532430731573     1.007825032230

  Basis Set: AUG-CC-PVTZ
    Blend: AUG-CC-PVTZ
  Basis Set: (AUG-CC-PVTZ AUX)
    Blend: AUG-CC-PVTZ-JKFIT
	 Reference Energy          =   -2871.8675588620649251 [Eh]
	 Singles Energy            =      -0.0000000000000000 [Eh]
	 Same-Spin Energy          =      -0.5144122396247169 [Eh]
	 Opposite-Spin Energy      =      -1.4590573951869836 [Eh]
	 Correlation Energy        =      -1.9734696348117007 [Eh]
	 Total Energy              =   -2873.8410284968767883 [Eh]

	 ================> DF-SCS-MP2 Energies <==================
	-----------------------------------------------------------
	 SCS Same-Spin Scale       =       0.3333333333333333 [-]
	 SCS Opposite-Spin Scale   =       1.2000000000000000 [-]
	 SCS Same-Spin Energy      =      -0.1714707465415723 [Eh]
	 SCS Opposite-Spin Energy  =      -1.7508688742243803 [Eh]
	 SCS Correlation Energy    =      -1.9223396207659527 [Eh]
	 SCS Total Energy          =   -2873.7898984828307221 [Eh]
	-----------------------------------------------------------

  Dipole Moment: [D]
     X:     0.0169      Y:     0.0019      Z:     0.8330     Total:     0.8331

*** Psi4 exiting successfully. Buy a developer a beer!
