                               Psi4 1.3.2 release

  ==> Input File <==

--------------------------------------------------------------------------
#psi4
#
memory 32 gb

molecule  {
0 1
 Cl        2.5659450    -0.4371030     1.3752130
 Cl        1.7577160     1.6056000    -0.4867050
 Cl        1.4335130    -1.1845460    -1.1803420
 Cl       -1.7577110    -1.6055990    -0.4867100
 Cl       -2.5659460     0.4370970     1.3752140
 Cl       -1.4335160     1.1845510    -1.1803390
  C        0.0000010     0.0000010     0.8764180
  C        1.3212177    -0.0081102     0.0885664
  C       -1.3479090     0.0082740     0.1351610
  H        0.0268670     0.8819410     1.5209820
  H       -0.0268640    -0.8819390     1.5209810
units angstrom
no_reorient  #important for SAPT in psi4, default
symmetry c1  #important for SAPT in psi4, default
}

set PROPERTIES_ORIGIN ["COM"]
properties('MP2/aug-cc-pvtz', properties = ['dipole'])
--------------------------------------------------------------------------

    Molecular point group: c1
  Charge       = 0
  Multiplicity = 1
  Basis Set: AUG-CC-PVTZ
    Blend: AUG-CC-PVTZ
  Basis Set: (AUG-CC-PVTZ AUX)
    Blend: AUG-CC-PVTZ-JKFIT

    Orbital Energies [Eh]
    ---------------------

    Doubly Occupied:

       1A   -104.874166     2A   -104.870239     3A   -104.869623
       4A   -104.868840     5A   -104.867822     6A   -104.862163
       7A    -11.455666     8A    -11.454597     9A    -11.307505
      10A    -10.599285    11A    -10.594971    12A    -10.594169
      13A    -10.593633    14A    -10.592555    15A    -10.586295
      16A     -8.066116    17A     -8.063858    18A     -8.063831
      19A     -8.061730    20A     -8.060876    21A     -8.060392
      22A     -8.059568    23A     -8.059547    24A     -8.059293
      25A     -8.058788    26A     -8.058777    27A     -8.058230
      28A     -8.058205    29A     -8.057164    30A     -8.057139
      31A     -8.052910    32A     -8.050930    33A     -8.050924
      34A     -1.274874    35A     -1.243262    36A     -1.129383
      37A     -1.121727    38A     -1.116335    39A     -1.108998
      40A     -1.049986    41A     -0.865053    42A     -0.795712
      43A     -0.696934    44A     -0.676833    45A     -0.673593
      46A     -0.630800    47A     -0.611578    48A     -0.597249
      49A     -0.571144    50A     -0.526755    51A     -0.513247
      52A     -0.505941    53A     -0.499585    54A     -0.495503
      55A     -0.475886    56A     -0.473859    57A     -0.462769
      58A     -0.459273    59A     -0.455721    60A     -0.449748
      61A     -0.443578

  @DF-RHF Final Energy: -2871.86608658749583

   => Energetics <=

    Nuclear Repulsion Energy =           1107.1758050161488427
    One-Electron Energy =               -6174.1335220837554516
    Two-Electron Energy =                2195.0916304801107799
    Total Energy =                      -2871.8660865874958290
  Basis Set: (AUG-CC-PVTZ AUX)
    Blend: AUG-CC-PVTZ-RI
    Molecular point group: c1

    Geometry (in Angstrom), charge = 0, multiplicity = 1:

       Center              X                  Y                   Z               Mass
    ------------   -----------------  -----------------  -----------------  -----------------
         CL           2.567237205149    -0.437110987836     1.391929074093    34.968852682000
         CL           1.759008205149     1.605592012164    -0.469988925907    34.968852682000
         CL           1.434805205149    -1.184553987836    -1.163625925907    34.968852682000
         CL          -1.756418794851    -1.605606987836    -0.469993925907    34.968852682000
         CL          -2.564653794851     0.437089012164     1.391930074093    34.968852682000
         CL          -1.432223794851     1.184543012164    -1.163622925907    34.968852682000
         C            0.001293205149    -0.000006987836     0.893134074093    12.000000000000
         C            1.322509905149    -0.008118187836     0.105282474093    12.000000000000
         C           -1.346616794851     0.008266012164     0.151877074093    12.000000000000
         H            0.028159205149     0.881933012164     1.537698074093     1.007825032230
         H           -0.025571794851    -0.881946987836     1.537697074093     1.007825032230

  Basis Set: AUG-CC-PVTZ
    Blend: AUG-CC-PVTZ
  Basis Set: (AUG-CC-PVTZ AUX)
    Blend: AUG-CC-PVTZ-JKFIT
	 Reference Energy          =   -2871.8660865874958290 [Eh]
	 Singles Energy            =      -0.0000000000000000 [Eh]
	 Same-Spin Energy          =      -0.5145465021985262 [Eh]
	 Opposite-Spin Energy      =      -1.4592074300803639 [Eh]
	 Correlation Energy        =      -1.9737539322788900 [Eh]
	 Total Energy              =   -2873.8398405197744978 [Eh]

	 ================> DF-SCS-MP2 Energies <==================
	-----------------------------------------------------------
	 SCS Same-Spin Scale       =       0.3333333333333333 [-]
	 SCS Opposite-Spin Scale   =       1.2000000000000000 [-]
	 SCS Same-Spin Energy      =      -0.1715155007328421 [Eh]
	 SCS Opposite-Spin Energy  =      -1.7510489160964366 [Eh]
	 SCS Correlation Energy    =      -1.9225644168292786 [Eh]
	 SCS Total Energy          =   -2873.7886510043249473 [Eh]
	-----------------------------------------------------------

  Dipole Moment: [D]
     X:    -0.1315      Y:    -0.0017      Z:     0.5911     Total:     0.6056

*** Psi4 exiting successfully. Buy a developer a beer!
