                               Psi4 1.3.2 release

  ==> Input File <==

--------------------------------------------------------------------------
#psi4
#
memory 32 gb

molecule  {
0 1
 Cl        2.5659450    -0.4371030     1.3752130
 Cl        1.7577160     1.6056000    -0.4867050
 Cl        1.4335130    -1.1845460    -1.1803420
 Cl       -1.7577110    -1.6055990    -0.4867100
 Cl       -2.5659460     0.4370970     1.3752140
 Cl       -1.4335160     1.1845510    -1.1803390
  C        0.0000010     0.0000010     0.8764180
  C        1.3963313    -0.0085711     0.2309897
  C       -1.3479090     0.0082740     0.1351610
  H        0.0268670     0.8819410     1.5209820
  H       -0.0268640    -0.8819390     1.5209810
units angstrom
no_reorient  #important for SAPT in psi4, default
symmetry c1  #important for SAPT in psi4, default
}

set PROPERTIES_ORIGIN ["COM"]
properties('MP2/aug-cc-pvtz', properties = ['dipole'])
--------------------------------------------------------------------------

    Molecular point group: c1
  Charge       = 0
  Multiplicity = 1
  Basis Set: AUG-CC-PVTZ
    Blend: AUG-CC-PVTZ
  Basis Set: (AUG-CC-PVTZ AUX)
    Blend: AUG-CC-PVTZ-JKFIT

    Orbital Energies [Eh]
    ---------------------

    Doubly Occupied:

       1A   -104.883108     2A   -104.869848     3A   -104.867566
       4A   -104.865677     5A   -104.863475     6A   -104.858778
       7A    -11.455851     8A    -11.455374     9A    -11.307027
      10A    -10.609006    11A    -10.594342    12A    -10.592259
      13A    -10.590371    14A    -10.587944    15A    -10.582881
      16A     -8.075941    17A     -8.073563    18A     -8.073535
      19A     -8.061050    20A     -8.059022    21A     -8.058951
      22A     -8.058944    23A     -8.057112    24A     -8.056845
      25A     -8.056827    26A     -8.054970    27A     -8.054946
      28A     -8.054629    29A     -8.052560    30A     -8.052538
      31A     -8.049507    32A     -8.047504    33A     -8.047494
      34A     -1.275881    35A     -1.247277    36A     -1.130754
      37A     -1.118898    38A     -1.117270    39A     -1.102996
      40A     -1.050759    41A     -0.868629    42A     -0.792557
      43A     -0.695876    44A     -0.679210    45A     -0.672893
      46A     -0.628762    47A     -0.622168    48A     -0.590600
      49A     -0.569806    50A     -0.523319    51A     -0.517000
      52A     -0.502659    53A     -0.498699    54A     -0.486392
      55A     -0.481029    56A     -0.472169    57A     -0.464970
      58A     -0.454945    59A     -0.452791    60A     -0.449751
      61A     -0.443882

  @DF-RHF Final Energy: -2871.86086061777041

   => Energetics <=

    Nuclear Repulsion Energy =           1106.2072160611314757
    One-Electron Energy =               -6172.2533826657700047
    Two-Electron Energy =                2194.1853059868681157
    Total Energy =                      -2871.8608606177704132
  Basis Set: (AUG-CC-PVTZ AUX)
    Blend: AUG-CC-PVTZ-RI
    Molecular point group: c1

    Geometry (in Angstrom), charge = 0, multiplicity = 1:

       Center              X                  Y                   Z               Mass
    ------------   -----------------  -----------------  -----------------  -----------------
         CL           2.563600164889    -0.437088670815     1.385032862542    34.968852682000
         CL           1.755371164889     1.605614329185    -0.476885137458    34.968852682000
         CL           1.431168164889    -1.184531670815    -1.170522137458    34.968852682000
         CL          -1.760055835111    -1.605584670815    -0.476890137458    34.968852682000
         CL          -2.568290835111     0.437111329185     1.385033862542    34.968852682000
         CL          -1.435860835111     1.184565329185    -1.170519137458    34.968852682000
         C           -0.002343835111     0.000015329185     0.886237862542    12.000000000000
         C            1.393986464889    -0.008556770815     0.240809562542    12.000000000000
         C           -1.350253835111     0.008288329185     0.144980862542    12.000000000000
         H            0.024522164889     0.881955329185     1.530801862542     1.007825032230
         H           -0.029208835111    -0.881924670815     1.530800862542     1.007825032230

  Basis Set: AUG-CC-PVTZ
    Blend: AUG-CC-PVTZ
  Basis Set: (AUG-CC-PVTZ AUX)
    Blend: AUG-CC-PVTZ-JKFIT
	 Reference Energy          =   -2871.8608606177704132 [Eh]
	 Singles Energy            =      -0.0000000000000000 [Eh]
	 Same-Spin Energy          =      -0.5147108388951529 [Eh]
	 Opposite-Spin Energy      =      -1.4594842180674581 [Eh]
	 Correlation Energy        =      -1.9741950569626110 [Eh]
	 Total Energy              =   -2873.8350556747332121 [Eh]

	 ================> DF-SCS-MP2 Energies <==================
	-----------------------------------------------------------
	 SCS Same-Spin Scale       =       0.3333333333333333 [-]
	 SCS Opposite-Spin Scale   =       1.2000000000000000 [-]
	 SCS Same-Spin Energy      =      -0.1715702796317176 [Eh]
	 SCS Opposite-Spin Energy  =      -1.7513810616809498 [Eh]
	 SCS Correlation Energy    =      -1.9229513413126673 [Eh]
	 SCS Total Energy          =   -2873.7838119590828683 [Eh]
	-----------------------------------------------------------

  Dipole Moment: [D]
     X:     0.2562      Y:    -0.0093      Z:     1.3684     Total:     1.3922

*** Psi4 exiting successfully. Buy a developer a beer!
