                               Psi4 1.4a3.dev225

  ==> Input File <==

--------------------------------------------------------------------------
#psi4
#
memory 32 gb

molecule  {
0 1
 Cl        2.5659450    -0.4371030     1.3752130
 Cl        1.7577160     1.6056000    -0.4867050
 Cl        1.4335130    -1.1845460    -1.1803420
 Cl       -1.7577110    -1.6055990    -0.4867100
 Cl       -2.5659460     0.4370970     1.3752140
 Cl       -1.4335160     1.1845510    -1.1803390
  C        0.0000010     0.0000010     0.8764180
  C        1.3917194    -0.0085430     0.1110636
  C       -1.3479090     0.0082740     0.1351610
  H        0.0268670     0.8819410     1.5209820
  H       -0.0268640    -0.8819390     1.5209810
units angstrom
no_reorient  #important for SAPT in psi4, default
symmetry c1  #important for SAPT in psi4, default
}

set PROPERTIES_ORIGIN ["COM"]
properties('MP2/aug-cc-pvtz', properties = ['dipole'])
--------------------------------------------------------------------------

    Molecular point group: c1
  Charge       = 0
  Multiplicity = 1
  Basis Set: AUG-CC-PVTZ
    Blend: AUG-CC-PVTZ
  Basis Set: (AUG-CC-PVTZ AUX)
    Blend: AUG-CC-PVTZ-JKFIT

    Orbital Energies [Eh]
    ---------------------

    Doubly Occupied:

       1A   -104.870238     2A   -104.869762     3A   -104.868802
       4A   -104.868426     5A   -104.867918     6A   -104.866154
       7A    -11.453526     8A    -11.453388     9A    -11.307375
      10A    -10.595286    11A    -10.594494    12A    -10.593333
      13A    -10.593157    14A    -10.592915    15A    -10.590890
      16A     -8.062089    17A     -8.061228    18A     -8.060039
      19A     -8.059918    20A     -8.059874    21A     -8.059851
      22A     -8.059692    23A     -8.059115    24A     -8.059102
      25A     -8.057949    26A     -8.057941    27A     -8.057757
      28A     -8.057736    29A     -8.057629    30A     -8.057520
      31A     -8.057490    32A     -8.055502    33A     -8.055476
      34A     -1.273322    35A     -1.245005    36A     -1.126879
      37A     -1.123718    38A     -1.116320    39A     -1.114746
      40A     -1.041841    41A     -0.860591    42A     -0.795123
      43A     -0.692582    44A     -0.673887    45A     -0.670049
      46A     -0.631681    47A     -0.617698    48A     -0.596364
      49A     -0.572257    50A     -0.524369    51A     -0.515149
      52A     -0.504510    53A     -0.500125    54A     -0.490383
      55A     -0.477755    56A     -0.474615    57A     -0.461600
      58A     -0.458480    59A     -0.455533    60A     -0.450380
      61A     -0.443205

  @DF-RHF Final Energy: -2871.86586807044887

   => Energetics <=

    Nuclear Repulsion Energy =           1106.7013903435042721
    One-Electron Energy =               -6173.2350385902609560
    Two-Electron Energy =                2194.6677801763075877
    Total Energy =                      -2871.8658680704488688
  Basis Set: (AUG-CC-PVTZ AUX)
    Blend: AUG-CC-PVTZ-RI
    Molecular point group: c1

    Geometry (in Angstrom), charge = 0, multiplicity = 1:

       Center              X                  Y                   Z               Mass
    ------------   -----------------  -----------------  -----------------  -----------------
         CL           2.563823475528    -0.437090031431     1.390839747765    34.968852682000
         CL           1.755594475528     1.605612968569    -0.471078252235    34.968852682000
         CL           1.431391475528    -1.184533031431    -1.164715252235    34.968852682000
         CL          -1.759832524472    -1.605586031431    -0.471083252235    34.968852682000
         CL          -2.568067524472     0.437109968569     1.390840747765    34.968852682000
         CL          -1.435637524472     1.184563968569    -1.164712252235    34.968852682000
         C           -0.002120524472     0.000013968569     0.892044747765    12.000000000000
         C            1.389597875528    -0.008530031431     0.126690347765    12.000000000000
         C           -1.350030524472     0.008286968569     0.150787747765    12.000000000000
         H            0.024745475528     0.881953968569     1.536608747765     1.007825032230
         H           -0.028985524472    -0.881926031431     1.536607747765     1.007825032230

  Basis Set: AUG-CC-PVTZ
    Blend: AUG-CC-PVTZ
  Basis Set: (AUG-CC-PVTZ AUX)
    Blend: AUG-CC-PVTZ-JKFIT
	 Reference Energy          =   -2871.8658680704488688 [Eh]
	 Singles Energy            =      -0.0000000000000000 [Eh]
	 Same-Spin Energy          =      -0.5144333848290528 [Eh]
	 Opposite-Spin Energy      =      -1.4587731123438910 [Eh]
	 Correlation Energy        =      -1.9732064971729437 [Eh]
	 Total Energy              =   -2873.8390745676219922 [Eh]

	 ================> DF-SCS-MP2 Energies <==================
	-----------------------------------------------------------
	 SCS Same-Spin Scale       =       0.3333333333333333 [-]
	 SCS Opposite-Spin Scale   =       1.2000000000000000 [-]
	 SCS Same-Spin Energy      =      -0.1714777949430176 [Eh]
	 SCS Opposite-Spin Energy  =      -1.7505277348126691 [Eh]
	 SCS Correlation Energy    =      -1.9220055297556866 [Eh]
	 SCS Total Energy          =   -2873.7878736002044207 [Eh]
	-----------------------------------------------------------

  Dipole Moment: [D]
     X:     0.1051      Y:     0.0036      Z:     0.7977     Total:     0.8046

*** Psi4 exiting successfully. Buy a developer a beer!
