                               Psi4 1.3.2 release

  ==> Input File <==

--------------------------------------------------------------------------
#psi4
#
memory 32 gb

molecule  {
0 1
 Cl        2.5659450    -0.4371030     1.3752130
 Cl        1.7577160     1.6056000    -0.4867050
 Cl        1.4335130    -1.1845460    -1.1803420
 Cl       -1.7577110    -1.6055990    -0.4867100
 Cl       -2.5659460     0.4370970     1.3752140
 Cl       -1.4335160     1.1845510    -1.1803390
  C        0.0000010     0.0000010     0.8764180
  C        1.3729560    -0.0084277     0.1826507
  C       -1.3479090     0.0082740     0.1351610
  H        0.0268670     0.8819410     1.5209820
  H       -0.0268640    -0.8819390     1.5209810
units angstrom
no_reorient  #important for SAPT in psi4, default
symmetry c1  #important for SAPT in psi4, default
}

set PROPERTIES_ORIGIN ["COM"]
properties('MP2/aug-cc-pvtz', properties = ['dipole'])
--------------------------------------------------------------------------

    Molecular point group: c1
  Charge       = 0
  Multiplicity = 1
  Basis Set: AUG-CC-PVTZ
    Blend: AUG-CC-PVTZ
  Basis Set: (AUG-CC-PVTZ AUX)
    Blend: AUG-CC-PVTZ-JKFIT

    Orbital Energies [Eh]
    ---------------------

    Doubly Occupied:

       1A   -104.876527     2A   -104.869694     3A   -104.868368
       4A   -104.866313     5A   -104.865253     6A   -104.864178
       7A    -11.455318     8A    -11.454810     9A    -11.306817
      10A    -10.601641    11A    -10.594207    12A    -10.593074
      13A    -10.591022    14A    -10.589863    15A    -10.588554
      16A     -8.068455    17A     -8.066233    18A     -8.066216
      19A     -8.060914    20A     -8.059835    21A     -8.058819
      22A     -8.058811    23A     -8.057762    24A     -8.057663
      25A     -8.057645    26A     -8.056577    27A     -8.055624
      28A     -8.055600    29A     -8.055245    30A     -8.054475
      31A     -8.054452    32A     -8.053163    33A     -8.053150
      34A     -1.273844    35A     -1.244382    36A     -1.126462
      37A     -1.120515    38A     -1.117172    39A     -1.109468
      40A     -1.050453    41A     -0.867240    42A     -0.793144
      43A     -0.695719    44A     -0.677529    45A     -0.672356
      46A     -0.628281    47A     -0.618996    48A     -0.592519
      49A     -0.569566    50A     -0.522731    51A     -0.517714
      52A     -0.503802    53A     -0.499678    54A     -0.489710
      55A     -0.479010    56A     -0.472932    57A     -0.465132
      58A     -0.455697    59A     -0.455055    60A     -0.449936
      61A     -0.445169

  @DF-RHF Final Energy: -2871.86612680764438

   => Energetics <=

    Nuclear Repulsion Energy =           1106.5129395268791086
    One-Electron Energy =               -6172.8571402963270884
    Two-Electron Energy =                2194.4780739618040570
    Total Energy =                      -2871.8661268076443775
  Basis Set: (AUG-CC-PVTZ AUX)
    Blend: AUG-CC-PVTZ-RI
    Molecular point group: c1

    Geometry (in Angstrom), charge = 0, multiplicity = 1:

       Center              X                  Y                   Z               Mass
    ------------   -----------------  -----------------  -----------------  -----------------
         CL           2.564732009285    -0.437095614318     1.387373462501    34.968852682000
         CL           1.756503009285     1.605607385682    -0.474544537499    34.968852682000
         CL           1.432300009285    -1.184538614318    -1.168181537499    34.968852682000
         CL          -1.758923990715    -1.605591614318    -0.474549537499    34.968852682000
         CL          -2.567158990715     0.437104385682     1.387374462501    34.968852682000
         CL          -1.434728990715     1.184558385682    -1.168178537499    34.968852682000
         C           -0.001211990715     0.000008385682     0.888578462501    12.000000000000
         C            1.371743009285    -0.008420314318     0.194811162501    12.000000000000
         C           -1.349121990715     0.008281385682     0.147321462501    12.000000000000
         H            0.025654009285     0.881948385682     1.533142462501     1.007825032230
         H           -0.028076990715    -0.881931614318     1.533141462501     1.007825032230

  Basis Set: AUG-CC-PVTZ
    Blend: AUG-CC-PVTZ
  Basis Set: (AUG-CC-PVTZ AUX)
    Blend: AUG-CC-PVTZ-JKFIT
	 Reference Energy          =   -2871.8661268076443775 [Eh]
	 Singles Energy            =      -0.0000000000000000 [Eh]
	 Same-Spin Energy          =      -0.5144281231517189 [Eh]
	 Opposite-Spin Energy      =      -1.4590727280714439 [Eh]
	 Correlation Energy        =      -1.9735008512231629 [Eh]
	 Total Energy              =   -2873.8396276588673572 [Eh]

	 ================> DF-SCS-MP2 Energies <==================
	-----------------------------------------------------------
	 SCS Same-Spin Scale       =       0.3333333333333333 [-]
	 SCS Opposite-Spin Scale   =       1.2000000000000000 [-]
	 SCS Same-Spin Energy      =      -0.1714760410505730 [Eh]
	 SCS Opposite-Spin Energy  =      -1.7508872736857326 [Eh]
	 SCS Correlation Energy    =      -1.9223633147363055 [Eh]
	 SCS Total Energy          =   -2873.7884901223806082 [Eh]
	-----------------------------------------------------------

  Dipole Moment: [D]
     X:     0.1283      Y:    -0.0025      Z:     1.1020     Total:     1.1095

*** Psi4 exiting successfully. Buy a developer a beer!
