                               Psi4 1.3.2 release

  ==> Input File <==

--------------------------------------------------------------------------
#psi4
#
memory 32 gb

molecule  {
0 1
 Cl        2.5659450    -0.4371030     1.3752130
 Cl        1.7577160     1.6056000    -0.4867050
 Cl        1.4335130    -1.1845460    -1.1803420
 Cl       -1.7577110    -1.6055990    -0.4867100
 Cl       -2.5659460     0.4370970     1.3752140
 Cl       -1.4335160     1.1845510    -1.1803390
  C        0.0000010     0.0000010     0.8764180
  C        1.2602853    -0.0077361     0.1833438
  C       -1.3479090     0.0082740     0.1351610
  H        0.0268670     0.8819410     1.5209820
  H       -0.0268640    -0.8819390     1.5209810
units angstrom
no_reorient  #important for SAPT in psi4, default
symmetry c1  #important for SAPT in psi4, default
}

set PROPERTIES_ORIGIN ["COM"]
properties('MP2/aug-cc-pvtz', properties = ['dipole'])
--------------------------------------------------------------------------

    Molecular point group: c1
  Charge       = 0
  Multiplicity = 1
  Basis Set: AUG-CC-PVTZ
    Blend: AUG-CC-PVTZ
  Basis Set: (AUG-CC-PVTZ AUX)
    Blend: AUG-CC-PVTZ-JKFIT

    Orbital Energies [Eh]
    ---------------------

    Doubly Occupied:

       1A   -104.871508     2A   -104.871131     3A   -104.869218
       4A   -104.869089     5A   -104.866988     6A   -104.864877
       7A    -11.458113     8A    -11.458003     9A    -11.305278
      10A    -10.596035    11A    -10.595818    12A    -10.593772
      13A    -10.593283    14A    -10.591048    15A    -10.589034
      16A     -8.062744    17A     -8.062576    18A     -8.060649
      19A     -8.060637    20A     -8.060511    21A     -8.060396
      22A     -8.060380    23A     -8.059933    24A     -8.058363
      25A     -8.058344    26A     -8.057880    27A     -8.057876
      28A     -8.057724    29A     -8.055696    30A     -8.055637
      31A     -8.055627    32A     -8.053634    33A     -8.053618
      34A     -1.276928    35A     -1.238590    36A     -1.123866
      37A     -1.121263    38A     -1.110599    39A     -1.107538
      40A     -1.069746    41A     -0.877255    42A     -0.792552
      43A     -0.704851    44A     -0.683728    45A     -0.678064
      46A     -0.625702    47A     -0.613760    48A     -0.587704
      49A     -0.563310    50A     -0.524126    51A     -0.518084
      52A     -0.507155    53A     -0.498482    54A     -0.495919
      55A     -0.475915    56A     -0.472886    57A     -0.469760
      58A     -0.457206    59A     -0.453275    60A     -0.448495
      61A     -0.444944

  @DF-RHF Final Energy: -2871.85958725982437

   => Energetics <=

    Nuclear Repulsion Energy =           1107.0894431419428656
    One-Electron Energy =               -6173.9238129855821171
    Two-Electron Energy =                2194.9747825838148856
    Total Energy =                      -2871.8595872598243659
  Basis Set: (AUG-CC-PVTZ AUX)
    Blend: AUG-CC-PVTZ-RI
    Molecular point group: c1

    Geometry (in Angstrom), charge = 0, multiplicity = 1:

       Center              X                  Y                   Z               Mass
    ------------   -----------------  -----------------  -----------------  -----------------
         CL           2.570187584200    -0.437129101956     1.387339902232    34.968852682000
         CL           1.761958584200     1.605573898044    -0.474578097768    34.968852682000
         CL           1.437755584200    -1.184572101956    -1.168215097768    34.968852682000
         CL          -1.753468415800    -1.605625101956    -0.474583097768    34.968852682000
         CL          -2.561703415800     0.437070898044     1.387340902232    34.968852682000
         CL          -1.429273415800     1.184524898044    -1.168212097768    34.968852682000
         C            0.004243584200    -0.000025101956     0.888544902232    12.000000000000
         C            1.264527884200    -0.007762201956     0.195470702232    12.000000000000
         C           -1.343666415800     0.008247898044     0.147287902232    12.000000000000
         H            0.031109584200     0.881914898044     1.533108902232     1.007825032230
         H           -0.022621415800    -0.881965101956     1.533107902232     1.007825032230

  Basis Set: AUG-CC-PVTZ
    Blend: AUG-CC-PVTZ
  Basis Set: (AUG-CC-PVTZ AUX)
    Blend: AUG-CC-PVTZ-JKFIT
	 Reference Energy          =   -2871.8595872598243659 [Eh]
	 Singles Energy            =      -0.0000000000000000 [Eh]
	 Same-Spin Energy          =      -0.5148776288344722 [Eh]
	 Opposite-Spin Energy      =      -1.4605285228693765 [Eh]
	 Correlation Energy        =      -1.9754061517038486 [Eh]
	 Total Energy              =   -2873.8349934115281030 [Eh]

	 ================> DF-SCS-MP2 Energies <==================
	-----------------------------------------------------------
	 SCS Same-Spin Scale       =       0.3333333333333333 [-]
	 SCS Opposite-Spin Scale   =       1.2000000000000000 [-]
	 SCS Same-Spin Energy      =      -0.1716258762781574 [Eh]
	 SCS Opposite-Spin Energy  =      -1.7526342274432518 [Eh]
	 SCS Correlation Energy    =      -1.9242601037214091 [Eh]
	 SCS Total Energy          =   -2873.7838473635456467 [Eh]
	-----------------------------------------------------------

  Dipole Moment: [D]
     X:    -0.2540      Y:    -0.0096      Z:     0.9533     Total:     0.9866

*** Psi4 exiting successfully. Buy a developer a beer!
