                               Psi4 1.3.2 release

  ==> Input File <==

--------------------------------------------------------------------------
#psi4
#
memory 32 gb

molecule  {
0 1
 Cl        2.5659450    -0.4371030     1.3752130
 Cl        1.7577160     1.6056000    -0.4867050
 Cl        1.4335130    -1.1845460    -1.1803420
 Cl       -1.7577110    -1.6055990    -0.4867100
 Cl       -2.5659460     0.4370970     1.3752140
 Cl       -1.4335160     1.1845510    -1.1803390
  C        0.0000010     0.0000010     0.8764180
  C        1.2973789    -0.1426615     0.0622635
  C       -1.3479090     0.0082740     0.1351610
  H        0.0268670     0.8819410     1.5209820
  H       -0.0268640    -0.8819390     1.5209810
units angstrom
no_reorient  #important for SAPT in psi4, default
symmetry c1  #important for SAPT in psi4, default
}

set PROPERTIES_ORIGIN ["COM"]
properties('MP2/aug-cc-pvtz', properties = ['dipole'])
--------------------------------------------------------------------------

    Molecular point group: c1
  Charge       = 0
  Multiplicity = 1
  Basis Set: AUG-CC-PVTZ
    Blend: AUG-CC-PVTZ
  Basis Set: (AUG-CC-PVTZ AUX)
    Blend: AUG-CC-PVTZ-JKFIT

    Orbital Energies [Eh]
    ---------------------

    Doubly Occupied:

       1A   -104.889410     2A   -104.870081     3A   -104.870035
       4A   -104.869728     5A   -104.862138     6A   -104.850422
       7A    -11.458560     8A    -11.454898     9A    -11.309238
      10A    -10.616556    11A    -10.594813    12A    -10.594619
      13A    -10.594427    14A    -10.586141    15A    -10.574356
      16A     -8.083671    17A     -8.081019    18A     -8.080965
      19A     -8.061548    20A     -8.061328    21A     -8.061184
      22A     -8.059433    23A     -8.059409    24A     -8.059238
      25A     -8.059230    26A     -8.059015    27A     -8.058986
      28A     -8.052737    29A     -8.050764    30A     -8.050756
      31A     -8.040904    32A     -8.038998    33A     -8.038977
      34A     -1.283269    35A     -1.250274    36A     -1.136611
      37A     -1.121983    38A     -1.118609    39A     -1.091844
      40A     -1.050326    41A     -0.865202    42A     -0.798768
      43A     -0.696414    44A     -0.683380    45A     -0.678390
      46A     -0.629371    47A     -0.613450    48A     -0.603542
      49A     -0.571918    50A     -0.531908    51A     -0.513730
      52A     -0.503568    53A     -0.500950    54A     -0.484868
      55A     -0.476706    56A     -0.471587    57A     -0.463716
      58A     -0.456781    59A     -0.455371    60A     -0.449569
      61A     -0.436137

  @DF-RHF Final Energy: -2871.85086448781476

   => Energetics <=

    Nuclear Repulsion Energy =           1107.4231441434105818
    One-Electron Energy =               -6174.5643568932646303
    Two-Electron Energy =                2195.2903482620395152
    Total Energy =                      -2871.8508644878147607
  Basis Set: (AUG-CC-PVTZ AUX)
    Blend: AUG-CC-PVTZ-RI
    Molecular point group: c1

    Geometry (in Angstrom), charge = 0, multiplicity = 1:

       Center              X                  Y                   Z               Mass
    ------------   -----------------  -----------------  -----------------  -----------------
         CL           2.568391492460    -0.430595942690     1.393202674430    34.968852682000
         CL           1.760162492460     1.612107057310    -0.468715325570    34.968852682000
         CL           1.435959492460    -1.178038942690    -1.162352325570    34.968852682000
         CL          -1.755264507540    -1.599091942690    -0.468720325570    34.968852682000
         CL          -2.563499507540     0.443604057310     1.393203674430    34.968852682000
         CL          -1.431069507540     1.191058057310    -1.162349325570    34.968852682000
         C            0.002447492460     0.006508057310     0.894407674430    12.000000000000
         C            1.299825392460    -0.136154442690     0.080253174430    12.000000000000
         C           -1.345462507540     0.014781057310     0.153150674430    12.000000000000
         H            0.029313492460     0.888448057310     1.538971674430     1.007825032230
         H           -0.024417507540    -0.875431942690     1.538970674430     1.007825032230

  Basis Set: AUG-CC-PVTZ
    Blend: AUG-CC-PVTZ
  Basis Set: (AUG-CC-PVTZ AUX)
    Blend: AUG-CC-PVTZ-JKFIT
	 Reference Energy          =   -2871.8508644878147607 [Eh]
	 Singles Energy            =      -0.0000000000000000 [Eh]
	 Same-Spin Energy          =      -0.5155468121501118 [Eh]
	 Opposite-Spin Energy      =      -1.4605738480199628 [Eh]
	 Correlation Energy        =      -1.9761206601700745 [Eh]
	 Total Energy              =   -2873.8269851479849422 [Eh]

	 ================> DF-SCS-MP2 Energies <==================
	-----------------------------------------------------------
	 SCS Same-Spin Scale       =       0.3333333333333333 [-]
	 SCS Opposite-Spin Scale   =       1.2000000000000000 [-]
	 SCS Same-Spin Energy      =      -0.1718489373833706 [Eh]
	 SCS Opposite-Spin Energy  =      -1.7526886176239553 [Eh]
	 SCS Correlation Energy    =      -1.9245375550073258 [Eh]
	 SCS Total Energy          =   -2873.7754020428219519 [Eh]
	-----------------------------------------------------------

  Dipole Moment: [D]
     X:    -0.2665      Y:    -0.7385      Z:     0.3987     Total:     0.8806

*** Psi4 exiting successfully. Buy a developer a beer!
