                               Psi4 1.3.2 release

  ==> Input File <==

--------------------------------------------------------------------------
#psi4
#
memory 32 gb

molecule  {
-2 1
  O       -1.8208210    -1.1386100    -0.2599000
  O        1.8212030    -1.1384070    -0.2594770
  O       -1.8210520     1.1384690    -0.2594170
  O        1.8206700     1.1386730    -0.2598390
  C        0.0519425    -0.0000746     0.7617624
  C       -1.3305530    -0.0000800     0.0222880
  C        1.3305530     0.0000630     0.0222860
  H        0.0000550    -0.8982020     1.4790980
  H       -0.0000540     0.8978890     1.4792400
units angstrom
no_reorient  #important for SAPT in psi4, default
symmetry c1  #important for SAPT in psi4, default
}

set PROPERTIES_ORIGIN ["COM"]
properties('MP2/aug-cc-pvtz', properties = ['dipole'])
--------------------------------------------------------------------------

    Molecular point group: c1
  Charge       = -2
  Multiplicity = 1
  Basis Set: AUG-CC-PVTZ
    Blend: AUG-CC-PVTZ
  Basis Set: (AUG-CC-PVTZ AUX)
    Blend: AUG-CC-PVTZ-JKFIT

    Orbital Energies [Eh]
    ---------------------

    Doubly Occupied:

       1A    -20.166551     2A    -20.166517     3A    -20.161965
       4A    -20.161931     5A    -11.014177     6A    -11.004451
       7A    -10.911411     8A     -1.033989     9A     -1.025798
      10A     -0.931235    11A     -0.927597    12A     -0.662851
      13A     -0.425989    14A     -0.357852    15A     -0.296975
      16A     -0.289020    17A     -0.285341    18A     -0.261260
      19A     -0.206758    20A     -0.199111    21A     -0.191717
      22A     -0.086011    23A     -0.080830    24A     -0.073450
      25A     -0.063207    26A     -0.060256    27A     -0.058992

  @DF-RHF Final Energy:  -414.31294043327256

   => Energetics <=

    Nuclear Repulsion Energy =            272.7838309213783532
    One-Electron Energy =               -1131.9830573497399655
    Two-Electron Energy =                 444.8862859950890538
    Total Energy =                       -414.3129404332725585
  Basis Set: (AUG-CC-PVTZ AUX)
    Blend: AUG-CC-PVTZ-RI
    Molecular point group: c1

    Geometry (in Angstrom), charge = -2, multiplicity = 1:

       Center              X                  Y                   Z               Mass
    ------------   -----------------  -----------------  -----------------  -----------------
         O           -1.826932173315    -1.138615732765    -0.221120547078    15.994914619570
         O            1.815091826685    -1.138412732765    -0.220697547078    15.994914619570
         O           -1.827163173315     1.138463267235    -0.220637547078    15.994914619570
         O            1.814558826685     1.138667267235    -0.221059547078    15.994914619570
         C            0.045831326685    -0.000080332765     0.800541852922    12.000000000000
         C           -1.336664173315    -0.000085732765     0.061067452922    12.000000000000
         C            1.324441826685     0.000057267235     0.061065452922    12.000000000000
         H           -0.006056173315    -0.898207732765     1.517877452922     1.007825032230
         H           -0.006165173315     0.897883267235     1.518019452922     1.007825032230

  Basis Set: AUG-CC-PVTZ
    Blend: AUG-CC-PVTZ
  Basis Set: (AUG-CC-PVTZ AUX)
    Blend: AUG-CC-PVTZ-JKFIT
	 Reference Energy          =    -414.3129404332725585 [Eh]
	 Singles Energy            =      -0.0000000000000000 [Eh]
	 Same-Spin Energy          =      -0.4084616347501815 [Eh]
	 Opposite-Spin Energy      =      -1.1743140356854616 [Eh]
	 Correlation Energy        =      -1.5827756704356430 [Eh]
	 Total Energy              =    -415.8957161037081960 [Eh]

	 ================> DF-SCS-MP2 Energies <==================
	-----------------------------------------------------------
	 SCS Same-Spin Scale       =       0.3333333333333333 [-]
	 SCS Opposite-Spin Scale   =       1.2000000000000000 [-]
	 SCS Same-Spin Energy      =      -0.1361538782500605 [Eh]
	 SCS Opposite-Spin Energy  =      -1.4091768428225537 [Eh]
	 SCS Correlation Energy    =      -1.5453307210726142 [Eh]
	 SCS Total Energy          =    -415.8582711543451751 [Eh]
	-----------------------------------------------------------

  Dipole Moment: [D]
     X:    -0.1295      Y:    -0.0002      Z:     2.5948     Total:     2.5980

*** Psi4 exiting successfully. Buy a developer a beer!
