                               Psi4 1.3.2 release

  ==> Input File <==

--------------------------------------------------------------------------
#psi4
#
memory 32 gb

molecule  {
-2 1
  O       -1.8208210    -1.1386100    -0.2599000
  O        1.8212030    -1.1384070    -0.2594770
  O       -1.8210520     1.1384690    -0.2594170
  O        1.8206700     1.1386730    -0.2598390
  C        0.1298563    -0.0000395     0.6335850
  C       -1.3305530    -0.0000800     0.0222880
  C        1.3305530     0.0000630     0.0222860
  H        0.0000550    -0.8982020     1.4790980
  H       -0.0000540     0.8978890     1.4792400
units angstrom
no_reorient  #important for SAPT in psi4, default
symmetry c1  #important for SAPT in psi4, default
}

set PROPERTIES_ORIGIN ["COM"]
properties('MP2/aug-cc-pvtz', properties = ['dipole'])
--------------------------------------------------------------------------

    Molecular point group: c1
  Charge       = -2
  Multiplicity = 1
  Basis Set: AUG-CC-PVTZ
    Blend: AUG-CC-PVTZ
  Basis Set: (AUG-CC-PVTZ AUX)
    Blend: AUG-CC-PVTZ-JKFIT

    Orbital Energies [Eh]
    ---------------------

    Doubly Occupied:

       1A    -20.170995     2A    -20.170961     3A    -20.159298
       4A    -20.159265     5A    -11.023419     6A    -10.993923
       7A    -10.923260     8A     -1.038906     9A     -1.029681
      10A     -0.935243    11A     -0.927990    12A     -0.678675
      13A     -0.450434    14A     -0.352536    15A     -0.303792
      16A     -0.288494    17A     -0.288398    18A     -0.264358
      19A     -0.212159    20A     -0.189623    21A     -0.162328
      22A     -0.089830    23A     -0.083149    24A     -0.073206
      25A     -0.064146    26A     -0.060363    27A     -0.054535

  @DF-RHF Final Energy:  -414.25996813521141

   => Energetics <=

    Nuclear Repulsion Energy =            274.5158921132183423
    One-Electron Energy =               -1135.2537859090055008
    Two-Electron Energy =                 446.4779256605757496
    Total Energy =                       -414.2599681352114089
  Basis Set: (AUG-CC-PVTZ AUX)
    Blend: AUG-CC-PVTZ-RI
    Molecular point group: c1

    Geometry (in Angstrom), charge = -2, multiplicity = 1:

       Center              X                  Y                   Z               Mass
    ------------   -----------------  -----------------  -----------------  -----------------
         O           -1.836098924349    -1.138619862366    -0.206040159343    15.994914619570
         O            1.805925075651    -1.138416862366    -0.205617159343    15.994914619570
         O           -1.836329924349     1.138459137634    -0.205557159343    15.994914619570
         O            1.805392075651     1.138663137634    -0.205979159343    15.994914619570
         C            0.114578375651    -0.000049362366     0.687444840657    12.000000000000
         C           -1.345830924349    -0.000089862366     0.076147840657    12.000000000000
         C            1.315275075651     0.000053137634     0.076145840657    12.000000000000
         H           -0.015222924349    -0.898211862366     1.532957840657     1.007825032230
         H           -0.015331924349     0.897879137634     1.533099840657     1.007825032230

  Basis Set: AUG-CC-PVTZ
    Blend: AUG-CC-PVTZ
  Basis Set: (AUG-CC-PVTZ AUX)
    Blend: AUG-CC-PVTZ-JKFIT
	 Reference Energy          =    -414.2599681352114089 [Eh]
	 Singles Energy            =      -0.0000000000000000 [Eh]
	 Same-Spin Energy          =      -0.4109097344476984 [Eh]
	 Opposite-Spin Energy      =      -1.1791073221706827 [Eh]
	 Correlation Energy        =      -1.5900170566183811 [Eh]
	 Total Energy              =    -415.8499851918297736 [Eh]

	 ================> DF-SCS-MP2 Energies <==================
	-----------------------------------------------------------
	 SCS Same-Spin Scale       =       0.3333333333333333 [-]
	 SCS Opposite-Spin Scale   =       1.2000000000000000 [-]
	 SCS Same-Spin Energy      =      -0.1369699114825661 [Eh]
	 SCS Opposite-Spin Energy  =      -1.4149287866048192 [Eh]
	 SCS Correlation Energy    =      -1.5518986980873855 [Eh]
	 SCS Total Energy          =    -415.8118668332987795 [Eh]
	-----------------------------------------------------------

  Dipole Moment: [D]
     X:    -0.3106      Y:    -0.0001      Z:     2.2487     Total:     2.2700

*** Psi4 exiting successfully. Buy a developer a beer!
