                               Psi4 1.3.2 release

  ==> Input File <==

--------------------------------------------------------------------------
#psi4
#
memory 32 gb

molecule  {
-2 1
  O       -1.8208210    -1.1386100    -0.2599000
  O        1.8212030    -1.1384070    -0.2594770
  O       -1.8210520     1.1384690    -0.2594170
  O        1.8206700     1.1386730    -0.2598390
  C        0.0000000    -0.0000980     0.8472140
  C       -1.3305530    -0.0000800     0.0222880
  C        1.3305530     0.0000630     0.0222860
  H        0.0000550    -0.8982020     1.4790980
  H       -0.0000540     0.8978890     1.4792400
units angstrom
no_reorient  #important for SAPT in psi4, default
symmetry c1  #important for SAPT in psi4, default
}

set PROPERTIES_ORIGIN ["COM"]
properties('MP2/aug-cc-pvtz', properties = ['dipole'])
--------------------------------------------------------------------------

    Molecular point group: c1
  Charge       = -2
  Multiplicity = 1
  Basis Set: AUG-CC-PVTZ
    Blend: AUG-CC-PVTZ
  Basis Set: (AUG-CC-PVTZ AUX)
    Blend: AUG-CC-PVTZ-JKFIT

    Orbital Energies [Eh]
    ---------------------

    Doubly Occupied:

       1A    -20.164320     2A    -20.164319     3A    -20.164286
       4A    -20.164285     5A    -11.010498     6A    -11.010495
       7A    -10.904646     8A     -1.031853     9A     -1.024391
      10A     -0.929789    11A     -0.927549    12A     -0.657147
      13A     -0.411018    14A     -0.361330    15A     -0.293228
      16A     -0.291245    17A     -0.282931    18A     -0.260156
      19A     -0.211657    20A     -0.204164    21A     -0.204023
      22A     -0.082025    23A     -0.080132    24A     -0.075461
      25A     -0.065334    26A     -0.060307    27A     -0.052545

  @DF-RHF Final Energy:  -414.32242233697400

   => Energetics <=

    Nuclear Repulsion Energy =            271.6580123474400352
    One-Electron Energy =               -1129.7826025754466173
    Two-Electron Energy =                 443.8021678910325818
    Total Energy =                       -414.3224223369740002
  Basis Set: (AUG-CC-PVTZ AUX)
    Blend: AUG-CC-PVTZ-RI
    Molecular point group: c1

    Geometry (in Angstrom), charge = -2, multiplicity = 1:

       Center              X                  Y                   Z               Mass
    ------------   -----------------  -----------------  -----------------  -----------------
         O           -1.820821009881    -1.138612979697    -0.231174138902    15.994914619570
         O            1.821202990119    -1.138409979697    -0.230751138902    15.994914619570
         O           -1.821052009881     1.138466020303    -0.230691138902    15.994914619570
         O            1.820669990119     1.138670020303    -0.231113138902    15.994914619570
         C           -0.000000009881    -0.000100979697     0.875939861098    12.000000000000
         C           -1.330553009881    -0.000082979697     0.051013861098    12.000000000000
         C            1.330552990119     0.000060020303     0.051011861098    12.000000000000
         H            0.000054990119    -0.898204979697     1.507823861098     1.007825032230
         H           -0.000054009881     0.897886020303     1.507965861098     1.007825032230

  Basis Set: AUG-CC-PVTZ
    Blend: AUG-CC-PVTZ
  Basis Set: (AUG-CC-PVTZ AUX)
    Blend: AUG-CC-PVTZ-JKFIT
	 Reference Energy          =    -414.3224223369740002 [Eh]
	 Singles Energy            =      -0.0000000000000000 [Eh]
	 Same-Spin Energy          =      -0.4079395302499872 [Eh]
	 Opposite-Spin Energy      =      -1.1731443493815688 [Eh]
	 Correlation Energy        =      -1.5810838796315561 [Eh]
	 Total Energy              =    -415.9035062166055354 [Eh]

	 ================> DF-SCS-MP2 Energies <==================
	-----------------------------------------------------------
	 SCS Same-Spin Scale       =       0.3333333333333333 [-]
	 SCS Opposite-Spin Scale   =       1.2000000000000000 [-]
	 SCS Same-Spin Energy      =      -0.1359798434166624 [Eh]
	 SCS Opposite-Spin Energy  =      -1.4077732192578825 [Eh]
	 SCS Correlation Energy    =      -1.5437530626745448 [Eh]
	 SCS Total Energy          =    -415.8661753996485686 [Eh]
	-----------------------------------------------------------

  Dipole Moment: [D]
     X:     0.0000      Y:    -0.0002      Z:     2.7474     Total:     2.7474

*** Psi4 exiting successfully. Buy a developer a beer!
