                               Psi4 1.3.2 release

  ==> Input File <==

--------------------------------------------------------------------------
#psi4
#
memory 32 gb

molecule  {
-2 1
  O       -1.8208210    -1.1386100    -0.2599000
  O        1.8212030    -1.1384070    -0.2594770
  O       -1.8210520     1.1384690    -0.2594170
  O        1.8206700     1.1386730    -0.2598390
  C        0.0259713    -0.0000863     0.8044882
  C       -1.3305530    -0.0000800     0.0222880
  C        1.3305530     0.0000630     0.0222860
  H        0.0000550    -0.8982020     1.4790980
  H       -0.0000540     0.8978890     1.4792400
units angstrom
no_reorient  #important for SAPT in psi4, default
symmetry c1  #important for SAPT in psi4, default
}

set PROPERTIES_ORIGIN ["COM"]
properties('MP2/aug-cc-pvtz', properties = ['dipole'])
--------------------------------------------------------------------------

    Molecular point group: c1
  Charge       = -2
  Multiplicity = 1
  Basis Set: AUG-CC-PVTZ
    Blend: AUG-CC-PVTZ
  Basis Set: (AUG-CC-PVTZ AUX)
    Blend: AUG-CC-PVTZ-JKFIT

    Orbital Energies [Eh]
    ---------------------

    Doubly Occupied:

       1A    -20.165372     2A    -20.165338     3A    -20.163081
       4A    -20.163047     5A    -11.012100     6A    -11.007556
       7A    -10.907860     8A     -1.032814     9A     -1.024995
      10A     -0.930322    11A     -0.927627    12A     -0.659618
      13A     -0.418139    14A     -0.359654    15A     -0.294138
      16A     -0.290644    17A     -0.284288    18A     -0.260614
      19A     -0.205361    20A     -0.201899    21A     -0.201697
      22A     -0.084133    23A     -0.080362    24A     -0.074405
      25A     -0.064407    26A     -0.060332    27A     -0.056096

  @DF-RHF Final Energy:  -414.31999140301161

   => Energetics <=

    Nuclear Repulsion Energy =            272.2196605986184750
    One-Electron Energy =               -1130.8875065416391408
    Two-Electron Energy =                 444.3478545400090525
    Total Energy =                       -414.3199914030116133
  Basis Set: (AUG-CC-PVTZ AUX)
    Blend: AUG-CC-PVTZ-RI
    Molecular point group: c1

    Geometry (in Angstrom), charge = -2, multiplicity = 1:

       Center              X                  Y                   Z               Mass
    ------------   -----------------  -----------------  -----------------  -----------------
         O           -1.823876597481    -1.138614356231    -0.226147342990    15.994914619570
         O            1.818147402519    -1.138411356231    -0.225724342990    15.994914619570
         O           -1.824107597481     1.138464643769    -0.225664342990    15.994914619570
         O            1.817614402519     1.138668643769    -0.226086342990    15.994914619570
         C            0.022915702519    -0.000090656231     0.838240857010    12.000000000000
         C           -1.333608597481    -0.000084356231     0.056040657010    12.000000000000
         C            1.327497402519     0.000058643769     0.056038657010    12.000000000000
         H           -0.003000597481    -0.898206356231     1.512850657010     1.007825032230
         H           -0.003109597481     0.897884643769     1.512992657010     1.007825032230

  Basis Set: AUG-CC-PVTZ
    Blend: AUG-CC-PVTZ
  Basis Set: (AUG-CC-PVTZ AUX)
    Blend: AUG-CC-PVTZ-JKFIT
	 Reference Energy          =    -414.3199914030116133 [Eh]
	 Singles Energy            =      -0.0000000000000000 [Eh]
	 Same-Spin Energy          =      -0.4080981285893195 [Eh]
	 Opposite-Spin Energy      =      -1.1735363234229828 [Eh]
	 Correlation Energy        =      -1.5816344520123022 [Eh]
	 Total Energy              =    -415.9016258550238945 [Eh]

	 ================> DF-SCS-MP2 Energies <==================
	-----------------------------------------------------------
	 SCS Same-Spin Scale       =       0.3333333333333333 [-]
	 SCS Opposite-Spin Scale   =       1.2000000000000000 [-]
	 SCS Same-Spin Energy      =      -0.1360327095297731 [Eh]
	 SCS Opposite-Spin Energy  =      -1.4082435881075792 [Eh]
	 SCS Correlation Energy    =      -1.5442762976373523 [Eh]
	 SCS Total Energy          =    -415.8642677006489521 [Eh]
	-----------------------------------------------------------

  Dipole Moment: [D]
     X:    -0.0663      Y:    -0.0002      Z:     2.6790     Total:     2.6798

*** Psi4 exiting successfully. Buy a developer a beer!
