                               Psi4 1.3.2 release

  ==> Input File <==

--------------------------------------------------------------------------
#psi4
#
memory 32 gb

molecule  {
-2 1
  O       -1.8208210    -1.1386100    -0.2599000
  O        1.8212030    -1.1384070    -0.2594770
  O       -1.8210520     1.1384690    -0.2594170
  O        1.8206700     1.1386730    -0.2598390
  C        0.1038850    -0.0000512     0.6763108
  C       -1.3305530    -0.0000800     0.0222880
  C        1.3305530     0.0000630     0.0222860
  H        0.0000550    -0.8982020     1.4790980
  H       -0.0000540     0.8978890     1.4792400
units angstrom
no_reorient  #important for SAPT in psi4, default
symmetry c1  #important for SAPT in psi4, default
}

set PROPERTIES_ORIGIN ["COM"]
properties('MP2/aug-cc-pvtz', properties = ['dipole'])
--------------------------------------------------------------------------

    Molecular point group: c1
  Charge       = -2
  Multiplicity = 1
  Basis Set: AUG-CC-PVTZ
    Blend: AUG-CC-PVTZ
  Basis Set: (AUG-CC-PVTZ AUX)
    Blend: AUG-CC-PVTZ-JKFIT

    Orbital Energies [Eh]
    ---------------------

    Doubly Occupied:

       1A    -20.169346     2A    -20.169312     3A    -20.160070
       4A    -20.160037     5A    -11.019824     6A    -10.997645
       7A    -10.919198     8A     -1.037009     9A     -1.028116
      10A     -0.933724    11A     -0.927731    12A     -0.672252
      13A     -0.442540    14A     -0.354207    15A     -0.301839
      16A     -0.288013    17A     -0.287311    18A     -0.263123
      19A     -0.210145    20A     -0.193076    21A     -0.171612
      22A     -0.088886    23A     -0.082244    24A     -0.072780
      25A     -0.062985    26A     -0.060592    27A     -0.058099

  @DF-RHF Final Energy:  -414.28335608161206

   => Energetics <=

    Nuclear Repulsion Energy =            273.9295440743043741
    One-Electron Energy =               -1134.1623658531500496
    Two-Electron Energy =                 445.9494656972335633
    Total Energy =                       -414.2833560816120553
  Basis Set: (AUG-CC-PVTZ AUX)
    Blend: AUG-CC-PVTZ-RI
    Molecular point group: c1

    Geometry (in Angstrom), charge = -2, multiplicity = 1:

       Center              X                  Y                   Z               Mass
    ------------   -----------------  -----------------  -----------------  -----------------
         O           -1.833043336749    -1.138618485832    -0.211066955255    15.994914619570
         O            1.808980663251    -1.138415485832    -0.210643955255    15.994914619570
         O           -1.833274336749     1.138460514168    -0.210583955255    15.994914619570
         O            1.808447663251     1.138664514168    -0.211005955255    15.994914619570
         C            0.091662663251    -0.000059685832     0.725143844745    12.000000000000
         C           -1.342775336749    -0.000088485832     0.071121044745    12.000000000000
         C            1.318330663251     0.000054514168     0.071119044745    12.000000000000
         H           -0.012167336749    -0.898210485832     1.527931044745     1.007825032230
         H           -0.012276336749     0.897880514168     1.528073044745     1.007825032230

  Basis Set: AUG-CC-PVTZ
    Blend: AUG-CC-PVTZ
  Basis Set: (AUG-CC-PVTZ AUX)
    Blend: AUG-CC-PVTZ-JKFIT
	 Reference Energy          =    -414.2833560816120553 [Eh]
	 Singles Energy            =      -0.0000000000000000 [Eh]
	 Same-Spin Energy          =      -0.4098535037330591 [Eh]
	 Opposite-Spin Energy      =      -1.1770794292735087 [Eh]
	 Correlation Energy        =      -1.5869329330065678 [Eh]
	 Total Energy              =    -415.8702890146186064 [Eh]

	 ================> DF-SCS-MP2 Energies <==================
	-----------------------------------------------------------
	 SCS Same-Spin Scale       =       0.3333333333333333 [-]
	 SCS Opposite-Spin Scale   =       1.2000000000000000 [-]
	 SCS Same-Spin Energy      =      -0.1366178345776864 [Eh]
	 SCS Opposite-Spin Energy  =      -1.4124953151282105 [Eh]
	 SCS Correlation Energy    =      -1.5491131497058968 [Eh]
	 SCS Total Energy          =    -415.8324692313179298 [Eh]
	-----------------------------------------------------------

  Dipole Moment: [D]
     X:    -0.2512      Y:    -0.0001      Z:     2.3799     Total:     2.3932

*** Psi4 exiting successfully. Buy a developer a beer!
