                               Psi4 1.3.2 release

  ==> Input File <==

--------------------------------------------------------------------------
#psi4
#
memory 32 gb

molecule  {
-2 1
  O       -1.8208210    -1.1386100    -0.2599000
  O        1.8212030    -1.1384070    -0.2594770
  O       -1.8210520     1.1384690    -0.2594170
  O        1.8206700     1.1386730    -0.2598390
  C        0.0779138    -0.0000629     0.7190366
  C       -1.3305530    -0.0000800     0.0222880
  C        1.3305530     0.0000630     0.0222860
  H        0.0000550    -0.8982020     1.4790980
  H       -0.0000540     0.8978890     1.4792400
units angstrom
no_reorient  #important for SAPT in psi4, default
symmetry c1  #important for SAPT in psi4, default
}

set PROPERTIES_ORIGIN ["COM"]
properties('MP2/aug-cc-pvtz', properties = ['dipole'])
--------------------------------------------------------------------------

    Molecular point group: c1
  Charge       = -2
  Multiplicity = 1
  Basis Set: AUG-CC-PVTZ
    Blend: AUG-CC-PVTZ
  Basis Set: (AUG-CC-PVTZ AUX)
    Blend: AUG-CC-PVTZ-JKFIT

    Orbital Energies [Eh]
    ---------------------

    Doubly Occupied:

       1A    -20.167870     2A    -20.167836     3A    -20.160961
       4A    -20.160928     5A    -11.016747     6A    -11.001153
       7A    -10.915219     8A     -1.035382     9A     -1.026829
      10A     -0.932385    11A     -0.927611    12A     -0.667013
      13A     -0.434253    14A     -0.356007    15A     -0.299566
      16A     -0.288189    17A     -0.286300    18A     -0.262095
      19A     -0.208349    20A     -0.196242    21A     -0.181506
      22A     -0.087608    23A     -0.081467    24A     -0.072859
      25A     -0.061606    26A     -0.061275    27A     -0.059915

  @DF-RHF Final Energy:  -414.30086652927974

   => Energetics <=

    Nuclear Repulsion Energy =            273.3529828153857579
    One-Electron Energy =               -1133.0733601624353923
    Two-Electron Energy =                 445.4195108177698899
    Total Energy =                       -414.3008665292797446
  Basis Set: (AUG-CC-PVTZ AUX)
    Blend: AUG-CC-PVTZ-RI
    Molecular point group: c1

    Geometry (in Angstrom), charge = -2, multiplicity = 1:

       Center              X                  Y                   Z               Mass
    ------------   -----------------  -----------------  -----------------  -----------------
         O           -1.829987760915    -1.138617109298    -0.216093751167    15.994914619570
         O            1.812036239085    -1.138414109298    -0.215670751167    15.994914619570
         O           -1.830218760915     1.138461890702    -0.215610751167    15.994914619570
         O            1.811503239085     1.138665890702    -0.216032751167    15.994914619570
         C            0.068747039085    -0.000070009298     0.762842848833    12.000000000000
         C           -1.339719760915    -0.000087109298     0.066094248833    12.000000000000
         C            1.321386239085     0.000055890702     0.066092248833    12.000000000000
         H           -0.009111760915    -0.898209109298     1.522904248833     1.007825032230
         H           -0.009220760915     0.897881890702     1.523046248833     1.007825032230

  Basis Set: AUG-CC-PVTZ
    Blend: AUG-CC-PVTZ
  Basis Set: (AUG-CC-PVTZ AUX)
    Blend: AUG-CC-PVTZ-JKFIT
	 Reference Energy          =    -414.3008665292797446 [Eh]
	 Singles Energy            =      -0.0000000000000000 [Eh]
	 Same-Spin Energy          =      -0.4090422734520178 [Eh]
	 Opposite-Spin Energy      =      -1.1754893368310855 [Eh]
	 Correlation Energy        =      -1.5845316102831033 [Eh]
	 Total Energy              =    -415.8853981395628239 [Eh]

	 ================> DF-SCS-MP2 Energies <==================
	-----------------------------------------------------------
	 SCS Same-Spin Scale       =       0.3333333333333333 [-]
	 SCS Opposite-Spin Scale   =       1.2000000000000000 [-]
	 SCS Same-Spin Energy      =      -0.1363474244840059 [Eh]
	 SCS Opposite-Spin Energy  =      -1.4105872041973024 [Eh]
	 SCS Correlation Energy    =      -1.5469346286813084 [Eh]
	 SCS Total Energy          =    -415.8478011579610438 [Eh]
	-----------------------------------------------------------

  Dipole Moment: [D]
     X:    -0.1909      Y:    -0.0001      Z:     2.4951     Total:     2.5024

*** Psi4 exiting successfully. Buy a developer a beer!
