                               Psi4 1.3.2 release

  ==> Input File <==

--------------------------------------------------------------------------
#psi4
#
memory 32 gb

molecule  {
-2 1
  O       -1.8208210    -1.1386100    -0.2599000
  O        1.8212030    -1.1384070    -0.2594770
  O       -1.8210520     1.1384690    -0.2594170
  O        1.8206700     1.1386730    -0.2598390
  C        0.1558275    -0.0000278     0.5908592
  C       -1.3305530    -0.0000800     0.0222880
  C        1.3305530     0.0000630     0.0222860
  H        0.0000550    -0.8982020     1.4790980
  H       -0.0000540     0.8978890     1.4792400
units angstrom
no_reorient  #important for SAPT in psi4, default
symmetry c1  #important for SAPT in psi4, default
}

set PROPERTIES_ORIGIN ["COM"]
properties('MP2/aug-cc-pvtz', properties = ['dipole'])
--------------------------------------------------------------------------

    Molecular point group: c1
  Charge       = -2
  Multiplicity = 1
  Basis Set: AUG-CC-PVTZ
    Blend: AUG-CC-PVTZ
  Basis Set: (AUG-CC-PVTZ AUX)
    Blend: AUG-CC-PVTZ-JKFIT

    Orbital Energies [Eh]
    ---------------------

    Doubly Occupied:

       1A    -20.172835     2A    -20.172800     3A    -20.158664
       4A    -20.158631     5A    -11.027537     6A    -10.989994
       7A    -10.927318     8A     -1.041120     9A     -1.031538
      10A     -0.936947    11A     -0.928417    12A     -0.686308
      13A     -0.457551    14A     -0.351068    15A     -0.305458
      16A     -0.289954    17A     -0.289284    18A     -0.265814
      19A     -0.214405    20A     -0.185922    21A     -0.153894
      22A     -0.090455    23A     -0.084177    24A     -0.074060
      25A     -0.064756    26A     -0.060308    27A     -0.049838

  @DF-RHF Final Energy:  -414.23021940349599

   => Energetics <=

    Nuclear Repulsion Energy =            275.1143281191045276
    One-Electron Energy =               -1136.3509922168966568
    Two-Electron Energy =                 447.0064446942960785
    Total Energy =                       -414.2302194034959939
  Basis Set: (AUG-CC-PVTZ AUX)
    Blend: AUG-CC-PVTZ-RI
    Molecular point group: c1

    Geometry (in Angstrom), charge = -2, multiplicity = 1:

       Center              X                  Y                   Z               Mass
    ------------   -----------------  -----------------  -----------------  -----------------
         O           -1.839154500183    -1.138621238900    -0.201013363431    15.994914619570
         O            1.802869499817    -1.138418238900    -0.200590363431    15.994914619570
         O           -1.839385500183     1.138457761100    -0.200530363431    15.994914619570
         O            1.802336499817     1.138661761100    -0.200952363431    15.994914619570
         C            0.137493999817    -0.000039038900     0.649745836569    12.000000000000
         C           -1.348886500183    -0.000091238900     0.081174636569    12.000000000000
         C            1.312219499817     0.000051761100     0.081172636569    12.000000000000
         H           -0.018278500183    -0.898213238900     1.537984636569     1.007825032230
         H           -0.018387500183     0.897877761100     1.538126636569     1.007825032230

  Basis Set: AUG-CC-PVTZ
    Blend: AUG-CC-PVTZ
  Basis Set: (AUG-CC-PVTZ AUX)
    Blend: AUG-CC-PVTZ-JKFIT
	 Reference Energy          =    -414.2302194034959939 [Eh]
	 Singles Energy            =      -0.0000000000000000 [Eh]
	 Same-Spin Energy          =      -0.4122258165825857 [Eh]
	 Opposite-Spin Energy      =      -1.1815987251973272 [Eh]
	 Correlation Energy        =      -1.5938245417799131 [Eh]
	 Total Energy              =    -415.8240439452758892 [Eh]

	 ================> DF-SCS-MP2 Energies <==================
	-----------------------------------------------------------
	 SCS Same-Spin Scale       =       0.3333333333333333 [-]
	 SCS Opposite-Spin Scale   =       1.2000000000000000 [-]
	 SCS Same-Spin Energy      =      -0.1374086055275286 [Eh]
	 SCS Opposite-Spin Energy  =      -1.4179184702367926 [Eh]
	 SCS Correlation Energy    =      -1.5553270757643212 [Eh]
	 SCS Total Energy          =    -415.7855464792602902 [Eh]
	-----------------------------------------------------------

  Dipole Moment: [D]
     X:    -0.3687      Y:     0.0000      Z:     2.1002     Total:     2.1323

*** Psi4 exiting successfully. Buy a developer a beer!
