                               Psi4 1.3.2 release

  ==> Input File <==

--------------------------------------------------------------------------
#psi4
#
memory 32 gb

molecule  {
0 1
  O       -1.5172650    -0.9302590     0.3397410
  O       -1.1248250     1.1536050    -0.4487800
  C        0.7353610    -0.1875570     0.3681900
  C        1.2675140    -1.2018710    -0.6496400
  C        1.5623690     1.0900120     0.3921910
  C       -0.7724112     0.2904862    -0.0373633
  H        0.7409090    -0.6606070     1.3569650
  H        2.3072410    -1.4506340    -0.4222570
  H        1.2308120    -0.7800070    -1.6583810
  H        0.6786320    -2.1214010    -0.6338280
  H        1.5507090     1.5673140    -0.5898900
  H        2.5972890     0.8640450     0.6623340
  H        1.1628250     1.8055600     1.1144870
  H       -2.4138720    -0.6456040     0.0659830
units angstrom
no_reorient  #important for SAPT in psi4, default
symmetry c1  #important for SAPT in psi4, default
}

set PROPERTIES_ORIGIN ["COM"]
properties('MP2/aug-cc-pvtz', properties = ['dipole'])
--------------------------------------------------------------------------

    Molecular point group: c1
  Charge       = 0
  Multiplicity = 1
  Basis Set: AUG-CC-PVTZ
    Blend: AUG-CC-PVTZ
  Basis Set: (AUG-CC-PVTZ AUX)
    Blend: AUG-CC-PVTZ-JKFIT

    Orbital Energies [Eh]
    ---------------------

    Doubly Occupied:

       1A    -20.586748     2A    -20.575289     3A    -11.365327
       4A    -11.247414     5A    -11.222156     6A    -11.217336
       7A     -1.574787     8A     -1.351471     9A     -1.076445
      10A     -0.937952    11A     -0.853493    12A     -0.764632
      13A     -0.727947    14A     -0.712768    15A     -0.684242
      16A     -0.627545    17A     -0.595603    18A     -0.562298
      19A     -0.550153    20A     -0.539308    21A     -0.508052
      22A     -0.487797    23A     -0.481622    24A     -0.411630

  @DF-RHF Final Energy:  -305.91674610146742

   => Energetics <=

    Nuclear Repulsion Energy =            248.7997626002539278
    One-Electron Energy =                -910.1089898994637224
    Two-Electron Energy =                 355.3924811977424270
    Total Energy =                       -305.9167461014674245
  Basis Set: (AUG-CC-PVTZ AUX)
    Blend: AUG-CC-PVTZ-RI
    Molecular point group: c1

    Geometry (in Angstrom), charge = 0, multiplicity = 1:

       Center              X                  Y                   Z               Mass
    ------------   -----------------  -----------------  -----------------  -----------------
         O           -1.507838760381    -0.953345093454     0.350745153973    15.994914619570
         O           -1.115398760381     1.130518906546    -0.437775846027    15.994914619570
         C            0.744787239619    -0.210643093454     0.379194153973    12.000000000000
         C            1.276940239619    -1.224957093454    -0.638635846027    12.000000000000
         C            1.571795239619     1.066925906546     0.403195153973    12.000000000000
         C           -0.762984960381     0.267400106546    -0.026359146027    12.000000000000
         H            0.750335239619    -0.683693093454     1.367969153973     1.007825032230
         H            2.316667239619    -1.473720093454    -0.411252846027     1.007825032230
         H            1.240238239619    -0.803093093454    -1.647376846027     1.007825032230
         H            0.688058239619    -2.144487093454    -0.622823846027     1.007825032230
         H            1.560135239619     1.544227906546    -0.578885846027     1.007825032230
         H            2.606715239619     0.840958906546     0.673338153973     1.007825032230
         H            1.172251239619     1.782473906546     1.125491153973     1.007825032230
         H           -2.404445760381    -0.668690093454     0.076987153973     1.007825032230

  Basis Set: AUG-CC-PVTZ
    Blend: AUG-CC-PVTZ
  Basis Set: (AUG-CC-PVTZ AUX)
    Blend: AUG-CC-PVTZ-JKFIT
	 Reference Energy          =    -305.9167461014674245 [Eh]
	 Singles Energy            =      -0.0000000000000000 [Eh]
	 Same-Spin Energy          =      -0.2986992179244688 [Eh]
	 Opposite-Spin Energy      =      -0.9752305733905796 [Eh]
	 Correlation Energy        =      -1.2739297913150485 [Eh]
	 Total Energy              =    -307.1906758927824512 [Eh]

	 ================> DF-SCS-MP2 Energies <==================
	-----------------------------------------------------------
	 SCS Same-Spin Scale       =       0.3333333333333333 [-]
	 SCS Opposite-Spin Scale   =       1.2000000000000000 [-]
	 SCS Same-Spin Energy      =      -0.0995664059748229 [Eh]
	 SCS Opposite-Spin Energy  =      -1.1702766880686954 [Eh]
	 SCS Correlation Energy    =      -1.2698430940435184 [Eh]
	 SCS Total Energy          =    -307.1865891955109191 [Eh]
	-----------------------------------------------------------

  Dipole Moment: [D]
     X:     0.4433      Y:     0.0496      Z:    -0.0303     Total:     0.4471

*** Psi4 exiting successfully. Buy a developer a beer!
