                               Psi4 1.3.2 release

  ==> Input File <==

--------------------------------------------------------------------------
#psi4
#
memory 32 gb

molecule  {
0 1
  O       -1.5172650    -0.9302590     0.3397410
  O       -1.1248250     1.1536050    -0.4487800
  C        0.7353610    -0.1875570     0.3681900
  C        1.2675140    -1.2018710    -0.6496400
  C        1.5623690     1.0900120     0.3921910
  C       -0.7411153     0.1447132     0.0269930
  H        0.7409090    -0.6606070     1.3569650
  H        2.3072410    -1.4506340    -0.4222570
  H        1.2308120    -0.7800070    -1.6583810
  H        0.6786320    -2.1214010    -0.6338280
  H        1.5507090     1.5673140    -0.5898900
  H        2.5972890     0.8640450     0.6623340
  H        1.1628250     1.8055600     1.1144870
  H       -2.4006450    -0.6157403     0.0558505
units angstrom
no_reorient  #important for SAPT in psi4, default
symmetry c1  #important for SAPT in psi4, default
}

set PROPERTIES_ORIGIN ["COM"]
properties('MP2/aug-cc-pvtz', properties = ['dipole'])
--------------------------------------------------------------------------

    Molecular point group: c1
  Charge       = 0
  Multiplicity = 1
  Basis Set: AUG-CC-PVTZ
    Blend: AUG-CC-PVTZ
  Basis Set: (AUG-CC-PVTZ AUX)
    Blend: AUG-CC-PVTZ-JKFIT

    Orbital Energies [Eh]
    ---------------------

    Doubly Occupied:

       1A    -20.614673     2A    -20.556601     3A    -11.381407
       4A    -11.250755     5A    -11.228164     6A    -11.218529
       7A     -1.471181     8A     -1.376480     9A     -1.088265
      10A     -0.941239    11A     -0.886044    12A     -0.767886
      13A     -0.711450    14A     -0.694609    15A     -0.646459
      16A     -0.616067    17A     -0.603586    18A     -0.559582
      19A     -0.548259    20A     -0.528672    21A     -0.499871
      22A     -0.489692    23A     -0.487207    24A     -0.441134

  @DF-RHF Final Energy:  -305.99763003478239

   => Energetics <=

    Nuclear Repulsion Energy =            247.9482256632200858
    One-Electron Energy =                -908.6760868936194129
    Two-Electron Energy =                 354.7302311956169092
    Total Energy =                       -305.9976300347823894
  Basis Set: (AUG-CC-PVTZ AUX)
    Blend: AUG-CC-PVTZ-RI
    Molecular point group: c1

    Geometry (in Angstrom), charge = 0, multiplicity = 1:

       Center              X                  Y                   Z               Mass
    ------------   -----------------  -----------------  -----------------  -----------------
         O           -1.512255234792    -0.933820605313     0.342090494275    15.994914619570
         O           -1.119815234792     1.150043394687    -0.446430505725    15.994914619570
         C            0.740370765208    -0.191118605313     0.370539494275    12.000000000000
         C            1.272523765208    -1.205432605313    -0.647290505725    12.000000000000
         C            1.567378765208     1.086450394687     0.394540494275    12.000000000000
         C           -0.736105534792     0.141151594687     0.029342494275    12.000000000000
         H            0.745918765208    -0.664168605313     1.359314494275     1.007825032230
         H            2.312250765208    -1.454195605313    -0.419907505725     1.007825032230
         H            1.235821765208    -0.783568605313    -1.656031505725     1.007825032230
         H            0.683641765208    -2.124962605313    -0.631478505725     1.007825032230
         H            1.555718765208     1.563752394687    -0.587540505725     1.007825032230
         H            2.602298765208     0.860483394687     0.664683494275     1.007825032230
         H            1.167834765208     1.801998394687     1.116836494275     1.007825032230
         H           -2.395635234792    -0.619301905313     0.058199994275     1.007825032230

  Basis Set: AUG-CC-PVTZ
    Blend: AUG-CC-PVTZ
  Basis Set: (AUG-CC-PVTZ AUX)
    Blend: AUG-CC-PVTZ-JKFIT
	 Reference Energy          =    -305.9976300347823894 [Eh]
	 Singles Energy            =      -0.0000000000000000 [Eh]
	 Same-Spin Energy          =      -0.3008398027532715 [Eh]
	 Opposite-Spin Energy      =      -0.9787819322471298 [Eh]
	 Correlation Energy        =      -1.2796217350004013 [Eh]
	 Total Energy              =    -307.2772517697827652 [Eh]

	 ================> DF-SCS-MP2 Energies <==================
	-----------------------------------------------------------
	 SCS Same-Spin Scale       =       0.3333333333333333 [-]
	 SCS Opposite-Spin Scale   =       1.2000000000000000 [-]
	 SCS Same-Spin Energy      =      -0.1002799342510905 [Eh]
	 SCS Opposite-Spin Energy  =      -1.1745383186965557 [Eh]
	 SCS Correlation Energy    =      -1.2748182529476462 [Eh]
	 SCS Total Energy          =    -307.2724482877300147 [Eh]
	-----------------------------------------------------------

  Dipole Moment: [D]
     X:     0.4866      Y:    -1.1850      Z:     0.4474     Total:     1.3569

*** Psi4 exiting successfully. Buy a developer a beer!
