                               Psi4 1.3.2 release

  ==> Input File <==

--------------------------------------------------------------------------
#psi4
#
memory 32 gb

molecule  {
0 1
  O       -1.5172650    -0.9302590     0.3397410
  O       -1.1248250     1.1536050    -0.4487800
  C        0.7353610    -0.1875570     0.3681900
  C        1.2436249    -1.2019884    -0.6616616
  C        1.5623690     1.0900120     0.3921910
  C       -0.7019707     0.1044852     0.0230280
  H        0.7409090    -0.6606070     1.3569650
  H        2.3072410    -1.4506340    -0.4222570
  H        1.2308120    -0.7800070    -1.6583810
  H        0.6786320    -2.1214010    -0.6338280
  H        1.5507090     1.5673140    -0.5898900
  H        2.5972890     0.8640450     0.6623340
  H        1.1628250     1.8055600     1.1144870
  H       -2.4138720    -0.6456040     0.0659830
units angstrom
no_reorient  #important for SAPT in psi4, default
symmetry c1  #important for SAPT in psi4, default
}

set PROPERTIES_ORIGIN ["COM"]
properties('MP2/aug-cc-pvtz', properties = ['dipole'])
--------------------------------------------------------------------------

    Molecular point group: c1
  Charge       = 0
  Multiplicity = 1
  Basis Set: AUG-CC-PVTZ
    Blend: AUG-CC-PVTZ
  Basis Set: (AUG-CC-PVTZ AUX)
    Blend: AUG-CC-PVTZ-JKFIT

    Orbital Energies [Eh]
    ---------------------

    Doubly Occupied:

       1A    -20.616430     2A    -20.548361     3A    -11.385313
       4A    -11.253254     5A    -11.231667     6A    -11.221104
       7A     -1.460260     8A     -1.352327     9A     -1.097559
      10A     -0.944983    11A     -0.896931    12A     -0.775227
      13A     -0.706030    14A     -0.692341    15A     -0.641361
      16A     -0.613669    17A     -0.600003    18A     -0.562052
      19A     -0.545786    20A     -0.523551    21A     -0.501032
      22A     -0.494073    23A     -0.476690    24A     -0.444254

  @DF-RHF Final Energy:  -305.99678805142361

   => Energetics <=

    Nuclear Repulsion Energy =            247.9514175877179412
    One-Electron Energy =                -908.7278926695391874
    Two-Electron Energy =                 354.7796870303976107
    Total Energy =                       -305.9967880514236072
  Basis Set: (AUG-CC-PVTZ AUX)
    Blend: AUG-CC-PVTZ-RI
    Molecular point group: c1

    Geometry (in Angstrom), charge = 0, multiplicity = 1:

       Center              X                  Y                   Z               Mass
    ------------   -----------------  -----------------  -----------------  -----------------
         O           -1.514182898791    -0.927980423646     0.344153213201    15.994914619570
         O           -1.121742898791     1.155883576354    -0.444367786799    15.994914619570
         C            0.738443101209    -0.185278423646     0.372602213201    12.000000000000
         C            1.246707001209    -1.199709823646    -0.657249386799    12.000000000000
         C            1.565451101209     1.092290576354     0.396603213201    12.000000000000
         C           -0.698888598791     0.106763776354     0.027440213201    12.000000000000
         H            0.743991101209    -0.658328423646     1.361377213201     1.007825032230
         H            2.310323101209    -1.448355423646    -0.417844786799     1.007825032230
         H            1.233894101209    -0.777728423646    -1.653968786799     1.007825032230
         H            0.681714101209    -2.119122423646    -0.629415786799     1.007825032230
         H            1.553791101209     1.569592576354    -0.585477786799     1.007825032230
         H            2.600371101209     0.866323576354     0.666746213201     1.007825032230
         H            1.165907101209     1.807838576354     1.118899213201     1.007825032230
         H           -2.410789898791    -0.643325423646     0.070395213201     1.007825032230

  Basis Set: AUG-CC-PVTZ
    Blend: AUG-CC-PVTZ
  Basis Set: (AUG-CC-PVTZ AUX)
    Blend: AUG-CC-PVTZ-JKFIT
	 Reference Energy          =    -305.9967880514236072 [Eh]
	 Singles Energy            =      -0.0000000000000000 [Eh]
	 Same-Spin Energy          =      -0.3018022889039425 [Eh]
	 Opposite-Spin Energy      =      -0.9805427153634221 [Eh]
	 Correlation Energy        =      -1.2823450042673645 [Eh]
	 Total Energy              =    -307.2791330556909770 [Eh]

	 ================> DF-SCS-MP2 Energies <==================
	-----------------------------------------------------------
	 SCS Same-Spin Scale       =       0.3333333333333333 [-]
	 SCS Opposite-Spin Scale   =       1.2000000000000000 [-]
	 SCS Same-Spin Energy      =      -0.1006007629679808 [Eh]
	 SCS Opposite-Spin Energy  =      -1.1766512584361064 [Eh]
	 SCS Correlation Energy    =      -1.2772520214040872 [Eh]
	 SCS Total Energy          =    -307.2740400728276882 [Eh]
	-----------------------------------------------------------

  Dipole Moment: [D]
     X:     0.6550      Y:    -1.4482      Z:     0.5356     Total:     1.6772

*** Psi4 exiting successfully. Buy a developer a beer!
