                               Psi4 1.3.2 release

  ==> Input File <==

--------------------------------------------------------------------------
#psi4
#
memory 32 gb

molecule  {
0 1
  O       -1.5172650    -0.9302590     0.3397410
  O       -1.1248250     1.1536050    -0.4487800
  C        0.7353610    -0.1875570     0.3681900
  C        1.2675140    -1.2018710    -0.6496400
  C        1.5623690     1.0900120     0.3921910
  C       -0.8941976     0.1620547     0.0002699
  H        0.7409090    -0.6606070     1.3569650
  H        2.3072410    -1.4506340    -0.4222570
  H        1.2308120    -0.7800070    -1.6583810
  H        0.6786320    -2.1214010    -0.6338280
  H        1.5507090     1.5673140    -0.5898900
  H        2.5972890     0.8640450     0.6623340
  H        1.1628250     1.8055600     1.1144870
  H       -2.4138720    -0.6456040     0.0659830
units angstrom
no_reorient  #important for SAPT in psi4, default
symmetry c1  #important for SAPT in psi4, default
}

set PROPERTIES_ORIGIN ["COM"]
properties('MP2/aug-cc-pvtz', properties = ['dipole'])
--------------------------------------------------------------------------

    Molecular point group: c1
  Charge       = 0
  Multiplicity = 1
  Basis Set: AUG-CC-PVTZ
    Blend: AUG-CC-PVTZ
  Basis Set: (AUG-CC-PVTZ AUX)
    Blend: AUG-CC-PVTZ-JKFIT

    Orbital Energies [Eh]
    ---------------------

    Doubly Occupied:

       1A    -20.635068     2A    -20.564984     3A    -11.378206
       4A    -11.235830     5A    -11.216332     6A    -11.208698
       7A     -1.515122     8A     -1.432766     9A     -1.061196
      10A     -0.929441    11A     -0.869350    12A     -0.773046
      13A     -0.734837    14A     -0.704263    15A     -0.672547
      16A     -0.627340    17A     -0.596502    18A     -0.556507
      19A     -0.544818    20A     -0.529954    21A     -0.523967
      22A     -0.479647    23A     -0.475232    24A     -0.395730

  @DF-RHF Final Energy:  -305.95711853276669

   => Energetics <=

    Nuclear Repulsion Energy =            247.9613199856519259
    One-Electron Energy =                -908.5141041317422150
    Two-Electron Energy =                 354.5956656133236038
    Total Energy =                       -305.9571185327666853
  Basis Set: (AUG-CC-PVTZ AUX)
    Blend: AUG-CC-PVTZ-RI
    Molecular point group: c1

    Geometry (in Angstrom), charge = 0, multiplicity = 1:

       Center              X                  Y                   Z               Mass
    ------------   -----------------  -----------------  -----------------  -----------------
         O           -1.491241412547    -0.935842135174     0.345616409626    15.994914619570
         O           -1.098801412547     1.148021864826    -0.442904590374    15.994914619570
         C            0.761384587453    -0.193140135174     0.374065409626    12.000000000000
         C            1.293537587453    -1.207454135174    -0.643764590374    12.000000000000
         C            1.588392587453     1.084428864826     0.398066409626    12.000000000000
         C           -0.868174012547     0.156471564826     0.006145309626    12.000000000000
         H            0.766932587453    -0.666190135174     1.362840409626     1.007825032230
         H            2.333264587453    -1.456217135174    -0.416381590374     1.007825032230
         H            1.256835587453    -0.785590135174    -1.652505590374     1.007825032230
         H            0.704655587453    -2.126984135174    -0.627952590374     1.007825032230
         H            1.576732587453     1.561730864826    -0.584014590374     1.007825032230
         H            2.623312587453     0.858461864826     0.668209409626     1.007825032230
         H            1.188848587453     1.799976864826     1.120362409626     1.007825032230
         H           -2.387848412547    -0.651187135174     0.071858409626     1.007825032230

  Basis Set: AUG-CC-PVTZ
    Blend: AUG-CC-PVTZ
  Basis Set: (AUG-CC-PVTZ AUX)
    Blend: AUG-CC-PVTZ-JKFIT
	 Reference Energy          =    -305.9571185327666853 [Eh]
	 Singles Energy            =      -0.0000000000000000 [Eh]
	 Same-Spin Energy          =      -0.3001726824310327 [Eh]
	 Opposite-Spin Energy      =      -0.9771245056119777 [Eh]
	 Correlation Energy        =      -1.2772971880430104 [Eh]
	 Total Energy              =    -307.2344157208096931 [Eh]

	 ================> DF-SCS-MP2 Energies <==================
	-----------------------------------------------------------
	 SCS Same-Spin Scale       =       0.3333333333333333 [-]
	 SCS Opposite-Spin Scale   =       1.2000000000000000 [-]
	 SCS Same-Spin Energy      =      -0.1000575608103442 [Eh]
	 SCS Opposite-Spin Energy  =      -1.1725494067343731 [Eh]
	 SCS Correlation Energy    =      -1.2726069675447174 [Eh]
	 SCS Total Energy          =    -307.2297255003114174 [Eh]
	-----------------------------------------------------------

  Dipole Moment: [D]
     X:    -0.5826      Y:    -1.1202      Z:     0.3554     Total:     1.3117

*** Psi4 exiting successfully. Buy a developer a beer!
