                               Psi4 1.3.2 release

  ==> Input File <==

--------------------------------------------------------------------------
#psi4
#
memory 32 gb

molecule  {
0 1
  O       -1.4597484    -0.9661162     0.3619374
  O       -1.1248250     1.1536050    -0.4487800
  C        0.7123322    -0.2588617     0.3928513
  C        1.2675140    -1.2018710    -0.6496400
  C        1.5623690     1.0900120     0.3921910
  C       -0.7032450     0.1210870     0.0433830
  H        0.7409090    -0.6606070     1.3569650
  H        2.3072410    -1.4506340    -0.4222570
  H        1.2308120    -0.7800070    -1.6583810
  H        0.6786320    -2.1214010    -0.6338280
  H        1.5507090     1.5673140    -0.5898900
  H        2.5972890     0.8640450     0.6623340
  H        1.1628250     1.8055600     1.1144870
  H       -2.4138720    -0.6456040     0.0659830
units angstrom
no_reorient  #important for SAPT in psi4, default
symmetry c1  #important for SAPT in psi4, default
}

set PROPERTIES_ORIGIN ["COM"]
properties('MP2/aug-cc-pvtz', properties = ['dipole'])
--------------------------------------------------------------------------

    Molecular point group: c1
  Charge       = 0
  Multiplicity = 1
  Basis Set: AUG-CC-PVTZ
    Blend: AUG-CC-PVTZ
  Basis Set: (AUG-CC-PVTZ AUX)
    Blend: AUG-CC-PVTZ-JKFIT

    Orbital Energies [Eh]
    ---------------------

    Doubly Occupied:

       1A    -20.621731     2A    -20.556165     3A    -11.386878
       4A    -11.248218     5A    -11.229401     6A    -11.220722
       7A     -1.453546     8A     -1.355971     9A     -1.091793
      10A     -0.937194    11A     -0.892205    12A     -0.766956
      13A     -0.701708    14A     -0.694662    15A     -0.641557
      16A     -0.610949    17A     -0.596665    18A     -0.559104
      19A     -0.547836    20A     -0.523567    21A     -0.506118
      22A     -0.488193    23A     -0.470412    24A     -0.447851

  @DF-RHF Final Energy:  -305.98046395167148

   => Energetics <=

    Nuclear Repulsion Energy =            247.5912491141881731
    One-Electron Energy =                -908.0446250234050467
    Two-Electron Energy =                 354.4729119575454206
    Total Energy =                       -305.9804639516714815
  Basis Set: (AUG-CC-PVTZ AUX)
    Blend: AUG-CC-PVTZ-RI
    Molecular point group: c1

    Geometry (in Angstrom), charge = 0, multiplicity = 1:

       Center              X                  Y                   Z               Mass
    ------------   -----------------  -----------------  -----------------  -----------------
         O           -1.467057892883    -0.949885040401     0.354544324820    15.994914619570
         O           -1.132134492883     1.169836159599    -0.456173075180    15.994914619570
         C            0.705022707117    -0.242630540401     0.385458224820    12.000000000000
         C            1.260204507117    -1.185639840401    -0.657033075180    12.000000000000
         C            1.555059507117     1.106243159599     0.384797924820    12.000000000000
         C           -0.710554492883     0.137318159599     0.035989924820    12.000000000000
         H            0.733599507117    -0.644375840401     1.349571924820     1.007825032230
         H            2.299931507117    -1.434402840401    -0.429650075180     1.007825032230
         H            1.223502507117    -0.763775840401    -1.665774075180     1.007825032230
         H            0.671322507117    -2.105169840401    -0.641221075180     1.007825032230
         H            1.543399507117     1.583545159599    -0.597283075180     1.007825032230
         H            2.589979507117     0.880276159599     0.654940924820     1.007825032230
         H            1.155515507117     1.821791159599     1.107093924820     1.007825032230
         H           -2.421181492883    -0.629372840401     0.058589924820     1.007825032230

  Basis Set: AUG-CC-PVTZ
    Blend: AUG-CC-PVTZ
  Basis Set: (AUG-CC-PVTZ AUX)
    Blend: AUG-CC-PVTZ-JKFIT
	 Reference Energy          =    -305.9804639516714815 [Eh]
	 Singles Energy            =      -0.0000000000000000 [Eh]
	 Same-Spin Energy          =      -0.3031851301673495 [Eh]
	 Opposite-Spin Energy      =      -0.9840452612906110 [Eh]
	 Correlation Energy        =      -1.2872303914579604 [Eh]
	 Total Energy              =    -307.2676943431294490 [Eh]

	 ================> DF-SCS-MP2 Energies <==================
	-----------------------------------------------------------
	 SCS Same-Spin Scale       =       0.3333333333333333 [-]
	 SCS Opposite-Spin Scale   =       1.2000000000000000 [-]
	 SCS Same-Spin Energy      =      -0.1010617100557832 [Eh]
	 SCS Opposite-Spin Energy  =      -1.1808543135487330 [Eh]
	 SCS Correlation Energy    =      -1.2819160236045162 [Eh]
	 SCS Total Energy          =    -307.2623799752760192 [Eh]
	-----------------------------------------------------------

  Dipole Moment: [D]
     X:     0.4916      Y:    -1.3878      Z:     0.5052     Total:     1.5566

*** Psi4 exiting successfully. Buy a developer a beer!
