                               Psi4 1.3.2 release

  ==> Input File <==

--------------------------------------------------------------------------
#psi4
#
memory 32 gb

molecule  {
0 1
  O       -1.5172650    -0.9302590     0.3397410
  O       -1.1248250     1.1536050    -0.4487800
  C        0.7353610    -0.1875570     0.3681900
  C        1.2675140    -1.2018710    -0.6496400
  C        1.5623690     1.0900120     0.3921910
  C       -0.6483132     0.0832554     0.0686386
  H        0.7409090    -0.6606070     1.3569650
  H        2.3072410    -1.4506340    -0.4222570
  H        1.2308120    -0.7800070    -1.6583810
  H        0.6786320    -2.1214010    -0.6338280
  H        1.5507090     1.5673140    -0.5898900
  H        2.5972890     0.8640450     0.6623340
  H        1.1628250     1.8055600     1.1144870
  H       -2.4316596    -0.6910383     0.0818031
units angstrom
no_reorient  #important for SAPT in psi4, default
symmetry c1  #important for SAPT in psi4, default
}

set PROPERTIES_ORIGIN ["COM"]
properties('MP2/aug-cc-pvtz', properties = ['dipole'])
--------------------------------------------------------------------------

    Molecular point group: c1
  Charge       = 0
  Multiplicity = 1
  Basis Set: AUG-CC-PVTZ
    Blend: AUG-CC-PVTZ
  Basis Set: (AUG-CC-PVTZ AUX)
    Blend: AUG-CC-PVTZ-JKFIT

    Orbital Energies [Eh]
    ---------------------

    Doubly Occupied:

       1A    -20.614413     2A    -20.540806     3A    -11.392025
       4A    -11.255236     5A    -11.236935     6A    -11.224314
       7A     -1.446578     8A     -1.319501     9A     -1.111898
      10A     -0.948652    11A     -0.913123    12A     -0.782403
      13A     -0.705852    14A     -0.683974    15A     -0.638282
      16A     -0.611292    17A     -0.587544    18A     -0.562368
      19A     -0.551118    20A     -0.526882    21A     -0.500751
      22A     -0.497290    23A     -0.457580    24A     -0.445620

  @DF-RHF Final Energy:  -305.98353567586645

   => Energetics <=

    Nuclear Repulsion Energy =            247.7057658195518854
    One-Electron Energy =                -908.2697281266097207
    Two-Electron Energy =                 354.5804266311914148
    Total Energy =                       -305.9835356758664489
  Basis Set: (AUG-CC-PVTZ AUX)
    Blend: AUG-CC-PVTZ-RI
    Molecular point group: c1

    Geometry (in Angstrom), charge = 0, multiplicity = 1:

       Center              X                  Y                   Z               Mass
    ------------   -----------------  -----------------  -----------------  -----------------
         O           -1.524547546497    -0.924583145155     0.336117883605    15.994914619570
         O           -1.132107546497     1.159280854845    -0.452403116395    15.994914619570
         C            0.728078453503    -0.181881145155     0.364566883605    12.000000000000
         C            1.260231453503    -1.196195145155    -0.653263116395    12.000000000000
         C            1.555086453503     1.095687854845     0.388567883605    12.000000000000
         C           -0.655595746497     0.088931254845     0.065015483605    12.000000000000
         H            0.733626453503    -0.654931145155     1.353341883605     1.007825032230
         H            2.299958453503    -1.444958145155    -0.425880116395     1.007825032230
         H            1.223529453503    -0.774331145155    -1.662004116395     1.007825032230
         H            0.671349453503    -2.115725145155    -0.637451116395     1.007825032230
         H            1.543426453503     1.572989854845    -0.593513116395     1.007825032230
         H            2.590006453503     0.869720854845     0.658710883605     1.007825032230
         H            1.155542453503     1.811235854845     1.110863883605     1.007825032230
         H           -2.438942146497    -0.685362445155     0.078179983605     1.007825032230

  Basis Set: AUG-CC-PVTZ
    Blend: AUG-CC-PVTZ
  Basis Set: (AUG-CC-PVTZ AUX)
    Blend: AUG-CC-PVTZ-JKFIT
	 Reference Energy          =    -305.9835356758664489 [Eh]
	 Singles Energy            =      -0.0000000000000000 [Eh]
	 Same-Spin Energy          =      -0.3034103730592812 [Eh]
	 Opposite-Spin Energy      =      -0.9836533191398331 [Eh]
	 Correlation Energy        =      -1.2870636921991143 [Eh]
	 Total Energy              =    -307.2705993680655752 [Eh]

	 ================> DF-SCS-MP2 Energies <==================
	-----------------------------------------------------------
	 SCS Same-Spin Scale       =       0.3333333333333333 [-]
	 SCS Opposite-Spin Scale   =       1.2000000000000000 [-]
	 SCS Same-Spin Energy      =      -0.1011367910197604 [Eh]
	 SCS Opposite-Spin Energy  =      -1.1803839829677998 [Eh]
	 SCS Correlation Energy    =      -1.2815207739875603 [Eh]
	 SCS Total Energy          =    -307.2650564498540007 [Eh]
	-----------------------------------------------------------

  Dipole Moment: [D]
     X:     0.9302      Y:    -1.6845      Z:     0.6571     Total:     2.0333

*** Psi4 exiting successfully. Buy a developer a beer!
