                               Psi4 1.3.2 release

  ==> Input File <==

--------------------------------------------------------------------------
#psi4
#
memory 32 gb

molecule  {
0 1
  O       -1.5172650    -0.9302590     0.3397410
  O       -1.1641379     1.1373957    -0.4472715
  C        0.7202668    -0.2346830     0.3860051
  C        1.2675140    -1.2018710    -0.6496400
  C        1.5623690     1.0900120     0.3921910
  C       -0.7032450     0.1210870     0.0433830
  H        0.7409090    -0.6606070     1.3569650
  H        2.3072410    -1.4506340    -0.4222570
  H        1.2308120    -0.7800070    -1.6583810
  H        0.6786320    -2.1214010    -0.6338280
  H        1.5507090     1.5673140    -0.5898900
  H        2.5972890     0.8640450     0.6623340
  H        1.1628250     1.8055600     1.1144870
  H       -2.4138720    -0.6456040     0.0659830
units angstrom
no_reorient  #important for SAPT in psi4, default
symmetry c1  #important for SAPT in psi4, default
}

set PROPERTIES_ORIGIN ["COM"]
properties('MP2/aug-cc-pvtz', properties = ['dipole'])
--------------------------------------------------------------------------

    Molecular point group: c1
  Charge       = 0
  Multiplicity = 1
  Basis Set: AUG-CC-PVTZ
    Blend: AUG-CC-PVTZ
  Basis Set: (AUG-CC-PVTZ AUX)
    Blend: AUG-CC-PVTZ-JKFIT

    Orbital Energies [Eh]
    ---------------------

    Doubly Occupied:

       1A    -20.609851     2A    -20.551194     3A    -11.385805
       4A    -11.253838     5A    -11.232001     6A    -11.223497
       7A     -1.458793     8A     -1.352121     9A     -1.096735
      10A     -0.941575    11A     -0.898512    12A     -0.775488
      13A     -0.705054    14A     -0.693836    15A     -0.640405
      16A     -0.609813    17A     -0.600372    18A     -0.561225
      19A     -0.549255    20A     -0.526075    21A     -0.504540
      22A     -0.489000    23A     -0.475593    24A     -0.448743

  @DF-RHF Final Energy:  -305.99523528864529

   => Energetics <=

    Nuclear Repulsion Energy =            247.5023440614052106
    One-Electron Energy =                -907.8285160079095704
    Two-Electron Energy =                 354.3309366578590698
    Total Energy =                       -305.9952352886452900
  Basis Set: (AUG-CC-PVTZ AUX)
    Blend: AUG-CC-PVTZ-RI
    Molecular point group: c1

    Geometry (in Angstrom), charge = 0, multiplicity = 1:

       Center              X                  Y                   Z               Mass
    ------------   -----------------  -----------------  -----------------  -----------------
         O           -1.508066551042    -0.920892056260     0.337038943530    15.994914619570
         O           -1.154939451042     1.146762643740    -0.449973556470    15.994914619570
         C            0.729465248958    -0.225316056260     0.383303043530    12.000000000000
         C            1.276712448958    -1.192504056260    -0.652342056470    12.000000000000
         C            1.571567448958     1.099378943740     0.389488943530    12.000000000000
         C           -0.694046551042     0.130453943740     0.040680943530    12.000000000000
         H            0.750107448958    -0.651240056260     1.354262943530     1.007825032230
         H            2.316439448958    -1.441267056260    -0.424959056470     1.007825032230
         H            1.240010448958    -0.770640056260    -1.661083056470     1.007825032230
         H            0.687830448958    -2.112034056260    -0.636530056470     1.007825032230
         H            1.559907448958     1.576680943740    -0.592592056470     1.007825032230
         H            2.606487448958     0.873411943740     0.659631943530     1.007825032230
         H            1.172023448958     1.814926943740     1.111784943530     1.007825032230
         H           -2.404673551042    -0.636237056260     0.063280943530     1.007825032230

  Basis Set: AUG-CC-PVTZ
    Blend: AUG-CC-PVTZ
  Basis Set: (AUG-CC-PVTZ AUX)
    Blend: AUG-CC-PVTZ-JKFIT
	 Reference Energy          =    -305.9952352886452900 [Eh]
	 Singles Energy            =      -0.0000000000000000 [Eh]
	 Same-Spin Energy          =      -0.3015180343125380 [Eh]
	 Opposite-Spin Energy      =      -0.9803394106417260 [Eh]
	 Correlation Energy        =      -1.2818574449542641 [Eh]
	 Total Energy              =    -307.2770927335995452 [Eh]

	 ================> DF-SCS-MP2 Energies <==================
	-----------------------------------------------------------
	 SCS Same-Spin Scale       =       0.3333333333333333 [-]
	 SCS Opposite-Spin Scale   =       1.2000000000000000 [-]
	 SCS Same-Spin Energy      =      -0.1005060114375127 [Eh]
	 SCS Opposite-Spin Energy  =      -1.1764072927700713 [Eh]
	 SCS Correlation Energy    =      -1.2769133042075840 [Eh]
	 SCS Total Energy          =    -307.2721485928528864 [Eh]
	-----------------------------------------------------------

  Dipole Moment: [D]
     X:     0.7788      Y:    -1.3724      Z:     0.5322     Total:     1.6653

*** Psi4 exiting successfully. Buy a developer a beer!
