                               Psi4 1.3.2 release

  ==> Input File <==

--------------------------------------------------------------------------
#psi4
#
memory 32 gb

molecule  {
0 1
  O       -1.5172650    -0.9302590     0.3397410
  O       -1.1248250     1.1536050    -0.4487800
  C        0.7353610    -0.1875570     0.3681900
  C        1.2675140    -1.2018710    -0.6496400
  C        1.5623690     1.0900120     0.3921910
  C       -0.7126214     0.1271148     0.0392509
  H        0.7409090    -0.6606070     1.3569650
  H        2.3072410    -1.4506340    -0.4222570
  H        1.2308120    -0.7800070    -1.6583810
  H        0.6786320    -2.1214010    -0.6338280
  H        1.5507090     1.5673140    -0.5898900
  H        2.5972890     0.8640450     0.6623340
  H        1.1628250     1.8055600     1.1144870
  H       -2.4106671    -0.6381041     0.0634181
units angstrom
no_reorient  #important for SAPT in psi4, default
symmetry c1  #important for SAPT in psi4, default
}

set PROPERTIES_ORIGIN ["COM"]
properties('MP2/aug-cc-pvtz', properties = ['dipole'])
--------------------------------------------------------------------------

    Molecular point group: c1
  Charge       = 0
  Multiplicity = 1
  Basis Set: AUG-CC-PVTZ
    Blend: AUG-CC-PVTZ
  Basis Set: (AUG-CC-PVTZ AUX)
    Blend: AUG-CC-PVTZ-JKFIT

    Orbital Energies [Eh]
    ---------------------

    Doubly Occupied:

       1A    -20.614460     2A    -20.551949     3A    -11.384374
       4A    -11.252573     5A    -11.230712     6A    -11.220255
       7A     -1.461415     8A     -1.360767     9A     -1.094884
      10A     -0.943461    11A     -0.894316    12A     -0.771680
      13A     -0.706893    14A     -0.692647    15A     -0.642495
      16A     -0.611624    17A     -0.602701    18A     -0.560495
      19A     -0.548974    20A     -0.526601    21A     -0.498049
      22A     -0.491763    23A     -0.481561    24A     -0.445734

  @DF-RHF Final Energy:  -305.99897701554198

   => Energetics <=

    Nuclear Repulsion Energy =            247.8496828301117603
    One-Electron Energy =                -908.5165545640659275
    Two-Electron Energy =                 354.6678947184121853
    Total Energy =                       -305.9989770155419819
  Basis Set: (AUG-CC-PVTZ AUX)
    Blend: AUG-CC-PVTZ-RI
    Molecular point group: c1

    Geometry (in Angstrom), charge = 0, multiplicity = 1:

       Center              X                  Y                   Z               Mass
    ------------   -----------------  -----------------  -----------------  -----------------
         O           -1.516023742699    -0.931166282214     0.340333340979    15.994914619570
         O           -1.123583742699     1.152697717786    -0.448187659021    15.994914619570
         C            0.736602257301    -0.188464282214     0.368782340979    12.000000000000
         C            1.268755257301    -1.202778282214    -0.649047659021    12.000000000000
         C            1.563610257301     1.089104717786     0.392783340979    12.000000000000
         C           -0.711380142699     0.126207517786     0.039843240979    12.000000000000
         H            0.742150257301    -0.661514282214     1.357557340979     1.007825032230
         H            2.308482257301    -1.451541282214    -0.421664659021     1.007825032230
         H            1.232053257301    -0.780914282214    -1.657788659021     1.007825032230
         H            0.679873257301    -2.122308282214    -0.633235659021     1.007825032230
         H            1.551950257301     1.566406717786    -0.589297659021     1.007825032230
         H            2.598530257301     0.863137717786     0.662926340979     1.007825032230
         H            1.164066257301     1.804652717786     1.115079340979     1.007825032230
         H           -2.409425842699    -0.639011382214     0.064010440979     1.007825032230

  Basis Set: AUG-CC-PVTZ
    Blend: AUG-CC-PVTZ
  Basis Set: (AUG-CC-PVTZ AUX)
    Blend: AUG-CC-PVTZ-JKFIT
	 Reference Energy          =    -305.9989770155419819 [Eh]
	 Singles Energy            =      -0.0000000000000000 [Eh]
	 Same-Spin Energy          =      -0.3014237125132631 [Eh]
	 Opposite-Spin Energy      =      -0.9799148291534162 [Eh]
	 Correlation Energy        =      -1.2813385416666794 [Eh]
	 Total Energy              =    -307.2803155572086666 [Eh]

	 ================> DF-SCS-MP2 Energies <==================
	-----------------------------------------------------------
	 SCS Same-Spin Scale       =       0.3333333333333333 [-]
	 SCS Opposite-Spin Scale   =       1.2000000000000000 [-]
	 SCS Same-Spin Energy      =      -0.1004745708377544 [Eh]
	 SCS Opposite-Spin Energy  =      -1.1758977949840994 [Eh]
	 SCS Correlation Energy    =      -1.2763723658218538 [Eh]
	 SCS Total Energy          =    -307.2753493813638102 [Eh]
	-----------------------------------------------------------

  Dipole Moment: [D]
     X:     0.6275      Y:    -1.3372      Z:     0.5127     Total:     1.5636

*** Psi4 exiting successfully. Buy a developer a beer!
