                               Psi4 1.3.2 release

  ==> Input File <==

--------------------------------------------------------------------------
#psi4
#
memory 32 gb

molecule  {
0 1
  O       -1.5172650    -0.9302590     0.3397410
  O       -1.1248250     1.1536050    -0.4487800
  C        0.7353610    -0.1875570     0.3681900
  C        1.2642432    -1.1837616    -0.6690455
  C        1.5623690     1.0900120     0.3921910
  C       -0.7032450     0.1210870     0.0433830
  H        0.7338843    -0.6444989     1.3645258
  H        2.3072410    -1.4506340    -0.4222570
  H        1.2308120    -0.7800070    -1.6583810
  H        0.6786320    -2.1214010    -0.6338280
  H        1.5507090     1.5673140    -0.5898900
  H        2.5972890     0.8640450     0.6623340
  H        1.1628250     1.8055600     1.1144870
  H       -2.4138720    -0.6456040     0.0659830
units angstrom
no_reorient  #important for SAPT in psi4, default
symmetry c1  #important for SAPT in psi4, default
}

set PROPERTIES_ORIGIN ["COM"]
properties('MP2/aug-cc-pvtz', properties = ['dipole'])
--------------------------------------------------------------------------

    Molecular point group: c1
  Charge       = 0
  Multiplicity = 1
  Basis Set: AUG-CC-PVTZ
    Blend: AUG-CC-PVTZ
  Basis Set: (AUG-CC-PVTZ AUX)
    Blend: AUG-CC-PVTZ-JKFIT

    Orbital Energies [Eh]
    ---------------------

    Doubly Occupied:

       1A    -20.614299     2A    -20.550128     3A    -11.385063
       4A    -11.253195     5A    -11.231810     6A    -11.220489
       7A     -1.458564     8A     -1.354992     9A     -1.097416
      10A     -0.943918    11A     -0.897300    12A     -0.773212
      13A     -0.705792    14A     -0.691828    15A     -0.641130
      16A     -0.610786    17A     -0.600540    18A     -0.561594
      19A     -0.550413    20A     -0.525342    21A     -0.496510
      22A     -0.495196    23A     -0.478037    24A     -0.445691

  @DF-RHF Final Energy:  -305.99744123784370

   => Energetics <=

    Nuclear Repulsion Energy =            247.8975268955398406
    One-Electron Energy =                -908.6234476888536165
    Two-Electron Energy =                 354.7284795554700736
    Total Energy =                       -305.9974412378437023
  Basis Set: (AUG-CC-PVTZ AUX)
    Blend: AUG-CC-PVTZ-RI
    Molecular point group: c1

    Geometry (in Angstrom), charge = 0, multiplicity = 1:

       Center              X                  Y                   Z               Mass
    ------------   -----------------  -----------------  -----------------  -----------------
         O           -1.516738743448    -0.932911319351     0.342298941100    15.994914619570
         O           -1.124298743448     1.150952680649    -0.446222058900    15.994914619570
         C            0.735887256552    -0.190209319351     0.370747941100    12.000000000000
         C            1.264769456552    -1.186413919351    -0.666487558900    12.000000000000
         C            1.562895256552     1.087359680649     0.394748941100    12.000000000000
         C           -0.702718743448     0.118434680649     0.045940941100    12.000000000000
         H            0.734410556552    -0.647151219351     1.367083741100     1.007825032230
         H            2.307767256552    -1.453286319351    -0.419699058900     1.007825032230
         H            1.231338256552    -0.782659319351    -1.655823058900     1.007825032230
         H            0.679158256552    -2.124053319351    -0.631270058900     1.007825032230
         H            1.551235256552     1.564661680649    -0.587332058900     1.007825032230
         H            2.597815256552     0.861392680649     0.664891941100     1.007825032230
         H            1.163351256552     1.802907680649     1.117044941100     1.007825032230
         H           -2.413345743448    -0.648256319351     0.068540941100     1.007825032230

  Basis Set: AUG-CC-PVTZ
    Blend: AUG-CC-PVTZ
  Basis Set: (AUG-CC-PVTZ AUX)
    Blend: AUG-CC-PVTZ-JKFIT
	 Reference Energy          =    -305.9974412378437023 [Eh]
	 Singles Energy            =      -0.0000000000000000 [Eh]
	 Same-Spin Energy          =      -0.3016763309057426 [Eh]
	 Opposite-Spin Energy      =      -0.9804108625392186 [Eh]
	 Correlation Energy        =      -1.2820871934449611 [Eh]
	 Total Energy              =    -307.2795284312886679 [Eh]

	 ================> DF-SCS-MP2 Energies <==================
	-----------------------------------------------------------
	 SCS Same-Spin Scale       =       0.3333333333333333 [-]
	 SCS Opposite-Spin Scale   =       1.2000000000000000 [-]
	 SCS Same-Spin Energy      =      -0.1005587769685809 [Eh]
	 SCS Opposite-Spin Energy  =      -1.1764930350470624 [Eh]
	 SCS Correlation Energy    =      -1.2770518120156433 [Eh]
	 SCS Total Energy          =    -307.2744930498593590 [Eh]
	-----------------------------------------------------------

  Dipole Moment: [D]
     X:     0.6705      Y:    -1.3819      Z:     0.5262     Total:     1.6236

*** Psi4 exiting successfully. Buy a developer a beer!
