                               Psi4 1.3.2 release

  ==> Input File <==

--------------------------------------------------------------------------
#psi4
#
memory 32 gb

molecule  {
0 1
  O       -1.5172650    -0.9302590     0.3397410
  O       -1.1248250     1.1536050    -0.4487800
  C        0.7353610    -0.1875570     0.3681900
  C        1.2675140    -1.2018710    -0.6496400
  C        1.5623690     1.0900120     0.3921910
  C       -0.6939306     0.1149791     0.0475377
  H        0.7409090    -0.6606070     1.3569650
  H        2.3072410    -1.4506340    -0.4222570
  H        1.2308120    -0.7800070    -1.6583810
  H        0.6786320    -2.1214010    -0.6338280
  H        1.5507090     1.5673140    -0.5898900
  H        2.5972890     0.8640450     0.6623340
  H        1.1628250     1.8055600     1.1144870
  H       -2.4170087    -0.6531255     0.0685687
units angstrom
no_reorient  #important for SAPT in psi4, default
symmetry c1  #important for SAPT in psi4, default
}

set PROPERTIES_ORIGIN ["COM"]
properties('MP2/aug-cc-pvtz', properties = ['dipole'])
--------------------------------------------------------------------------

    Molecular point group: c1
  Charge       = 0
  Multiplicity = 1
  Basis Set: AUG-CC-PVTZ
    Blend: AUG-CC-PVTZ
  Basis Set: (AUG-CC-PVTZ AUX)
    Blend: AUG-CC-PVTZ-JKFIT

    Orbital Energies [Eh]
    ---------------------

    Doubly Occupied:

       1A    -20.614402     2A    -20.548841     3A    -11.386509
       4A    -11.253538     5A    -11.232439     6A    -11.221404
       7A     -1.456219     8A     -1.349444     9A     -1.099519
      10A     -0.944936    11A     -0.899784    12A     -0.774499
      13A     -0.705099    14A     -0.690993    15A     -0.640556
      16A     -0.610524    17A     -0.599744    18A     -0.561090
      19A     -0.549579    20A     -0.525877    21A     -0.498649
      22A     -0.493374    23A     -0.475324    24A     -0.447205

  @DF-RHF Final Energy:  -305.99713774928949

   => Energetics <=

    Nuclear Repulsion Energy =            247.7960689365842200
    One-Electron Energy =                -908.4273206713812669
    Two-Electron Energy =                 354.6341139855075539
    Total Energy =                       -305.9971377492894931
  Basis Set: (AUG-CC-PVTZ AUX)
    Blend: AUG-CC-PVTZ-RI
    Molecular point group: c1

    Geometry (in Angstrom), charge = 0, multiplicity = 1:

       Center              X                  Y                   Z               Mass
    ------------   -----------------  -----------------  -----------------  -----------------
         O           -1.518498386250    -0.929340468391     0.339145043232    15.994914619570
         O           -1.126058386250     1.154523531609    -0.449375956768    15.994914619570
         C            0.734127613750    -0.186638468391     0.367594043232    12.000000000000
         C            1.266280613750    -1.200952468391    -0.650235956768    12.000000000000
         C            1.561135613750     1.090930531609     0.391595043232    12.000000000000
         C           -0.695163986250     0.115897631609     0.046941743232    12.000000000000
         H            0.739675613750    -0.659688468391     1.356369043232     1.007825032230
         H            2.306007613750    -1.449715468391    -0.422852956768     1.007825032230
         H            1.229578613750    -0.779088468391    -1.658976956768     1.007825032230
         H            0.677398613750    -2.120482468391    -0.634423956768     1.007825032230
         H            1.549475613750     1.568232531609    -0.590485956768     1.007825032230
         H            2.596055613750     0.864963531609     0.661738043232     1.007825032230
         H            1.161591613750     1.806478531609     1.113891043232     1.007825032230
         H           -2.418242086250    -0.652206968391     0.067972743232     1.007825032230

  Basis Set: AUG-CC-PVTZ
    Blend: AUG-CC-PVTZ
  Basis Set: (AUG-CC-PVTZ AUX)
    Blend: AUG-CC-PVTZ-JKFIT
	 Reference Energy          =    -305.9971377492894931 [Eh]
	 Singles Energy            =      -0.0000000000000000 [Eh]
	 Same-Spin Energy          =      -0.3019053895969766 [Eh]
	 Opposite-Spin Energy      =      -0.9808336231681578 [Eh]
	 Correlation Energy        =      -1.2827390127651344 [Eh]
	 Total Energy              =    -307.2798767620546414 [Eh]

	 ================> DF-SCS-MP2 Energies <==================
	-----------------------------------------------------------
	 SCS Same-Spin Scale       =       0.3333333333333333 [-]
	 SCS Opposite-Spin Scale   =       1.2000000000000000 [-]
	 SCS Same-Spin Energy      =      -0.1006351298656589 [Eh]
	 SCS Opposite-Spin Energy  =      -1.1770003478017894 [Eh]
	 SCS Correlation Energy    =      -1.2776354776674483 [Eh]
	 SCS Total Energy          =    -307.2747732269569383 [Eh]
	-----------------------------------------------------------

  Dipole Moment: [D]
     X:     0.7171      Y:    -1.4375      Z:     0.5551     Total:     1.6996

*** Psi4 exiting successfully. Buy a developer a beer!
