                               Psi4 1.3.2 release

  ==> Input File <==

--------------------------------------------------------------------------
#psi4
#
memory 32 gb

molecule  {
0 1
  O       -1.5172650    -0.9302590     0.3397410
  O       -1.0849985     1.1685563    -0.4496889
  C        0.7487025    -0.1400550     0.3499792
  C        1.2675140    -1.2018710    -0.6496400
  C        1.5623690     1.0900120     0.3921910
  C       -0.7032450     0.1210870     0.0433830
  H        0.7409090    -0.6606070     1.3569650
  H        2.3072410    -1.4506340    -0.4222570
  H        1.2308120    -0.7800070    -1.6583810
  H        0.6786320    -2.1214010    -0.6338280
  H        1.5507090     1.5673140    -0.5898900
  H        2.5972890     0.8640450     0.6623340
  H        1.1628250     1.8055600     1.1144870
  H       -2.4138720    -0.6456040     0.0659830
units angstrom
no_reorient  #important for SAPT in psi4, default
symmetry c1  #important for SAPT in psi4, default
}

set PROPERTIES_ORIGIN ["COM"]
properties('MP2/aug-cc-pvtz', properties = ['dipole'])
--------------------------------------------------------------------------

    Molecular point group: c1
  Charge       = 0
  Multiplicity = 1
  Basis Set: AUG-CC-PVTZ
    Blend: AUG-CC-PVTZ
  Basis Set: (AUG-CC-PVTZ AUX)
    Blend: AUG-CC-PVTZ-JKFIT

    Orbital Energies [Eh]
    ---------------------

    Doubly Occupied:

       1A    -20.618982     2A    -20.549597     3A    -11.385418
       4A    -11.252991     5A    -11.231449     6A    -11.218011
       7A     -1.458947     8A     -1.358318     9A     -1.098456
      10A     -0.947023    11A     -0.895668    12A     -0.771700
      13A     -0.706581    14A     -0.689948    15A     -0.642895
      16A     -0.612329    17A     -0.602557    18A     -0.561878
      19A     -0.549316    20A     -0.529015    21A     -0.504997
      22A     -0.485124    23A     -0.474020    24A     -0.443028

  @DF-RHF Final Energy:  -305.99407933158875

   => Energetics <=

    Nuclear Repulsion Energy =            248.1851517119924608
    One-Electron Energy =                -909.1819633866213053
    Two-Electron Energy =                 355.0027323430400656
    Total Energy =                       -305.9940793315887504
  Basis Set: (AUG-CC-PVTZ AUX)
    Blend: AUG-CC-PVTZ-RI
    Molecular point group: c1

    Geometry (in Angstrom), charge = 0, multiplicity = 1:

       Center              X                  Y                   Z               Mass
    ------------   -----------------  -----------------  -----------------  -----------------
         O           -1.526317681138    -0.939448581569     0.342387767058    15.994914619570
         O           -1.094051181138     1.159366718431    -0.447042132942    15.994914619570
         C            0.739649818862    -0.149244581569     0.352625967058    12.000000000000
         C            1.258461318862    -1.211060581569    -0.646993232942    12.000000000000
         C            1.553316318862     1.080822418431     0.394837767058    12.000000000000
         C           -0.712297681138     0.111897418431     0.046029767058    12.000000000000
         H            0.731856318862    -0.669796581569     1.359611767058     1.007825032230
         H            2.298188318862    -1.459823581569    -0.419610232942     1.007825032230
         H            1.221759318862    -0.789196581569    -1.655734232942     1.007825032230
         H            0.669579318862    -2.130590581569    -0.631181232942     1.007825032230
         H            1.541656318862     1.558124418431    -0.587243232942     1.007825032230
         H            2.588236318862     0.854855418431     0.664980767058     1.007825032230
         H            1.153772318862     1.796370418431     1.117133767058     1.007825032230
         H           -2.422924681138    -0.654793581569     0.068629767058     1.007825032230

  Basis Set: AUG-CC-PVTZ
    Blend: AUG-CC-PVTZ
  Basis Set: (AUG-CC-PVTZ AUX)
    Blend: AUG-CC-PVTZ-JKFIT
	 Reference Energy          =    -305.9940793315887504 [Eh]
	 Singles Energy            =      -0.0000000000000000 [Eh]
	 Same-Spin Energy          =      -0.3020438630637034 [Eh]
	 Opposite-Spin Energy      =      -0.9808978861611349 [Eh]
	 Correlation Energy        =      -1.2829417492248383 [Eh]
	 Total Energy              =    -307.2770210808135971 [Eh]

	 ================> DF-SCS-MP2 Energies <==================
	-----------------------------------------------------------
	 SCS Same-Spin Scale       =       0.3333333333333333 [-]
	 SCS Opposite-Spin Scale   =       1.2000000000000000 [-]
	 SCS Same-Spin Energy      =      -0.1006812876879011 [Eh]
	 SCS Opposite-Spin Energy  =      -1.1770774633933618 [Eh]
	 SCS Correlation Energy    =      -1.2777587510812629 [Eh]
	 SCS Total Energy          =    -307.2718380826700013 [Eh]
	-----------------------------------------------------------

  Dipole Moment: [D]
     X:     0.5657      Y:    -1.3955      Z:     0.5292     Total:     1.5961

*** Psi4 exiting successfully. Buy a developer a beer!
