                               Psi4 1.3.2 release

  ==> Input File <==

--------------------------------------------------------------------------
#psi4
#
memory 32 gb

molecule  {
0 1
  O       -1.5172650    -0.9302590     0.3397410
  O       -1.1248250     1.1536050    -0.4487800
  C        0.7353610    -0.1875570     0.3681900
  C        1.2572194    -1.1466381    -0.7069030
  C        1.5623690     1.0900120     0.3921910
  C       -0.7032450     0.1210870     0.0433830
  H        0.7198385    -0.6118700     1.3787347
  H        2.3072410    -1.4506340    -0.4222570
  H        1.2308120    -0.7800070    -1.6583810
  H        0.6786320    -2.1214010    -0.6338280
  H        1.5507090     1.5673140    -0.5898900
  H        2.5972890     0.8640450     0.6623340
  H        1.1628250     1.8055600     1.1144870
  H       -2.4138720    -0.6456040     0.0659830
units angstrom
no_reorient  #important for SAPT in psi4, default
symmetry c1  #important for SAPT in psi4, default
}

set PROPERTIES_ORIGIN ["COM"]
properties('MP2/aug-cc-pvtz', properties = ['dipole'])
--------------------------------------------------------------------------

    Molecular point group: c1
  Charge       = 0
  Multiplicity = 1
  Basis Set: AUG-CC-PVTZ
    Blend: AUG-CC-PVTZ
  Basis Set: (AUG-CC-PVTZ AUX)
    Blend: AUG-CC-PVTZ-JKFIT

    Orbital Energies [Eh]
    ---------------------

    Doubly Occupied:

       1A    -20.614100     2A    -20.549635     3A    -11.384417
       4A    -11.253798     5A    -11.233092     6A    -11.219918
       7A     -1.458352     8A     -1.354679     9A     -1.098243
      10A     -0.943951    11A     -0.898213    12A     -0.773925
      13A     -0.705770    14A     -0.691961    15A     -0.640929
      16A     -0.612015    17A     -0.598928    18A     -0.570800
      19A     -0.545850    20A     -0.523157    21A     -0.502429
      22A     -0.489311    23A     -0.475925    24A     -0.443582

  @DF-RHF Final Energy:  -305.98987929545848

   => Energetics <=

    Nuclear Repulsion Energy =            248.0615016797858061
    One-Electron Energy =                -908.9367998656754253
    Two-Electron Energy =                 354.8854188904311400
    Total Energy =                       -305.9898792954584792
  Basis Set: (AUG-CC-PVTZ AUX)
    Blend: AUG-CC-PVTZ-RI
    Molecular point group: c1

    Geometry (in Angstrom), charge = 0, multiplicity = 1:

       Center              X                  Y                   Z               Mass
    ------------   -----------------  -----------------  -----------------  -----------------
         O           -1.515620758295    -0.938344062376     0.347295622252    15.994914619570
         O           -1.123180758295     1.145519937624    -0.441225377748    15.994914619570
         C            0.737005241705    -0.195642062376     0.375744622252    12.000000000000
         C            1.258863641705    -1.154723162376    -0.699348377748    12.000000000000
         C            1.564013241705     1.081926937624     0.399745622252    12.000000000000
         C           -0.701600758295     0.113001937624     0.050937622252    12.000000000000
         H            0.721482741705    -0.619955062376     1.386289322252     1.007825032230
         H            2.308885241705    -1.458719062376    -0.414702377748     1.007825032230
         H            1.232456241705    -0.788092062376    -1.650826377748     1.007825032230
         H            0.680276241705    -2.129486062376    -0.626273377748     1.007825032230
         H            1.552353241705     1.559228937624    -0.582335377748     1.007825032230
         H            2.598933241705     0.855959937624     0.669888622252     1.007825032230
         H            1.164469241705     1.797474937624     1.122041622252     1.007825032230
         H           -2.412227758295    -0.653689062376     0.073537622252     1.007825032230

  Basis Set: AUG-CC-PVTZ
    Blend: AUG-CC-PVTZ
  Basis Set: (AUG-CC-PVTZ AUX)
    Blend: AUG-CC-PVTZ-JKFIT
	 Reference Energy          =    -305.9898792954584792 [Eh]
	 Singles Energy            =      -0.0000000000000000 [Eh]
	 Same-Spin Energy          =      -0.3018243163591299 [Eh]
	 Opposite-Spin Energy      =      -0.9807958493358017 [Eh]
	 Correlation Energy        =      -1.2826201656949316 [Eh]
	 Total Energy              =    -307.2724994611534157 [Eh]

	 ================> DF-SCS-MP2 Energies <==================
	-----------------------------------------------------------
	 SCS Same-Spin Scale       =       0.3333333333333333 [-]
	 SCS Opposite-Spin Scale   =       1.2000000000000000 [-]
	 SCS Same-Spin Energy      =      -0.1006081054530433 [Eh]
	 SCS Opposite-Spin Energy  =      -1.1769550192029619 [Eh]
	 SCS Correlation Energy    =      -1.2775631246560051 [Eh]
	 SCS Total Energy          =    -307.2674424201144916 [Eh]
	-----------------------------------------------------------

  Dipole Moment: [D]
     X:     0.6647      Y:    -1.3686      Z:     0.5195     Total:     1.6077

*** Psi4 exiting successfully. Buy a developer a beer!
