                               Psi4 1.3.2 release

  ==> Input File <==

--------------------------------------------------------------------------
#psi4
#
memory 32 gb

molecule  {
0 1
  O       -1.5172650    -0.9302590     0.3397410
  O       -1.1049729     1.1612391    -0.4493095
  C        0.7422519    -0.1638494     0.3591327
  C        1.2675140    -1.2018710    -0.6496400
  C        1.5623690     1.0900120     0.3921910
  C       -0.7032450     0.1210870     0.0433830
  H        0.7409090    -0.6606070     1.3569650
  H        2.3072410    -1.4506340    -0.4222570
  H        1.2308120    -0.7800070    -1.6583810
  H        0.6786320    -2.1214010    -0.6338280
  H        1.5507090     1.5673140    -0.5898900
  H        2.5972890     0.8640450     0.6623340
  H        1.1628250     1.8055600     1.1144870
  H       -2.4138720    -0.6456040     0.0659830
units angstrom
no_reorient  #important for SAPT in psi4, default
symmetry c1  #important for SAPT in psi4, default
}

set PROPERTIES_ORIGIN ["COM"]
properties('MP2/aug-cc-pvtz', properties = ['dipole'])
--------------------------------------------------------------------------

    Molecular point group: c1
  Charge       = 0
  Multiplicity = 1
  Basis Set: AUG-CC-PVTZ
    Blend: AUG-CC-PVTZ
  Basis Set: (AUG-CC-PVTZ AUX)
    Blend: AUG-CC-PVTZ-JKFIT

    Orbital Energies [Eh]
    ---------------------

    Doubly Occupied:

       1A    -20.616707     2A    -20.549998     3A    -11.385378
       4A    -11.252953     5A    -11.231474     6A    -11.219433
       7A     -1.458782     8A     -1.356733     9A     -1.097699
      10A     -0.945596    11A     -0.896353    12A     -0.772257
      13A     -0.706211    14A     -0.690914    15A     -0.642123
      16A     -0.611554    17A     -0.602008    18A     -0.561115
      19A     -0.549289    20A     -0.527171    21A     -0.502210
      22A     -0.487433    23A     -0.477915    24A     -0.445028

  @DF-RHF Final Energy:  -305.99714367664956

   => Energetics <=

    Nuclear Repulsion Energy =            247.9976898505584870
    One-Electron Energy =                -908.8170012367918389
    Two-Electron Energy =                 354.8221677095838231
    Total Energy =                       -305.9971436766495572
  Basis Set: (AUG-CC-PVTZ AUX)
    Blend: AUG-CC-PVTZ-RI
    Molecular point group: c1

    Geometry (in Angstrom), charge = 0, multiplicity = 1:

       Center              X                  Y                   Z               Mass
    ------------   -----------------  -----------------  -----------------  -----------------
         O           -1.521810184583    -0.934876637427     0.341071386905    15.994914619570
         O           -1.109518084583     1.156621462573    -0.447979113095    15.994914619570
         C            0.737706715417    -0.168467037427     0.360463086905    12.000000000000
         C            1.262968815417    -1.206488637427    -0.648309613095    12.000000000000
         C            1.557823815417     1.085394362573     0.393521386905    12.000000000000
         C           -0.707790184583     0.116469362573     0.044713386905    12.000000000000
         H            0.736363815417    -0.665224637427     1.358295386905     1.007825032230
         H            2.302695815417    -1.455251637427    -0.420926613095     1.007825032230
         H            1.226266815417    -0.784624637427    -1.657050613095     1.007825032230
         H            0.674086815417    -2.126018637427    -0.632497613095     1.007825032230
         H            1.546163815417     1.562696362573    -0.588559613095     1.007825032230
         H            2.592743815417     0.859427362573     0.663664386905     1.007825032230
         H            1.158279815417     1.800942362573     1.115817386905     1.007825032230
         H           -2.418417184583    -0.650221637427     0.067313386905     1.007825032230

  Basis Set: AUG-CC-PVTZ
    Blend: AUG-CC-PVTZ
  Basis Set: (AUG-CC-PVTZ AUX)
    Blend: AUG-CC-PVTZ-JKFIT
	 Reference Energy          =    -305.9971436766495572 [Eh]
	 Singles Energy            =      -0.0000000000000000 [Eh]
	 Same-Spin Energy          =      -0.3018178659845542 [Eh]
	 Opposite-Spin Energy      =      -0.9805628583602763 [Eh]
	 Correlation Energy        =      -1.2823807243448306 [Eh]
	 Total Energy              =    -307.2795244009943758 [Eh]

	 ================> DF-SCS-MP2 Energies <==================
	-----------------------------------------------------------
	 SCS Same-Spin Scale       =       0.3333333333333333 [-]
	 SCS Opposite-Spin Scale   =       1.2000000000000000 [-]
	 SCS Same-Spin Energy      =      -0.1006059553281847 [Eh]
	 SCS Opposite-Spin Energy  =      -1.1766754300323317 [Eh]
	 SCS Correlation Energy    =      -1.2772813853605163 [Eh]
	 SCS Total Energy          =    -307.2744250620100956 [Eh]
	-----------------------------------------------------------

  Dipole Moment: [D]
     X:     0.6192      Y:    -1.3925      Z:     0.5325     Total:     1.6143

*** Psi4 exiting successfully. Buy a developer a beer!
