                               Psi4 1.3.2 release

  ==> Input File <==

--------------------------------------------------------------------------
#psi4
#
memory 32 gb

molecule  {
0 1
  O       -1.5172650    -0.9302590     0.3397410
  O       -1.1248250     1.1536050    -0.4487800
  C        0.7353610    -0.1875570     0.3681900
  C        1.2675140    -1.2018710    -0.6496400
  C        1.5623690     1.0900120     0.3921910
  C       -0.7032450     0.1210870     0.0433830
  H        0.7409090    -0.6606070     1.3569650
  H        2.3072410    -1.4506340    -0.4222570
  H        1.2308120    -0.7800070    -1.6583810
  H        0.6786320    -2.1214010    -0.6338280
  H        1.5507090     1.5673140    -0.5898900
  H        2.5972890     0.8640450     0.6623340
  H        1.1628250     1.8055600     1.1144870
  H       -2.5969030    -0.5874953     0.0100988
units angstrom
no_reorient  #important for SAPT in psi4, default
symmetry c1  #important for SAPT in psi4, default
}

set PROPERTIES_ORIGIN ["COM"]
properties('MP2/aug-cc-pvtz', properties = ['dipole'])
--------------------------------------------------------------------------

    Molecular point group: c1
  Charge       = 0
  Multiplicity = 1
  Basis Set: AUG-CC-PVTZ
    Blend: AUG-CC-PVTZ
  Basis Set: (AUG-CC-PVTZ AUX)
    Blend: AUG-CC-PVTZ-JKFIT

    Orbital Energies [Eh]
    ---------------------

    Doubly Occupied:

       1A    -20.623027     2A    -20.546864     3A    -11.381880
       4A    -11.252423     5A    -11.230394     6A    -11.220032
       7A     -1.438409     8A     -1.338051     9A     -1.094174
      10A     -0.942918    11A     -0.882535    12A     -0.754530
      13A     -0.690558    14A     -0.679576    15A     -0.637288
      16A     -0.607325    17A     -0.587898    18A     -0.558249
      19A     -0.547416    20A     -0.518831    21A     -0.496601
      22A     -0.490656    23A     -0.474221    24A     -0.443606

  @DF-RHF Final Energy:  -305.96335773932896

   => Energetics <=

    Nuclear Repulsion Energy =            246.7750484636605961
    One-Electron Energy =                -906.6018901429091557
    Two-Electron Energy =                 353.8634839399196039
    Total Energy =                       -305.9633577393289556
  Basis Set: (AUG-CC-PVTZ AUX)
    Blend: AUG-CC-PVTZ-RI
    Molecular point group: c1

    Geometry (in Angstrom), charge = 0, multiplicity = 1:

       Center              X                  Y                   Z               Mass
    ------------   -----------------  -----------------  -----------------  -----------------
         O           -1.515169974071    -0.930924053980     0.340380487040    15.994914619570
         O           -1.122729974071     1.152939946020    -0.448140512960    15.994914619570
         C            0.737456025929    -0.188222053980     0.368829487040    12.000000000000
         C            1.269609025929    -1.202536053980    -0.649000512960    12.000000000000
         C            1.564464025929     1.089346946020     0.392830487040    12.000000000000
         C           -0.701149974071     0.120421946020     0.044022487040    12.000000000000
         H            0.743004025929    -0.661272053980     1.357604487040     1.007825032230
         H            2.309336025929    -1.451299053980    -0.421617512960     1.007825032230
         H            1.232907025929    -0.780672053980    -1.657741512960     1.007825032230
         H            0.680727025929    -2.122066053980    -0.633188512960     1.007825032230
         H            1.552804025929     1.566648946020    -0.589250512960     1.007825032230
         H            2.599384025929     0.863379946020     0.662973487040     1.007825032230
         H            1.164920025929     1.804894946020     1.115126487040     1.007825032230
         H           -2.594807974071    -0.588160353980     0.010738287040     1.007825032230

  Basis Set: AUG-CC-PVTZ
    Blend: AUG-CC-PVTZ
  Basis Set: (AUG-CC-PVTZ AUX)
    Blend: AUG-CC-PVTZ-JKFIT
	 Reference Energy          =    -305.9633577393289556 [Eh]
	 Singles Energy            =      -0.0000000000000000 [Eh]
	 Same-Spin Energy          =      -0.3042085836187884 [Eh]
	 Opposite-Spin Energy      =      -0.9869359262983053 [Eh]
	 Correlation Energy        =      -1.2911445099170937 [Eh]
	 Total Energy              =    -307.2545022492460589 [Eh]

	 ================> DF-SCS-MP2 Energies <==================
	-----------------------------------------------------------
	 SCS Same-Spin Scale       =       0.3333333333333333 [-]
	 SCS Opposite-Spin Scale   =       1.2000000000000000 [-]
	 SCS Same-Spin Energy      =      -0.1014028612062628 [Eh]
	 SCS Opposite-Spin Energy  =      -1.1843231115579662 [Eh]
	 SCS Correlation Energy    =      -1.2857259727642290 [Eh]
	 SCS Total Energy          =    -307.2490837120931815 [Eh]
	-----------------------------------------------------------

  Dipole Moment: [D]
     X:     0.4617      Y:    -1.3569      Z:     0.4867     Total:     1.5136

*** Psi4 exiting successfully. Buy a developer a beer!
