                               Psi4 1.3.2 release

  ==> Input File <==

--------------------------------------------------------------------------
#psi4
#
memory 32 gb

molecule  {
0 1
  O       -1.5172650    -0.9302590     0.3397410
  O       -1.1248250     1.1536050    -0.4487800
  C        0.7353610    -0.1875570     0.3681900
  C        1.2675140    -1.2018710    -0.6496400
  C        1.5623690     1.0900120     0.3921910
  C       -0.7032450     0.1210870     0.0433830
  H        0.7409090    -0.6606070     1.3569650
  H        2.3072410    -1.4506340    -0.4222570
  H        1.2308120    -0.7800070    -1.6583810
  H        0.6786320    -2.1214010    -0.6338280
  H        1.5507090     1.5673140    -0.5898900
  H        2.5972890     0.8640450     0.6623340
  H        1.1628250     1.8055600     1.1144870
  H       -2.3223565    -0.6746584     0.0939251
units angstrom
no_reorient  #important for SAPT in psi4, default
symmetry c1  #important for SAPT in psi4, default
}

set PROPERTIES_ORIGIN ["COM"]
properties('MP2/aug-cc-pvtz', properties = ['dipole'])
--------------------------------------------------------------------------

    Molecular point group: c1
  Charge       = 0
  Multiplicity = 1
  Basis Set: AUG-CC-PVTZ
    Blend: AUG-CC-PVTZ
  Basis Set: (AUG-CC-PVTZ AUX)
    Blend: AUG-CC-PVTZ-JKFIT

    Orbital Energies [Eh]
    ---------------------

    Doubly Occupied:

       1A    -20.607007     2A    -20.552408     3A    -11.387366
       4A    -11.253577     5A    -11.232218     6A    -11.221320
       7A     -1.476804     8A     -1.365253     9A     -1.099204
      10A     -0.945104    11A     -0.908806    12A     -0.785896
      13A     -0.715124    14A     -0.694248    15A     -0.643968
      16A     -0.612833    17A     -0.606726    18A     -0.562162
      19A     -0.550230    20A     -0.528753    21A     -0.499291
      22A     -0.493699    23A     -0.480802    24A     -0.448245

  @DF-RHF Final Energy:  -305.99379158141790

   => Energetics <=

    Nuclear Repulsion Energy =            248.4735810766424322
    One-Electron Energy =                -909.5926604099964834
    Two-Electron Energy =                 355.1252877519361846
    Total Energy =                       -305.9937915814178950
  Basis Set: (AUG-CC-PVTZ AUX)
    Blend: AUG-CC-PVTZ-RI
    Molecular point group: c1

    Geometry (in Angstrom), charge = 0, multiplicity = 1:

       Center              X                  Y                   Z               Mass
    ------------   -----------------  -----------------  -----------------  -----------------
         O           -1.518312361360    -0.929926407980     0.339421033179    15.994914619570
         O           -1.125872361360     1.153937592020    -0.449099966821    15.994914619570
         C            0.734313638640    -0.187224407980     0.367870033179    12.000000000000
         C            1.266466638640    -1.201538407980    -0.649959966821    12.000000000000
         C            1.561321638640     1.090344592020     0.391871033179    12.000000000000
         C           -0.704292361360     0.121419592020     0.043063033179    12.000000000000
         H            0.739861638640    -0.660274407980     1.356645033179     1.007825032230
         H            2.306193638640    -1.450301407980    -0.422576966821     1.007825032230
         H            1.229764638640    -0.779674407980    -1.658700966821     1.007825032230
         H            0.677584638640    -2.121068407980    -0.634147966821     1.007825032230
         H            1.549661638640     1.567646592020    -0.590209966821     1.007825032230
         H            2.596241638640     0.864377592020     0.662014033179     1.007825032230
         H            1.161777638640     1.805892592020     1.114167033179     1.007825032230
         H           -2.323403861360    -0.674325807980     0.093605133179     1.007825032230

  Basis Set: AUG-CC-PVTZ
    Blend: AUG-CC-PVTZ
  Basis Set: (AUG-CC-PVTZ AUX)
    Blend: AUG-CC-PVTZ-JKFIT
	 Reference Energy          =    -305.9937915814178950 [Eh]
	 Singles Energy            =      -0.0000000000000000 [Eh]
	 Same-Spin Energy          =      -0.3003779688839230 [Eh]
	 Opposite-Spin Energy      =      -0.9775084919346773 [Eh]
	 Correlation Energy        =      -1.2778864608186002 [Eh]
	 Total Energy              =    -307.2716780422364877 [Eh]

	 ================> DF-SCS-MP2 Energies <==================
	-----------------------------------------------------------
	 SCS Same-Spin Scale       =       0.3333333333333333 [-]
	 SCS Opposite-Spin Scale   =       1.2000000000000000 [-]
	 SCS Same-Spin Energy      =      -0.1001259896279743 [Eh]
	 SCS Opposite-Spin Energy  =      -1.1730101903216126 [Eh]
	 SCS Correlation Energy    =      -1.2731361799495868 [Eh]
	 SCS Total Energy          =    -307.2669277613674694 [Eh]
	-----------------------------------------------------------

  Dipole Moment: [D]
     X:     0.7927      Y:    -1.3898      Z:     0.5540     Total:     1.6931

*** Psi4 exiting successfully. Buy a developer a beer!
