                               Psi4 1.4a3.dev225

  ==> Input File <==

--------------------------------------------------------------------------
#psi4
#
memory 32 gb

molecule  {
0 1
  O       -1.6617030     0.7577680    -0.4073030
  O       -1.1227790    -1.2129920     0.5672640
  C        0.6404470     0.1718450    -0.3932210
  C        1.0928880     1.3538930     0.4742710
  C        1.5672530    -1.0291100    -0.2532030
  C       -0.7744920    -0.2041220    -0.0232100
  H        0.6138910     0.5049790    -1.4379290
  H        2.1115010     1.6456430     0.2036890
  H        1.0897110     1.0707860     1.5315760
  H        0.4361920     2.2162520     0.3415930
  H        1.5885520    -1.3743970     0.7830710
  H        2.5826960    -0.7552260    -0.5531760
  H        1.2333040    -1.8624340    -0.8759310
  H       -2.5544207     0.4346925    -0.0941358
units angstrom
no_reorient  #important for SAPT in psi4, default
symmetry c1  #important for SAPT in psi4, default
}

set PROPERTIES_ORIGIN ["COM"]
properties('MP2/aug-cc-pvtz', properties = ['dipole'])
--------------------------------------------------------------------------

    Molecular point group: c1
  Charge       = 0
  Multiplicity = 1
  Basis Set: AUG-CC-PVTZ
    Blend: AUG-CC-PVTZ
  Basis Set: (AUG-CC-PVTZ AUX)
    Blend: AUG-CC-PVTZ-JKFIT

    Orbital Energies [Eh]
    ---------------------

    Doubly Occupied:

       1A    -20.615410     2A    -20.550391     3A    -11.385694
       4A    -11.253960     5A    -11.231654     6A    -11.220963
       7A     -1.455042     8A     -1.352817     9A     -1.095794
      10A     -0.943532    11A     -0.894707    12A     -0.770941
      13A     -0.703067    14A     -0.690938    15A     -0.640819
      16A     -0.609609    17A     -0.599739    18A     -0.560429
      19A     -0.548795    20A     -0.525523    21A     -0.497671
      22A     -0.492422    23A     -0.478230    24A     -0.446299

  @DF-RHF Final Energy:  -305.99654466218647

   => Energetics <=

    Nuclear Repulsion Energy =            247.3933844506361766
    One-Electron Energy =                -907.6509616346488656
    Two-Electron Energy =                 354.2610325218262233
    Total Energy =                       -305.9965446621864658
  Basis Set: (AUG-CC-PVTZ AUX)
    Blend: AUG-CC-PVTZ-RI
    Molecular point group: c1

    Geometry (in Angstrom), charge = 0, multiplicity = 1:

       Center              X                  Y                   Z               Mass
    ------------   -----------------  -----------------  -----------------  -----------------
         O           -1.581439403636     0.779075624907    -0.408576917255    15.994914619570
         O           -1.042515403636    -1.191684375093     0.565990082745    15.994914619570
         C            0.720710596364     0.193152624907    -0.394494917255    12.000000000000
         C            1.173151596364     1.375200624907     0.472997082745    12.000000000000
         C            1.647516596364    -1.007802375093    -0.254476917255    12.000000000000
         C           -0.694228403636    -0.182814375093    -0.024483917255    12.000000000000
         H            0.694154596364     0.526286624907    -1.439202917255     1.007825032230
         H            2.191764596364     1.666950624907     0.202415082745     1.007825032230
         H            1.169974596364     1.092093624907     1.530302082745     1.007825032230
         H            0.516455596364     2.237559624907     0.340319082745     1.007825032230
         H            1.668815596364    -1.353089375093     0.781797082745     1.007825032230
         H            2.662959596364    -0.733918375093    -0.554449917255     1.007825032230
         H            1.313567596364    -1.841126375093    -0.877204917255     1.007825032230
         H           -2.474157103636     0.456000124907    -0.095409717255     1.007825032230

  Basis Set: AUG-CC-PVTZ
    Blend: AUG-CC-PVTZ
  Basis Set: (AUG-CC-PVTZ AUX)
    Blend: AUG-CC-PVTZ-JKFIT
	 Reference Energy          =    -305.9965446621864658 [Eh]
	 Singles Energy            =      -0.0000000000000000 [Eh]
	 Same-Spin Energy          =      -0.3018625920866799 [Eh]
	 Opposite-Spin Energy      =      -0.9810188888091678 [Eh]
	 Correlation Energy        =      -1.2828814808958477 [Eh]
	 Total Energy              =    -307.2794261430823326 [Eh]

	 ================> DF-SCS-MP2 Energies <==================
	-----------------------------------------------------------
	 SCS Same-Spin Scale       =       0.3333333333333333 [-]
	 SCS Opposite-Spin Scale   =       1.2000000000000000 [-]
	 SCS Same-Spin Energy      =      -0.1006208640288933 [Eh]
	 SCS Opposite-Spin Energy  =      -1.1772226665710013 [Eh]
	 SCS Correlation Energy    =      -1.2778435305998945 [Eh]
	 SCS Total Energy          =    -307.2743881927863754 [Eh]
	-----------------------------------------------------------

  Dipole Moment: [D]
     X:     0.5505      Y:     1.3730      Z:    -0.6717     Total:     1.6246

*** Psi4 exiting successfully. Buy a developer a beer!
