                               Psi4 1.3.2 release

  ==> Input File <==

--------------------------------------------------------------------------
#psi4
#
memory 32 gb

molecule  {
0 1
  O       -1.5172650    -0.9302590     0.3397410
  O       -1.0649077     1.1755544    -0.4499181
  C        0.7547108    -0.1161811     0.3407323
  C        1.2675140    -1.2018710    -0.6496400
  C        1.5623690     1.0900120     0.3921910
  C       -0.7032450     0.1210870     0.0433830
  H        0.7409090    -0.6606070     1.3569650
  H        2.3072410    -1.4506340    -0.4222570
  H        1.2308120    -0.7800070    -1.6583810
  H        0.6786320    -2.1214010    -0.6338280
  H        1.5507090     1.5673140    -0.5898900
  H        2.5972890     0.8640450     0.6623340
  H        1.1628250     1.8055600     1.1144870
  H       -2.4138720    -0.6456040     0.0659830
units angstrom
no_reorient  #important for SAPT in psi4, default
symmetry c1  #important for SAPT in psi4, default
}

set PROPERTIES_ORIGIN ["COM"]
properties('MP2/aug-cc-pvtz', properties = ['dipole'])
--------------------------------------------------------------------------

    Molecular point group: c1
  Charge       = 0
  Multiplicity = 1
  Basis Set: AUG-CC-PVTZ
    Blend: AUG-CC-PVTZ
  Basis Set: (AUG-CC-PVTZ AUX)
    Blend: AUG-CC-PVTZ-JKFIT

    Orbital Energies [Eh]
    ---------------------

    Doubly Occupied:

       1A    -20.621249     2A    -20.549198     3A    -11.385551
       4A    -11.253194     5A    -11.231488     6A    -11.216576
       7A     -1.459192     8A     -1.359938     9A     -1.099481
      10A     -0.948458    11A     -0.895003    12A     -0.771374
      13A     -0.706958    14A     -0.689019    15A     -0.643768
      16A     -0.613197    17A     -0.603136    18A     -0.563179
      19A     -0.549351    20A     -0.531560    21A     -0.506531
      22A     -0.484962    23A     -0.467754    24A     -0.440567

  @DF-RHF Final Energy:  -305.98908496839397

   => Energetics <=

    Nuclear Repulsion Energy =            248.3843727509844257
    One-Electron Energy =                -909.5655492965985331
    Two-Electron Energy =                 355.1920915772201397
    Total Energy =                       -305.9890849683939678
  Basis Set: (AUG-CC-PVTZ AUX)
    Blend: AUG-CC-PVTZ-RI
    Molecular point group: c1

    Geometry (in Angstrom), charge = 0, multiplicity = 1:

       Center              X                  Y                   Z               Mass
    ------------   -----------------  -----------------  -----------------  -----------------
         O           -1.530786044281    -0.943973394959     0.343689591835    15.994914619570
         O           -1.078428744281     1.161840005041    -0.445969508165    15.994914619570
         C            0.741189755719    -0.129895494959     0.344680891835    12.000000000000
         C            1.253992955719    -1.215585394959    -0.645691408165    12.000000000000
         C            1.548847955719     1.076297605041     0.396139591835    12.000000000000
         C           -0.716766044281     0.107372605041     0.047331591835    12.000000000000
         H            0.727387955719    -0.674321394959     1.360913591835     1.007825032230
         H            2.293719955719    -1.464348394959    -0.418308408165     1.007825032230
         H            1.217290955719    -0.793721394959    -1.654432408165     1.007825032230
         H            0.665110955719    -2.135115394959    -0.629879408165     1.007825032230
         H            1.537187955719     1.553599605041    -0.585941408165     1.007825032230
         H            2.583767955719     0.850330605041     0.666282591835     1.007825032230
         H            1.149303955719     1.791845605041     1.118435591835     1.007825032230
         H           -2.427393044281    -0.659318394959     0.069931591835     1.007825032230

  Basis Set: AUG-CC-PVTZ
    Blend: AUG-CC-PVTZ
  Basis Set: (AUG-CC-PVTZ AUX)
    Blend: AUG-CC-PVTZ-JKFIT
	 Reference Energy          =    -305.9890849683939678 [Eh]
	 Singles Energy            =      -0.0000000000000000 [Eh]
	 Same-Spin Energy          =      -0.3023345842765915 [Eh]
	 Opposite-Spin Energy      =      -0.9813630013462726 [Eh]
	 Correlation Energy        =      -1.2836975856228641 [Eh]
	 Total Energy              =    -307.2727825540168283 [Eh]

	 ================> DF-SCS-MP2 Energies <==================
	-----------------------------------------------------------
	 SCS Same-Spin Scale       =       0.3333333333333333 [-]
	 SCS Opposite-Spin Scale   =       1.2000000000000000 [-]
	 SCS Same-Spin Energy      =      -0.1007781947588638 [Eh]
	 SCS Opposite-Spin Energy  =      -1.1776356016155272 [Eh]
	 SCS Correlation Energy    =      -1.2784137963743909 [Eh]
	 SCS Total Energy          =    -307.2674987647683338 [Eh]
	-----------------------------------------------------------

  Dipole Moment: [D]
     X:     0.5121      Y:    -1.3961      Z:     0.5241     Total:     1.5767

*** Psi4 exiting successfully. Buy a developer a beer!
