                               Psi4 1.3.2 release

  ==> Input File <==

--------------------------------------------------------------------------
#psi4
#
memory 32 gb

molecule  {
0 1
  O       -1.4984171    -0.9423168     0.3477820
  O       -1.1050575     1.1614733    -0.4487455
  C        0.7353610    -0.1875570     0.3681900
  C        1.2675140    -1.2018710    -0.6496400
  C        1.5623690     1.0900120     0.3921910
  C       -0.7032450     0.1210870     0.0433830
  H        0.7409090    -0.6606070     1.3569650
  H        2.3072410    -1.4506340    -0.4222570
  H        1.2308120    -0.7800070    -1.6583810
  H        0.6786320    -2.1214010    -0.6338280
  H        1.5507090     1.5673140    -0.5898900
  H        2.5972890     0.8640450     0.6623340
  H        1.1628250     1.8055600     1.1144870
  H       -2.4138720    -0.6456040     0.0659830
units angstrom
no_reorient  #important for SAPT in psi4, default
symmetry c1  #important for SAPT in psi4, default
}

set PROPERTIES_ORIGIN ["COM"]
properties('MP2/aug-cc-pvtz', properties = ['dipole'])
--------------------------------------------------------------------------

    Molecular point group: c1
  Charge       = 0
  Multiplicity = 1
  Basis Set: AUG-CC-PVTZ
    Blend: AUG-CC-PVTZ
  Basis Set: (AUG-CC-PVTZ AUX)
    Blend: AUG-CC-PVTZ-JKFIT

    Orbital Energies [Eh]
    ---------------------

    Doubly Occupied:

       1A    -20.619183     2A    -20.551847     3A    -11.385628
       4A    -11.250894     5A    -11.230586     6A    -11.219506
       7A     -1.456699     8A     -1.356759     9A     -1.095448
      10A     -0.943069    11A     -0.894486    12A     -0.768945
      13A     -0.705510    14A     -0.691832    15A     -0.641819
      16A     -0.610835    17A     -0.601159    18A     -0.559729
      19A     -0.548705    20A     -0.525135    21A     -0.497511
      22A     -0.491302    23A     -0.479762    24A     -0.446021

  @DF-RHF Final Energy:  -305.99544132096321

   => Energetics <=

    Nuclear Repulsion Energy =            247.8964933847486236
    One-Electron Energy =                -908.6391272351509087
    Two-Electron Energy =                 354.7471925294390758
    Total Energy =                       -305.9954413209632094
  Basis Set: (AUG-CC-PVTZ AUX)
    Blend: AUG-CC-PVTZ-RI
    Molecular point group: c1

    Geometry (in Angstrom), charge = 0, multiplicity = 1:

       Center              X                  Y                   Z               Mass
    ------------   -----------------  -----------------  -----------------  -----------------
         O           -1.505431570016    -0.941555725275     0.346314919059    15.994914619570
         O           -1.112071970016     1.162234374725    -0.450212580941    15.994914619570
         C            0.728346529984    -0.186795925275     0.366722919059    12.000000000000
         C            1.260499529984    -1.201109925275    -0.651107080941    12.000000000000
         C            1.555354529984     1.090773074725     0.390723919059    12.000000000000
         C           -0.710259470016     0.121848074725     0.041915919059    12.000000000000
         H            0.733894529984    -0.659845925275     1.355497919059     1.007825032230
         H            2.300226529984    -1.449872925275    -0.423724080941     1.007825032230
         H            1.223797529984    -0.779245925275    -1.659848080941     1.007825032230
         H            0.671617529984    -2.120639925275    -0.635295080941     1.007825032230
         H            1.543694529984     1.568075074725    -0.591357080941     1.007825032230
         H            2.590274529984     0.864806074725     0.660866919059     1.007825032230
         H            1.155810529984     1.806321074725     1.113019919059     1.007825032230
         H           -2.420886470016    -0.644842925275     0.064515919059     1.007825032230

  Basis Set: AUG-CC-PVTZ
    Blend: AUG-CC-PVTZ
  Basis Set: (AUG-CC-PVTZ AUX)
    Blend: AUG-CC-PVTZ-JKFIT
	 Reference Energy          =    -305.9954413209632094 [Eh]
	 Singles Energy            =      -0.0000000000000000 [Eh]
	 Same-Spin Energy          =      -0.3021882930503195 [Eh]
	 Opposite-Spin Energy      =      -0.9814960365639364 [Eh]
	 Correlation Energy        =      -1.2836843296142559 [Eh]
	 Total Energy              =    -307.2791256505774413 [Eh]

	 ================> DF-SCS-MP2 Energies <==================
	-----------------------------------------------------------
	 SCS Same-Spin Scale       =       0.3333333333333333 [-]
	 SCS Opposite-Spin Scale   =       1.2000000000000000 [-]
	 SCS Same-Spin Energy      =      -0.1007294310167731 [Eh]
	 SCS Opposite-Spin Energy  =      -1.1777952438767236 [Eh]
	 SCS Correlation Energy    =      -1.2785246748934969 [Eh]
	 SCS Total Energy          =    -307.2739659958567131 [Eh]
	-----------------------------------------------------------

  Dipole Moment: [D]
     X:     0.5569      Y:    -1.3941      Z:     0.5236     Total:     1.5899

*** Psi4 exiting successfully. Buy a developer a beer!
