                               Psi4 1.3.2 release

  ==> Input File <==

--------------------------------------------------------------------------
#psi4
#
memory 32 gb

molecule  {
0 1
  O       -1.4600005    -0.9654570     0.3635834
  O       -1.0651615     1.1762570    -0.4482269
  C        0.7353610    -0.1875570     0.3681900
  C        1.2675140    -1.2018710    -0.6496400
  C        1.5623690     1.0900120     0.3921910
  C       -0.7032450     0.1210870     0.0433830
  H        0.7409090    -0.6606070     1.3569650
  H        2.3072410    -1.4506340    -0.4222570
  H        1.2308120    -0.7800070    -1.6583810
  H        0.6786320    -2.1214010    -0.6338280
  H        1.5507090     1.5673140    -0.5898900
  H        2.5972890     0.8640450     0.6623340
  H        1.1628250     1.8055600     1.1144870
  H       -2.4138720    -0.6456040     0.0659830
units angstrom
no_reorient  #important for SAPT in psi4, default
symmetry c1  #important for SAPT in psi4, default
}

set PROPERTIES_ORIGIN ["COM"]
properties('MP2/aug-cc-pvtz', properties = ['dipole'])
--------------------------------------------------------------------------

    Molecular point group: c1
  Charge       = 0
  Multiplicity = 1
  Basis Set: AUG-CC-PVTZ
    Blend: AUG-CC-PVTZ
  Basis Set: (AUG-CC-PVTZ AUX)
    Blend: AUG-CC-PVTZ-JKFIT

    Orbital Energies [Eh]
    ---------------------

    Doubly Occupied:

       1A    -20.628131     2A    -20.554652     3A    -11.386249
       4A    -11.246520     5A    -11.228626     6A    -11.216866
       7A     -1.453293     8A     -1.360002     9A     -1.091993
      10A     -0.940846    11A     -0.889758    12A     -0.761986
      13A     -0.704312    14A     -0.691453    15A     -0.642720
      16A     -0.611411    17A     -0.599464    18A     -0.557608
      19A     -0.547618    20A     -0.522914    21A     -0.496420
      22A     -0.488723    23A     -0.481508    24A     -0.444025

  @DF-RHF Final Energy:  -305.98548501455184

   => Energetics <=

    Nuclear Repulsion Energy =            248.1023747340000511
    One-Electron Energy =                -909.0815240655962270
    Two-Electron Energy =                 354.9936643170443631
    Total Energy =                       -305.9854850145518412
  Basis Set: (AUG-CC-PVTZ AUX)
    Blend: AUG-CC-PVTZ-RI
    Molecular point group: c1

    Geometry (in Angstrom), charge = 0, multiplicity = 1:

       Center              X                  Y                   Z               Mass
    ------------   -----------------  -----------------  -----------------  -----------------
         O           -1.481240623502    -0.963177948943     0.359151755695    15.994914619570
         O           -1.086401623502     1.178536051057    -0.452658544305    15.994914619570
         C            0.714120876498    -0.185277948943     0.363758355695    12.000000000000
         C            1.246273876498    -1.199591948943    -0.654071644305    12.000000000000
         C            1.541128876498     1.092291051057     0.387759355695    12.000000000000
         C           -0.724485123502     0.123366051057     0.038951355695    12.000000000000
         H            0.719668876498    -0.658327948943     1.352533355695     1.007825032230
         H            2.286000876498    -1.448354948943    -0.426688644305     1.007825032230
         H            1.209571876498    -0.777727948943    -1.662812644305     1.007825032230
         H            0.657391876498    -2.119121948943    -0.638259644305     1.007825032230
         H            1.529468876498     1.569593051057    -0.594321644305     1.007825032230
         H            2.576048876498     0.866324051057     0.657902355695     1.007825032230
         H            1.141584876498     1.807839051057     1.110055355695     1.007825032230
         H           -2.435112123502    -0.643324948943     0.061551355695     1.007825032230

  Basis Set: AUG-CC-PVTZ
    Blend: AUG-CC-PVTZ
  Basis Set: (AUG-CC-PVTZ AUX)
    Blend: AUG-CC-PVTZ-JKFIT
	 Reference Energy          =    -305.9854850145518412 [Eh]
	 Singles Energy            =      -0.0000000000000000 [Eh]
	 Same-Spin Energy          =      -0.3033438814283794 [Eh]
	 Opposite-Spin Energy      =      -0.9840050597562262 [Eh]
	 Correlation Energy        =      -1.2873489411846055 [Eh]
	 Total Energy              =    -307.2728339557364734 [Eh]

	 ================> DF-SCS-MP2 Energies <==================
	-----------------------------------------------------------
	 SCS Same-Spin Scale       =       0.3333333333333333 [-]
	 SCS Opposite-Spin Scale   =       1.2000000000000000 [-]
	 SCS Same-Spin Energy      =      -0.1011146271427931 [Eh]
	 SCS Opposite-Spin Energy  =      -1.1808060717074713 [Eh]
	 SCS Correlation Energy    =      -1.2819206988502645 [Eh]
	 SCS Total Energy          =    -307.2674057134021268 [Eh]
	-----------------------------------------------------------

  Dipole Moment: [D]
     X:     0.3320      Y:    -1.4044      Z:     0.5024     Total:     1.5281

*** Psi4 exiting successfully. Buy a developer a beer!
