                               Psi4 1.4a3.dev225

  ==> Input File <==

--------------------------------------------------------------------------
#psi4
#
memory 32 gb

molecule  {
0 1
  O       -1.6617030     0.7577680    -0.4073030
  O       -1.1227790    -1.2129920     0.5672640
  C        0.6404470     0.1718450    -0.3932210
  C        1.0928880     1.3538930     0.4742710
  C        1.5672530    -1.0291100    -0.2532030
  C       -0.8213421    -0.2165707    -0.0109585
  H        0.6138910     0.5049790    -1.4379290
  H        2.1115010     1.6456430     0.2036890
  H        1.0897110     1.0707860     1.5315760
  H        0.4361920     2.2162520     0.3415930
  H        1.5885520    -1.3743970     0.7830710
  H        2.5826960    -0.7552260    -0.5531760
  H        1.2333040    -1.8624340    -0.8759310
  H       -2.5365610     0.4411560    -0.1004010
units angstrom
no_reorient  #important for SAPT in psi4, default
symmetry c1  #important for SAPT in psi4, default
}

set PROPERTIES_ORIGIN ["COM"]
properties('MP2/aug-cc-pvtz', properties = ['dipole'])
--------------------------------------------------------------------------

    Molecular point group: c1
  Charge       = 0
  Multiplicity = 1
  Basis Set: AUG-CC-PVTZ
    Blend: AUG-CC-PVTZ
  Basis Set: (AUG-CC-PVTZ AUX)
    Blend: AUG-CC-PVTZ-JKFIT

    Orbital Energies [Eh]
    ---------------------

    Doubly Occupied:

       1A    -20.618815     2A    -20.553271     3A    -11.382252
       4A    -11.251366     5A    -11.227924     6A    -11.218075
       7A     -1.471551     8A     -1.373926     9A     -1.085909
      10A     -0.940064    11A     -0.888135    12A     -0.773718
      13A     -0.710792    14A     -0.692741    15A     -0.646450
      16A     -0.614549    17A     -0.601805    18A     -0.559532
      19A     -0.547162    20A     -0.526321    21A     -0.497386
      22A     -0.489458    23A     -0.485249    24A     -0.439343

  @DF-RHF Final Energy:  -305.99821567655727

   => Energetics <=

    Nuclear Repulsion Energy =            247.5358467729024028
    One-Electron Energy =                -907.8765346134990750
    Two-Electron Energy =                 354.3424721640394637
    Total Energy =                       -305.9982156765572654
  Basis Set: (AUG-CC-PVTZ AUX)
    Blend: AUG-CC-PVTZ-RI
    Molecular point group: c1

    Geometry (in Angstrom), charge = 0, multiplicity = 1:

       Center              X                  Y                   Z               Mass
    ------------   -----------------  -----------------  -----------------  -----------------
         O           -1.575258975107     0.780698184599    -0.410174871740    15.994914619570
         O           -1.036334975107    -1.190061815401     0.564392128260    15.994914619570
         C            0.726891024893     0.194775184599    -0.396092871740    12.000000000000
         C            1.179332024893     1.376823184599     0.471399128260    12.000000000000
         C            1.653697024893    -1.006179815401    -0.256074871740    12.000000000000
         C           -0.734898075107    -0.193640515401    -0.013830371740    12.000000000000
         H            0.700335024893     0.527909184599    -1.440800871740     1.007825032230
         H            2.197945024893     1.668573184599     0.200817128260     1.007825032230
         H            1.176155024893     1.093716184599     1.528704128260     1.007825032230
         H            0.522636024893     2.239182184599     0.338721128260     1.007825032230
         H            1.674996024893    -1.351466815401     0.780199128260     1.007825032230
         H            2.669140024893    -0.732295815401    -0.556047871740     1.007825032230
         H            1.319748024893    -1.839503815401    -0.878802871740     1.007825032230
         H           -2.450116975107     0.464086184599    -0.103272871740     1.007825032230

  Basis Set: AUG-CC-PVTZ
    Blend: AUG-CC-PVTZ
  Basis Set: (AUG-CC-PVTZ AUX)
    Blend: AUG-CC-PVTZ-JKFIT
	 Reference Energy          =    -305.9982156765572654 [Eh]
	 Singles Energy            =      -0.0000000000000000 [Eh]
	 Same-Spin Energy          =      -0.3007622857344692 [Eh]
	 Opposite-Spin Energy      =      -0.9787173853217087 [Eh]
	 Correlation Energy        =      -1.2794796710561780 [Eh]
	 Total Energy              =    -307.2776953476134167 [Eh]

	 ================> DF-SCS-MP2 Energies <==================
	-----------------------------------------------------------
	 SCS Same-Spin Scale       =       0.3333333333333333 [-]
	 SCS Opposite-Spin Scale   =       1.2000000000000000 [-]
	 SCS Same-Spin Energy      =      -0.1002540952448231 [Eh]
	 SCS Opposite-Spin Energy  =      -1.1744608623860504 [Eh]
	 SCS Correlation Energy    =      -1.2747149576308734 [Eh]
	 SCS Total Energy          =    -307.2729306341881284 [Eh]
	-----------------------------------------------------------

  Dipole Moment: [D]
     X:     0.2833      Y:     1.3078      Z:    -0.6326     Total:     1.4801

*** Psi4 exiting successfully. Buy a developer a beer!
