                               Psi4 1.3.2 release

  ==> Input File <==

--------------------------------------------------------------------------
#psi4
#
memory 32 gb

molecule  {
0 1
  O       -1.5172650    -0.9302590     0.3397410
  O       -1.1248250     1.1536050    -0.4487800
  C        0.7353610    -0.1875570     0.3681900
  C        1.2195809    -1.2017969    -0.6733695
  C        1.5623690     1.0900120     0.3921910
  C       -0.7002586     0.0877944     0.0027781
  H        0.7409090    -0.6606070     1.3569650
  H        2.3072410    -1.4506340    -0.4222570
  H        1.2308120    -0.7800070    -1.6583810
  H        0.6786320    -2.1214010    -0.6338280
  H        1.5507090     1.5673140    -0.5898900
  H        2.5972890     0.8640450     0.6623340
  H        1.1628250     1.8055600     1.1144870
  H       -2.4138720    -0.6456040     0.0659830
units angstrom
no_reorient  #important for SAPT in psi4, default
symmetry c1  #important for SAPT in psi4, default
}

set PROPERTIES_ORIGIN ["COM"]
properties('MP2/aug-cc-pvtz', properties = ['dipole'])
--------------------------------------------------------------------------

    Molecular point group: c1
  Charge       = 0
  Multiplicity = 1
  Basis Set: AUG-CC-PVTZ
    Blend: AUG-CC-PVTZ
  Basis Set: (AUG-CC-PVTZ AUX)
    Blend: AUG-CC-PVTZ-JKFIT

    Orbital Energies [Eh]
    ---------------------

    Doubly Occupied:

       1A    -20.618371     2A    -20.546460     3A    -11.385485
       4A    -11.253629     5A    -11.232081     6A    -11.221438
       7A     -1.461931     8A     -1.348747     9A     -1.098144
      10A     -0.945998    11A     -0.896913    12A     -0.777398
      13A     -0.706298    14A     -0.692715    15A     -0.641509
      16A     -0.616749    17A     -0.598229    18A     -0.564852
      19A     -0.542298    20A     -0.519656    21A     -0.503629
      22A     -0.495425    23A     -0.474327    24A     -0.441434

  @DF-RHF Final Energy:  -305.99264244892049

   => Energetics <=

    Nuclear Repulsion Energy =            248.0697443093830259
    One-Electron Energy =                -908.9573466157638677
    Two-Electron Energy =                 354.8949598574603215
    Total Energy =                       -305.9926424489204919
  Basis Set: (AUG-CC-PVTZ AUX)
    Blend: AUG-CC-PVTZ-RI
    Molecular point group: c1

    Geometry (in Angstrom), charge = 0, multiplicity = 1:

       Center              X                  Y                   Z               Mass
    ------------   -----------------  -----------------  -----------------  -----------------
         O           -1.511139452953    -0.925731858773     0.348508500184    15.994914619570
         O           -1.118699452953     1.158132141227    -0.440012499816    15.994914619570
         C            0.741486547047    -0.183029858773     0.376957500184    12.000000000000
         C            1.225706447047    -1.197269758773    -0.664601999816    12.000000000000
         C            1.568494547047     1.094539141227     0.400958500184    12.000000000000
         C           -0.694133052953     0.092321541227     0.011545600184    12.000000000000
         H            0.747034547047    -0.656079858773     1.365732500184     1.007825032230
         H            2.313366547047    -1.446106858773    -0.413489499816     1.007825032230
         H            1.236937547047    -0.775479858773    -1.649613499816     1.007825032230
         H            0.684757547047    -2.116873858773    -0.625060499816     1.007825032230
         H            1.556834547047     1.571841141227    -0.581122499816     1.007825032230
         H            2.603414547047     0.868572141227     0.671101500184     1.007825032230
         H            1.168950547047     1.810087141227     1.123254500184     1.007825032230
         H           -2.407746452953    -0.641076858773     0.074750500184     1.007825032230

  Basis Set: AUG-CC-PVTZ
    Blend: AUG-CC-PVTZ
  Basis Set: (AUG-CC-PVTZ AUX)
    Blend: AUG-CC-PVTZ-JKFIT
	 Reference Energy          =    -305.9926424489204919 [Eh]
	 Singles Energy            =      -0.0000000000000000 [Eh]
	 Same-Spin Energy          =      -0.3020442883121007 [Eh]
	 Opposite-Spin Energy      =      -0.9809582834438120 [Eh]
	 Correlation Energy        =      -1.2830025717559126 [Eh]
	 Total Energy              =    -307.2756450206763930 [Eh]

	 ================> DF-SCS-MP2 Energies <==================
	-----------------------------------------------------------
	 SCS Same-Spin Scale       =       0.3333333333333333 [-]
	 SCS Opposite-Spin Scale   =       1.2000000000000000 [-]
	 SCS Same-Spin Energy      =      -0.1006814294373669 [Eh]
	 SCS Opposite-Spin Energy  =      -1.1771499401325742 [Eh]
	 SCS Correlation Energy    =      -1.2778313695699413 [Eh]
	 SCS Total Energy          =    -307.2704738184904159 [Eh]
	-----------------------------------------------------------

  Dipole Moment: [D]
     X:     0.6381      Y:    -1.5050      Z:     0.5382     Total:     1.7210

*** Psi4 exiting successfully. Buy a developer a beer!
