                               Psi4 1.4a3.dev225

  ==> Input File <==

--------------------------------------------------------------------------
#psi4
#
memory 32 gb

molecule  {
0 1
  O       -1.6617030     0.7577680    -0.4073030
  O       -1.1227790    -1.2129920     0.5672640
  C        0.6404470     0.1718450    -0.3932210
  C        1.0928880     1.3538930     0.4742710
  C        1.5672530    -1.0291100    -0.2532030
  C       -0.7875030    -0.1900158    -0.0288428
  H        0.6138910     0.5049790    -1.4379290
  H        2.1115010     1.6456430     0.2036890
  H        1.0897110     1.0707860     1.5315760
  H        0.4361920     2.2162520     0.3415930
  H        1.5885520    -1.3743970     0.7830710
  H        2.5826960    -0.7552260    -0.5531760
  H        1.2333040    -1.8624340    -0.8759310
  H       -2.5365610     0.4411560    -0.1004010
units angstrom
no_reorient  #important for SAPT in psi4, default
symmetry c1  #important for SAPT in psi4, default
}

set PROPERTIES_ORIGIN ["COM"]
properties('MP2/aug-cc-pvtz', properties = ['dipole'])
--------------------------------------------------------------------------

    Molecular point group: c1
  Charge       = 0
  Multiplicity = 1
  Basis Set: AUG-CC-PVTZ
    Blend: AUG-CC-PVTZ
  Basis Set: (AUG-CC-PVTZ AUX)
    Blend: AUG-CC-PVTZ-JKFIT

    Orbital Energies [Eh]
    ---------------------

    Doubly Occupied:

       1A    -20.619933     2A    -20.547513     3A    -11.386352
       4A    -11.253732     5A    -11.231293     6A    -11.220316
       7A     -1.464453     8A     -1.351338     9A     -1.094365
      10A     -0.942977    11A     -0.898039    12A     -0.778153
      13A     -0.706154    14A     -0.692024    15A     -0.642766
      16A     -0.611574    17A     -0.599471    18A     -0.561166
      19A     -0.548355    20A     -0.524028    21A     -0.497079
      22A     -0.492281    23A     -0.475383    24A     -0.444504

  @DF-RHF Final Energy:  -305.99748135494013

   => Energetics <=

    Nuclear Repulsion Energy =            247.4844332346387716
    One-Electron Energy =                -907.7973342744612637
    Two-Electron Energy =                 354.3154196848823290
    Total Energy =                       -305.9974813549401347
  Basis Set: (AUG-CC-PVTZ AUX)
    Blend: AUG-CC-PVTZ-RI
    Molecular point group: c1

    Geometry (in Angstrom), charge = 0, multiplicity = 1:

       Center              X                  Y                   Z               Mass
    ------------   -----------------  -----------------  -----------------  -----------------
         O           -1.579870650246     0.777079218015    -0.407737555686    15.994914619570
         O           -1.040946650246    -1.193680781985     0.566829444314    15.994914619570
         C            0.722279349754     0.191156218015    -0.393655555686    12.000000000000
         C            1.174720349754     1.373204218015     0.473836444314    12.000000000000
         C            1.649085349754    -1.009798781985    -0.253637555686    12.000000000000
         C           -0.705670650246    -0.170704581985    -0.029277355686    12.000000000000
         H            0.695723349754     0.524290218015    -1.438363555686     1.007825032230
         H            2.193333349754     1.664954218015     0.203254444314     1.007825032230
         H            1.171543349754     1.090097218015     1.531141444314     1.007825032230
         H            0.518024349754     2.235563218015     0.341158444314     1.007825032230
         H            1.670384349754    -1.355085781985     0.782636444314     1.007825032230
         H            2.664528349754    -0.735914781985    -0.553610555686     1.007825032230
         H            1.315136349754    -1.843122781985    -0.876365555686     1.007825032230
         H           -2.454728650246     0.460467218015    -0.100835555686     1.007825032230

  Basis Set: AUG-CC-PVTZ
    Blend: AUG-CC-PVTZ
  Basis Set: (AUG-CC-PVTZ AUX)
    Blend: AUG-CC-PVTZ-JKFIT
	 Reference Energy          =    -305.9974813549401347 [Eh]
	 Singles Energy            =      -0.0000000000000000 [Eh]
	 Same-Spin Energy          =      -0.3016589372298852 [Eh]
	 Opposite-Spin Energy      =      -0.9803948553931188 [Eh]
	 Correlation Energy        =      -1.2820537926230040 [Eh]
	 Total Energy              =    -307.2795351475631378 [Eh]

	 ================> DF-SCS-MP2 Energies <==================
	-----------------------------------------------------------
	 SCS Same-Spin Scale       =       0.3333333333333333 [-]
	 SCS Opposite-Spin Scale   =       1.2000000000000000 [-]
	 SCS Same-Spin Energy      =      -0.1005529790766284 [Eh]
	 SCS Opposite-Spin Energy  =      -1.1764738264717425 [Eh]
	 SCS Correlation Energy    =      -1.2770268055483709 [Eh]
	 SCS Total Energy          =    -307.2745081604884945 [Eh]
	-----------------------------------------------------------

  Dipole Moment: [D]
     X:     0.4711      Y:     1.4902      Z:    -0.7294     Total:     1.7247

*** Psi4 exiting successfully. Buy a developer a beer!
