                               Psi4 1.4a3.dev225

  ==> Input File <==

--------------------------------------------------------------------------
#psi4
#
memory 32 gb

molecule  {
0 1
  O       -1.6617030     0.7577680    -0.4073030
  O       -1.1227790    -1.2129920     0.5672640
  C        0.6404470     0.1718450    -0.3932210
  C        1.0928880     1.3538930     0.4742710
  C        1.5672530    -1.0291100    -0.2532030
  C       -0.7687812    -0.1875797    -0.0328919
  H        0.6138910     0.5049790    -1.4379290
  H        2.1115010     1.6456430     0.2036890
  H        1.0897110     1.0707860     1.5315760
  H        0.4361920     2.2162520     0.3415930
  H        1.5885520    -1.3743970     0.7830710
  H        2.5826960    -0.7552260    -0.5531760
  H        1.2333040    -1.8624340    -0.8759310
  H       -2.5365610     0.4411560    -0.1004010
units angstrom
no_reorient  #important for SAPT in psi4, default
symmetry c1  #important for SAPT in psi4, default
}

set PROPERTIES_ORIGIN ["COM"]
properties('MP2/aug-cc-pvtz', properties = ['dipole'])
--------------------------------------------------------------------------

    Molecular point group: c1
  Charge       = 0
  Multiplicity = 1
  Basis Set: AUG-CC-PVTZ
    Blend: AUG-CC-PVTZ
  Basis Set: (AUG-CC-PVTZ AUX)
    Blend: AUG-CC-PVTZ-JKFIT

    Orbital Energies [Eh]
    ---------------------

    Doubly Occupied:

       1A    -20.617480     2A    -20.547094     3A    -11.387781
       4A    -11.254547     5A    -11.232797     6A    -11.221504
       7A     -1.458625     8A     -1.344905     9A     -1.098542
      10A     -0.944392    11A     -0.900920    12A     -0.777307
      13A     -0.704529    14A     -0.691392    15A     -0.640958
      16A     -0.610591    17A     -0.598164    18A     -0.561475
      19A     -0.549176    20A     -0.524824    21A     -0.498085
      22A     -0.493642    23A     -0.472445    24A     -0.446434

  @DF-RHF Final Energy:  -305.99598109148849

   => Energetics <=

    Nuclear Repulsion Energy =            247.4845773888777103
    One-Electron Energy =                -907.8059034442868551
    Two-Electron Energy =                 354.3253449639206565
    Total Energy =                       -305.9959810914884883
  Basis Set: (AUG-CC-PVTZ AUX)
    Blend: AUG-CC-PVTZ-RI
    Molecular point group: c1

    Geometry (in Angstrom), charge = 0, multiplicity = 1:

       Center              X                  Y                   Z               Mass
    ------------   -----------------  -----------------  -----------------  -----------------
         O           -1.582422102844     0.776747220362    -0.407185734455    15.994914619570
         O           -1.043498102844    -1.194012779638     0.567381265545    15.994914619570
         C            0.719727897156     0.190824220362    -0.393103734455    12.000000000000
         C            1.172168897156     1.372872220362     0.474388265545    12.000000000000
         C            1.646533897156    -1.010130779638    -0.253085734455    12.000000000000
         C           -0.689500302844    -0.168600479638    -0.032774634455    12.000000000000
         H            0.693171897156     0.523958220362    -1.437811734455     1.007825032230
         H            2.190781897156     1.664622220362     0.203806265545     1.007825032230
         H            1.168991897156     1.089765220362     1.531693265545     1.007825032230
         H            0.515472897156     2.235231220362     0.341710265545     1.007825032230
         H            1.667832897156    -1.355417779638     0.783188265545     1.007825032230
         H            2.661976897156    -0.736246779638    -0.553058734455     1.007825032230
         H            1.312584897156    -1.843454779638    -0.875813734455     1.007825032230
         H           -2.457280102844     0.460135220362    -0.100283734455     1.007825032230

  Basis Set: AUG-CC-PVTZ
    Blend: AUG-CC-PVTZ
  Basis Set: (AUG-CC-PVTZ AUX)
    Blend: AUG-CC-PVTZ-JKFIT
	 Reference Energy          =    -305.9959810914884883 [Eh]
	 Singles Energy            =      -0.0000000000000000 [Eh]
	 Same-Spin Energy          =      -0.3020156138093033 [Eh]
	 Opposite-Spin Energy      =      -0.9811203660523692 [Eh]
	 Correlation Energy        =      -1.2831359798616724 [Eh]
	 Total Energy              =    -307.2791170713501856 [Eh]

	 ================> DF-SCS-MP2 Energies <==================
	-----------------------------------------------------------
	 SCS Same-Spin Scale       =       0.3333333333333333 [-]
	 SCS Opposite-Spin Scale   =       1.2000000000000000 [-]
	 SCS Same-Spin Energy      =      -0.1006718712697677 [Eh]
	 SCS Opposite-Spin Energy  =      -1.1773444392628429 [Eh]
	 SCS Correlation Energy    =      -1.2780163105326108 [Eh]
	 SCS Total Energy          =    -307.2739974020211093 [Eh]
	-----------------------------------------------------------

  Dipole Moment: [D]
     X:     0.5886      Y:     1.4962      Z:    -0.7364     Total:     1.7684

*** Psi4 exiting successfully. Buy a developer a beer!
