                               Psi4 1.3.2 release

  ==> Input File <==

--------------------------------------------------------------------------
#psi4
#
memory 32 gb

molecule  {
0 1
  O       -1.5266384    -0.9239999     0.3359610
  O       -1.1248250     1.1536050    -0.4487800
  C        0.7388173    -0.1755853     0.3639914
  C        1.2675140    -1.2018710    -0.6496400
  C        1.5623690     1.0900120     0.3921910
  C       -0.7032450     0.1210870     0.0433830
  H        0.7409090    -0.6606070     1.3569650
  H        2.3072410    -1.4506340    -0.4222570
  H        1.2308120    -0.7800070    -1.6583810
  H        0.6786320    -2.1214010    -0.6338280
  H        1.5507090     1.5673140    -0.5898900
  H        2.5972890     0.8640450     0.6623340
  H        1.1628250     1.8055600     1.1144870
  H       -2.4138720    -0.6456040     0.0659830
units angstrom
no_reorient  #important for SAPT in psi4, default
symmetry c1  #important for SAPT in psi4, default
}

set PROPERTIES_ORIGIN ["COM"]
properties('MP2/aug-cc-pvtz', properties = ['dipole'])
--------------------------------------------------------------------------

    Molecular point group: c1
  Charge       = 0
  Multiplicity = 1
  Basis Set: AUG-CC-PVTZ
    Blend: AUG-CC-PVTZ
  Basis Set: (AUG-CC-PVTZ AUX)
    Blend: AUG-CC-PVTZ-JKFIT

    Orbital Energies [Eh]
    ---------------------

    Doubly Occupied:

       1A    -20.613126     2A    -20.549466     3A    -11.385320
       4A    -11.254082     5A    -11.232026     6A    -11.220790
       7A     -1.459805     8A     -1.355180     9A     -1.098256
      10A     -0.945450    11A     -0.898049    12A     -0.774862
      13A     -0.706100    14A     -0.691424    15A     -0.641612
      16A     -0.611335    17A     -0.601703    18A     -0.561446
      19A     -0.549574    20A     -0.527067    21A     -0.500792
      22A     -0.490347    23A     -0.477897    24A     -0.446128

  @DF-RHF Final Energy:  -305.99889350087278

   => Energetics <=

    Nuclear Repulsion Energy =            247.8738396423964616
    One-Electron Energy =                -908.5617875715188347
    Two-Electron Energy =                 354.6890544282496194
    Total Energy =                       -305.9988935008727822
  Basis Set: (AUG-CC-PVTZ AUX)
    Blend: AUG-CC-PVTZ-RI
    Molecular point group: c1

    Geometry (in Angstrom), charge = 0, multiplicity = 1:

       Center              X                  Y                   Z               Mass
    ------------   -----------------  -----------------  -----------------  -----------------
         O           -1.525406633509    -0.926768368602     0.337219691779    15.994914619570
         O           -1.123593233509     1.150836531398    -0.447521308221    15.994914619570
         C            0.740049066491    -0.178353768602     0.365250091779    12.000000000000
         C            1.268745766491    -1.204639468602    -0.648381308221    12.000000000000
         C            1.563600766491     1.087243531398     0.393449691779    12.000000000000
         C           -0.702013233509     0.118318531398     0.044641691779    12.000000000000
         H            0.742140766491    -0.663375468602     1.358223691779     1.007825032230
         H            2.308472766491    -1.453402468602    -0.420998308221     1.007825032230
         H            1.232043766491    -0.782775468602    -1.657122308221     1.007825032230
         H            0.679863766491    -2.124169468602    -0.632569308221     1.007825032230
         H            1.551940766491     1.564545531398    -0.588631308221     1.007825032230
         H            2.598520766491     0.861276531398     0.663592691779     1.007825032230
         H            1.164056766491     1.802791531398     1.115745691779     1.007825032230
         H           -2.412640233509    -0.648372468602     0.067241691779     1.007825032230

  Basis Set: AUG-CC-PVTZ
    Blend: AUG-CC-PVTZ
  Basis Set: (AUG-CC-PVTZ AUX)
    Blend: AUG-CC-PVTZ-JKFIT
	 Reference Energy          =    -305.9988935008727822 [Eh]
	 Singles Energy            =      -0.0000000000000000 [Eh]
	 Same-Spin Energy          =      -0.3014712782771898 [Eh]
	 Opposite-Spin Energy      =      -0.9798996921328366 [Eh]
	 Correlation Energy        =      -1.2813709704100265 [Eh]
	 Total Energy              =    -307.2802644712828055 [Eh]

	 ================> DF-SCS-MP2 Energies <==================
	-----------------------------------------------------------
	 SCS Same-Spin Scale       =       0.3333333333333333 [-]
	 SCS Opposite-Spin Scale   =       1.2000000000000000 [-]
	 SCS Same-Spin Energy      =      -0.1004904260923966 [Eh]
	 SCS Opposite-Spin Energy  =      -1.1758796305594039 [Eh]
	 SCS Correlation Energy    =      -1.2763700566518006 [Eh]
	 SCS Total Energy          =    -307.2752635575245677 [Eh]
	-----------------------------------------------------------

  Dipole Moment: [D]
     X:     0.7050      Y:    -1.3871      Z:     0.5381     Total:     1.6464

*** Psi4 exiting successfully. Buy a developer a beer!
