                               Psi4 1.3.2 release

  ==> Input File <==

--------------------------------------------------------------------------
#psi4
#
memory 32 gb

molecule  {
0 1
  O       -1.5172650    -0.9302590     0.3397410
  O       -1.1248250     1.1536050    -0.4487800
  C        0.7353610    -0.1875570     0.3681900
  C        1.1953895    -1.2012964    -0.6847601
  C        1.5623690     1.0900120     0.3921910
  C       -0.6981092     0.0710198    -0.0173604
  H        0.7409090    -0.6606070     1.3569650
  H        2.3072410    -1.4506340    -0.4222570
  H        1.2308120    -0.7800070    -1.6583810
  H        0.6786320    -2.1214010    -0.6338280
  H        1.5507090     1.5673140    -0.5898900
  H        2.5972890     0.8640450     0.6623340
  H        1.1628250     1.8055600     1.1144870
  H       -2.4138720    -0.6456040     0.0659830
units angstrom
no_reorient  #important for SAPT in psi4, default
symmetry c1  #important for SAPT in psi4, default
}

set PROPERTIES_ORIGIN ["COM"]
properties('MP2/aug-cc-pvtz', properties = ['dipole'])
--------------------------------------------------------------------------

    Molecular point group: c1
  Charge       = 0
  Multiplicity = 1
  Basis Set: AUG-CC-PVTZ
    Blend: AUG-CC-PVTZ
  Basis Set: (AUG-CC-PVTZ AUX)
    Blend: AUG-CC-PVTZ-JKFIT

    Orbital Energies [Eh]
    ---------------------

    Doubly Occupied:

       1A    -20.620237     2A    -20.544695     3A    -11.385942
       4A    -11.254190     5A    -11.232825     6A    -11.221829
       7A     -1.463655     8A     -1.344499     9A     -1.098938
      10A     -0.947217    11A     -0.896992    12A     -0.779549
      13A     -0.706658    14A     -0.693027    15A     -0.641817
      16A     -0.620069    17A     -0.596202    18A     -0.568018
      19A     -0.540048    20A     -0.514610    21A     -0.505944
      22A     -0.496544    23A     -0.471561    24A     -0.438156

  @DF-RHF Final Energy:  -305.98599382297812

   => Energetics <=

    Nuclear Repulsion Energy =            248.1767838157199151
    One-Electron Energy =                -909.1591115430070431
    Two-Electron Energy =                 354.9963339043090400
    Total Energy =                       -305.9859938229781164
  Basis Set: (AUG-CC-PVTZ AUX)
    Blend: AUG-CC-PVTZ-RI
    Molecular point group: c1

    Geometry (in Angstrom), charge = 0, multiplicity = 1:

       Center              X                  Y                   Z               Mass
    ------------   -----------------  -----------------  -----------------  -----------------
         O           -1.508135515396    -0.923513984705     0.352805362885    15.994914619570
         O           -1.115695515396     1.160350015295    -0.435715637115    15.994914619570
         C            0.744490484604    -0.180811984705     0.381254362885    12.000000000000
         C            1.204518984604    -1.194551384705    -0.671695737115    12.000000000000
         C            1.571498484604     1.096757015295     0.405255362885    12.000000000000
         C           -0.688979715396     0.077764815295    -0.004296037115    12.000000000000
         H            0.750038484604    -0.653861984705     1.370029362885     1.007825032230
         H            2.316370484604    -1.443888984705    -0.409192637115     1.007825032230
         H            1.239941484604    -0.773261984705    -1.645316637115     1.007825032230
         H            0.687761484604    -2.114655984705    -0.620763637115     1.007825032230
         H            1.559838484604     1.574059015295    -0.576825637115     1.007825032230
         H            2.606418484604     0.870790015295     0.675398362885     1.007825032230
         H            1.171954484604     1.812305015295     1.127551362885     1.007825032230
         H           -2.404742515396    -0.638858984705     0.079047362885     1.007825032230

  Basis Set: AUG-CC-PVTZ
    Blend: AUG-CC-PVTZ
  Basis Set: (AUG-CC-PVTZ AUX)
    Blend: AUG-CC-PVTZ-JKFIT
	 Reference Energy          =    -305.9859938229781164 [Eh]
	 Singles Energy            =      -0.0000000000000000 [Eh]
	 Same-Spin Energy          =      -0.3023828005987201 [Eh]
	 Opposite-Spin Energy      =      -0.9816048177638497 [Eh]
	 Correlation Energy        =      -1.2839876183625698 [Eh]
	 Total Energy              =    -307.2699814413406898 [Eh]

	 ================> DF-SCS-MP2 Energies <==================
	-----------------------------------------------------------
	 SCS Same-Spin Scale       =       0.3333333333333333 [-]
	 SCS Opposite-Spin Scale   =       1.2000000000000000 [-]
	 SCS Same-Spin Energy      =      -0.1007942668662400 [Eh]
	 SCS Opposite-Spin Energy  =      -1.1779257813166195 [Eh]
	 SCS Correlation Energy    =      -1.2787200481828596 [Eh]
	 SCS Total Energy          =    -307.2647138711609500 [Eh]
	-----------------------------------------------------------

  Dipole Moment: [D]
     X:     0.6225      Y:    -1.5579      Z:     0.5418     Total:     1.7630

*** Psi4 exiting successfully. Buy a developer a beer!
