                               Psi4 1.3.2 release

  ==> Input File <==

--------------------------------------------------------------------------
#psi4
#
memory 32 gb

molecule  {
0 1
  O       -1.5172650    -0.9302590     0.3397410
  O       -1.1248250     1.1536050    -0.4487800
  C        0.7353610    -0.1875570     0.3681900
  C        1.2675140    -1.2018710    -0.6496400
  C        1.5623690     1.0900120     0.3921910
  C       -0.7604079     0.1560370     0.0189397
  H        0.7409090    -0.6606070     1.3569650
  H        2.3072410    -1.4506340    -0.4222570
  H        1.2308120    -0.7800070    -1.6583810
  H        0.6786320    -2.1214010    -0.6338280
  H        1.5507090     1.5673140    -0.5898900
  H        2.5972890     0.8640450     0.6623340
  H        1.1628250     1.8055600     1.1144870
  H       -2.3936268    -0.6009499     0.0509133
units angstrom
no_reorient  #important for SAPT in psi4, default
symmetry c1  #important for SAPT in psi4, default
}

set PROPERTIES_ORIGIN ["COM"]
properties('MP2/aug-cc-pvtz', properties = ['dipole'])
--------------------------------------------------------------------------

    Molecular point group: c1
  Charge       = 0
  Multiplicity = 1
  Basis Set: AUG-CC-PVTZ
    Blend: AUG-CC-PVTZ
  Basis Set: (AUG-CC-PVTZ AUX)
    Blend: AUG-CC-PVTZ-JKFIT

    Orbital Energies [Eh]
    ---------------------

    Doubly Occupied:

       1A    -20.614931     2A    -20.559749     3A    -11.379663
       4A    -11.249264     5A    -11.226479     6A    -11.217367
       7A     -1.479219     8A     -1.385880     9A     -1.084058
      10A     -0.939740    11A     -0.880522    12A     -0.765705
      13A     -0.715138    14A     -0.696291    15A     -0.649748
      16A     -0.619704    17A     -0.603012    18A     -0.559018
      19A     -0.548017    20A     -0.530382    21A     -0.504125
      22A     -0.489070    23A     -0.486740    24A     -0.436559

  @DF-RHF Final Energy:  -305.99388458740844

   => Energetics <=

    Nuclear Repulsion Energy =            248.0254861451197428
    One-Electron Energy =                -908.7979801637389983
    Two-Electron Energy =                 354.7786094312107821
    Total Energy =                       -305.9938845874084450
  Basis Set: (AUG-CC-PVTZ AUX)
    Blend: AUG-CC-PVTZ-RI
    Molecular point group: c1

    Geometry (in Angstrom), charge = 0, multiplicity = 1:

       Center              X                  Y                   Z               Mass
    ------------   -----------------  -----------------  -----------------  -----------------
         O           -1.509706320655    -0.935533127457     0.343244527552    15.994914619570
         O           -1.117266320655     1.148330872543    -0.445276472448    15.994914619570
         C            0.742919679345    -0.192831127457     0.371693527552    12.000000000000
         C            1.275072679345    -1.207145127457    -0.646136472448    12.000000000000
         C            1.569927679345     1.084737872543     0.395694527552    12.000000000000
         C           -0.752849220655     0.150762872543     0.022443227552    12.000000000000
         H            0.748467679345    -0.665881127457     1.360468527552     1.007825032230
         H            2.314799679345    -1.455908127457    -0.418753472448     1.007825032230
         H            1.238370679345    -0.785281127457    -1.654877472448     1.007825032230
         H            0.686190679345    -2.126675127457    -0.630324472448     1.007825032230
         H            1.558267679345     1.562039872543    -0.586386472448     1.007825032230
         H            2.604847679345     0.858770872543     0.665837527552     1.007825032230
         H            1.170383679345     1.800285872543     1.117990527552     1.007825032230
         H           -2.386068120655    -0.606224027457     0.054416827552     1.007825032230

  Basis Set: AUG-CC-PVTZ
    Blend: AUG-CC-PVTZ
  Basis Set: (AUG-CC-PVTZ AUX)
    Blend: AUG-CC-PVTZ-JKFIT
	 Reference Energy          =    -305.9938845874084450 [Eh]
	 Singles Energy            =      -0.0000000000000000 [Eh]
	 Same-Spin Energy          =      -0.3005459907971535 [Eh]
	 Opposite-Spin Energy      =      -0.9781961668837282 [Eh]
	 Correlation Energy        =      -1.2787421576808817 [Eh]
	 Total Energy              =    -307.2726267450893261 [Eh]

	 ================> DF-SCS-MP2 Energies <==================
	-----------------------------------------------------------
	 SCS Same-Spin Scale       =       0.3333333333333333 [-]
	 SCS Opposite-Spin Scale   =       1.2000000000000000 [-]
	 SCS Same-Spin Energy      =      -0.1001819969323845 [Eh]
	 SCS Opposite-Spin Energy  =      -1.1738354002604738 [Eh]
	 SCS Correlation Energy    =      -1.2740173971928583 [Eh]
	 SCS Total Energy          =    -307.2679019846012807 [Eh]
	-----------------------------------------------------------

  Dipole Moment: [D]
     X:     0.3873      Y:    -1.0825      Z:     0.4027     Total:     1.2182

*** Psi4 exiting successfully. Buy a developer a beer!
