                               Psi4 1.3.2 release

  ==> Input File <==

--------------------------------------------------------------------------
#psi4
#
memory 32 gb

molecule  {
0 1
  O       -1.5172650    -0.9302590     0.3397410
  O       -1.1248250     1.1536050    -0.4487800
  C        0.7353610    -0.1875570     0.3681900
  C        1.2690887    -1.2108102    -0.6398206
  C        1.5623690     1.0900120     0.3921910
  C       -0.7032450     0.1210870     0.0433830
  H        0.7444208    -0.6686073     1.3530715
  H        2.3072410    -1.4506340    -0.4222570
  H        1.2308120    -0.7800070    -1.6583810
  H        0.6786320    -2.1214010    -0.6338280
  H        1.5507090     1.5673140    -0.5898900
  H        2.5972890     0.8640450     0.6623340
  H        1.1628250     1.8055600     1.1144870
  H       -2.4138720    -0.6456040     0.0659830
units angstrom
no_reorient  #important for SAPT in psi4, default
symmetry c1  #important for SAPT in psi4, default
}

set PROPERTIES_ORIGIN ["COM"]
properties('MP2/aug-cc-pvtz', properties = ['dipole'])
--------------------------------------------------------------------------

    Molecular point group: c1
  Charge       = 0
  Multiplicity = 1
  Basis Set: AUG-CC-PVTZ
    Blend: AUG-CC-PVTZ
  Basis Set: (AUG-CC-PVTZ AUX)
    Blend: AUG-CC-PVTZ-JKFIT

    Orbital Energies [Eh]
    ---------------------

    Doubly Occupied:

       1A    -20.614494     2A    -20.550539     3A    -11.385624
       4A    -11.253066     5A    -11.231556     6A    -11.221012
       7A     -1.458775     8A     -1.355273     9A     -1.097105
      10A     -0.944404    11A     -0.896984    12A     -0.773038
      13A     -0.705872    14A     -0.691973    15A     -0.641633
      16A     -0.611153    17A     -0.601903    18A     -0.561655
      19A     -0.547599    20A     -0.526523    21A     -0.499746
      22A     -0.490387    23A     -0.478711    24A     -0.447067

  @DF-RHF Final Energy:  -305.99809319106276

   => Energetics <=

    Nuclear Repulsion Energy =            247.7850755991820790
    One-Electron Energy =                -908.3941470367338979
    Two-Electron Energy =                 354.6109782464890827
    Total Energy =                       -305.9980931910627646
  Basis Set: (AUG-CC-PVTZ AUX)
    Blend: AUG-CC-PVTZ-RI
    Molecular point group: c1

    Geometry (in Angstrom), charge = 0, multiplicity = 1:

       Center              X                  Y                   Z               Mass
    ------------   -----------------  -----------------  -----------------  -----------------
         O           -1.517519698032    -0.928949131698     0.338447203315    15.994914619570
         O           -1.125079698032     1.154914868302    -0.450073796685    15.994914619570
         C            0.735106301968    -0.186247131698     0.366896203315    12.000000000000
         C            1.268834001968    -1.209500331698    -0.641114396685    12.000000000000
         C            1.562114301968     1.091321868302     0.390897203315    12.000000000000
         C           -0.703499698032     0.122396868302     0.042089203315    12.000000000000
         H            0.744166101968    -0.667297431698     1.351777703315     1.007825032230
         H            2.306986301968    -1.449324131698    -0.423550796685     1.007825032230
         H            1.230557301968    -0.778697131698    -1.659674796685     1.007825032230
         H            0.678377301968    -2.120091131698    -0.635121796685     1.007825032230
         H            1.550454301968     1.568623868302    -0.591183796685     1.007825032230
         H            2.597034301968     0.865354868302     0.661040203315     1.007825032230
         H            1.162570301968     1.806869868302     1.113193203315     1.007825032230
         H           -2.414126698032    -0.644294131698     0.064689203315     1.007825032230

  Basis Set: AUG-CC-PVTZ
    Blend: AUG-CC-PVTZ
  Basis Set: (AUG-CC-PVTZ AUX)
    Blend: AUG-CC-PVTZ-JKFIT
	 Reference Energy          =    -305.9980931910627646 [Eh]
	 Singles Energy            =      -0.0000000000000000 [Eh]
	 Same-Spin Energy          =      -0.3016582751214854 [Eh]
	 Opposite-Spin Energy      =      -0.9803659192036679 [Eh]
	 Correlation Energy        =      -1.2820241943251534 [Eh]
	 Total Energy              =    -307.2801173853879391 [Eh]

	 ================> DF-SCS-MP2 Energies <==================
	-----------------------------------------------------------
	 SCS Same-Spin Scale       =       0.3333333333333333 [-]
	 SCS Opposite-Spin Scale   =       1.2000000000000000 [-]
	 SCS Same-Spin Energy      =      -0.1005527583738285 [Eh]
	 SCS Opposite-Spin Energy  =      -1.1764391030444015 [Eh]
	 SCS Correlation Energy    =      -1.2769918614182298 [Eh]
	 SCS Total Energy          =    -307.2750850524810176 [Eh]
	-----------------------------------------------------------

  Dipole Moment: [D]
     X:     0.6737      Y:    -1.3900      Z:     0.5390     Total:     1.6360

*** Psi4 exiting successfully. Buy a developer a beer!
