                               Psi4 1.3.2 release

  ==> Input File <==

--------------------------------------------------------------------------
#psi4
#
memory 32 gb

molecule  {
0 1
  O       -1.5172650    -0.9302590     0.3397410
  O       -1.1248250     1.1536050    -0.4487800
  C        0.7353610    -0.1875570     0.3681900
  C        1.2675140    -1.2018710    -0.6496400
  C        1.5623690     1.0900120     0.3921910
  C       -0.7378281     0.2057866     0.0030099
  H        0.7409090    -0.6606070     1.3569650
  H        2.3072410    -1.4506340    -0.4222570
  H        1.2308120    -0.7800070    -1.6583810
  H        0.6786320    -2.1214010    -0.6338280
  H        1.5507090     1.5673140    -0.5898900
  H        2.5972890     0.8640450     0.6623340
  H        1.1628250     1.8055600     1.1144870
  H       -2.4138720    -0.6456040     0.0659830
units angstrom
no_reorient  #important for SAPT in psi4, default
symmetry c1  #important for SAPT in psi4, default
}

set PROPERTIES_ORIGIN ["COM"]
properties('MP2/aug-cc-pvtz', properties = ['dipole'])
--------------------------------------------------------------------------

    Molecular point group: c1
  Charge       = 0
  Multiplicity = 1
  Basis Set: AUG-CC-PVTZ
    Blend: AUG-CC-PVTZ
  Basis Set: (AUG-CC-PVTZ AUX)
    Blend: AUG-CC-PVTZ-JKFIT

    Orbital Energies [Eh]
    ---------------------

    Doubly Occupied:

       1A    -20.596465     2A    -20.568435     3A    -11.375856
       4A    -11.250330     5A    -11.226693     6A    -11.218807
       7A     -1.492998     8A     -1.372656     9A     -1.086014
      10A     -0.940894    11A     -0.874984    12A     -0.758692
      13A     -0.713428    14A     -0.699045    15A     -0.650628
      16A     -0.620137    17A     -0.600652    18A     -0.559225
      19A     -0.549216    20A     -0.534541    21A     -0.508051
      22A     -0.490206    23A     -0.487250    24A     -0.436095

  @DF-RHF Final Energy:  -305.98595585130903

   => Energetics <=

    Nuclear Repulsion Energy =            248.1293341002530326
    One-Electron Energy =                -909.0079791620355536
    Two-Electron Energy =                 354.8926892104735202
    Total Energy =                       -305.9859558513090292
  Basis Set: (AUG-CC-PVTZ AUX)
    Blend: AUG-CC-PVTZ-RI
    Molecular point group: c1

    Geometry (in Angstrom), charge = 0, multiplicity = 1:

       Center              X                  Y                   Z               Mass
    ------------   -----------------  -----------------  -----------------  -----------------
         O           -1.512551829656    -0.941802025242     0.345242995738    15.994914619570
         O           -1.120111829656     1.142061974758    -0.443278004262    15.994914619570
         C            0.740074170344    -0.199100025242     0.373691995738    12.000000000000
         C            1.272227170344    -1.213414025242    -0.644138004262    12.000000000000
         C            1.567082170344     1.078468974758     0.397692995738    12.000000000000
         C           -0.733114929656     0.194243574758     0.008511895738    12.000000000000
         H            0.745622170344    -0.672150025242     1.362466995738     1.007825032230
         H            2.311954170344    -1.462177025242    -0.416755004262     1.007825032230
         H            1.235525170344    -0.791550025242    -1.652879004262     1.007825032230
         H            0.683345170344    -2.132944025242    -0.628326004262     1.007825032230
         H            1.555422170344     1.555770974758    -0.584388004262     1.007825032230
         H            2.602002170344     0.852501974758     0.667835995738     1.007825032230
         H            1.167538170344     1.794016974758     1.119988995738     1.007825032230
         H           -2.409158829656    -0.657147025242     0.071484995738     1.007825032230

  Basis Set: AUG-CC-PVTZ
    Blend: AUG-CC-PVTZ
  Basis Set: (AUG-CC-PVTZ AUX)
    Blend: AUG-CC-PVTZ-JKFIT
	 Reference Energy          =    -305.9859558513090292 [Eh]
	 Singles Energy            =      -0.0000000000000000 [Eh]
	 Same-Spin Energy          =      -0.2999239497437675 [Eh]
	 Opposite-Spin Energy      =      -0.9773665598207721 [Eh]
	 Correlation Energy        =      -1.2772905095645397 [Eh]
	 Total Energy              =    -307.2632463608735520 [Eh]

	 ================> DF-SCS-MP2 Energies <==================
	-----------------------------------------------------------
	 SCS Same-Spin Scale       =       0.3333333333333333 [-]
	 SCS Opposite-Spin Scale   =       1.2000000000000000 [-]
	 SCS Same-Spin Energy      =      -0.0999746499145892 [Eh]
	 SCS Opposite-Spin Energy  =      -1.1728398717849264 [Eh]
	 SCS Correlation Energy    =      -1.2728145216995155 [Eh]
	 SCS Total Energy          =    -307.2587703730085309 [Eh]
	-----------------------------------------------------------

  Dipole Moment: [D]
     X:     0.5535      Y:    -0.7126      Z:     0.2702     Total:     0.9419

*** Psi4 exiting successfully. Buy a developer a beer!
