                               Psi4 1.3.2 release

  ==> Input File <==

--------------------------------------------------------------------------
#psi4
#
memory 32 gb

molecule  {
0 1
  O       -1.5172650    -0.9302590     0.3397410
  O       -1.1248250     1.1536050    -0.4487800
  C        0.7353610    -0.1875570     0.3681900
  C        1.2608113    -1.1653488    -0.6881351
  C        1.5623690     1.0900120     0.3921910
  C       -0.7032450     0.1210870     0.0433830
  H        0.7268601    -0.6282516     1.3717831
  H        2.3072410    -1.4506340    -0.4222570
  H        1.2308120    -0.7800070    -1.6583810
  H        0.6786320    -2.1214010    -0.6338280
  H        1.5507090     1.5673140    -0.5898900
  H        2.5972890     0.8640450     0.6623340
  H        1.1628250     1.8055600     1.1144870
  H       -2.4138720    -0.6456040     0.0659830
units angstrom
no_reorient  #important for SAPT in psi4, default
symmetry c1  #important for SAPT in psi4, default
}

set PROPERTIES_ORIGIN ["COM"]
properties('MP2/aug-cc-pvtz', properties = ['dipole'])
--------------------------------------------------------------------------

    Molecular point group: c1
  Charge       = 0
  Multiplicity = 1
  Basis Set: AUG-CC-PVTZ
    Blend: AUG-CC-PVTZ
  Basis Set: (AUG-CC-PVTZ AUX)
    Blend: AUG-CC-PVTZ-JKFIT

    Orbital Energies [Eh]
    ---------------------

    Doubly Occupied:

       1A    -20.614191     2A    -20.549873     3A    -11.384725
       4A    -11.253434     5A    -11.232319     6A    -11.220185
       7A     -1.458448     8A     -1.354826     9A     -1.097771
      10A     -0.943828    11A     -0.897682    12A     -0.773498
      13A     -0.705771    14A     -0.691856    15A     -0.640921
      16A     -0.611204    17A     -0.599648    18A     -0.565694
      19A     -0.548571    20A     -0.524359    21A     -0.499739
      22A     -0.492186    23A     -0.477201    24A     -0.444674

  @DF-RHF Final Energy:  -305.99466463216942

   => Energetics <=

    Nuclear Repulsion Energy =            247.9773653712751980
    One-Electron Energy =                -908.7788530630465402
    Two-Electron Energy =                 354.8068230596019816
    Total Energy =                       -305.9946646321694175
  Basis Set: (AUG-CC-PVTZ AUX)
    Blend: AUG-CC-PVTZ-RI
    Molecular point group: c1

    Geometry (in Angstrom), charge = 0, multiplicity = 1:

       Center              X                  Y                   Z               Mass
    ------------   -----------------  -----------------  -----------------  -----------------
         O           -1.516190638587    -0.935606623013     0.344817453226    15.994914619570
         O           -1.123750638587     1.148257376987    -0.443703546774    15.994914619570
         C            0.736435361413    -0.192904623013     0.373266453226    12.000000000000
         C            1.261885661413    -1.170696423013    -0.683058646774    12.000000000000
         C            1.563443361413     1.084664376987     0.397267453226    12.000000000000
         C           -0.702170638587     0.115739376987     0.048459453226    12.000000000000
         H            0.727934461413    -0.633599223013     1.376859553226     1.007825032230
         H            2.308315361413    -1.455981623013    -0.417180546774     1.007825032230
         H            1.231886361413    -0.785354623013    -1.653304546774     1.007825032230
         H            0.679706361413    -2.126748623013    -0.628751546774     1.007825032230
         H            1.551783361413     1.561966376987    -0.584813546774     1.007825032230
         H            2.598363361413     0.858697376987     0.667410453226     1.007825032230
         H            1.163899361413     1.800212376987     1.119563453226     1.007825032230
         H           -2.412797638587    -0.650951623013     0.071059453226     1.007825032230

  Basis Set: AUG-CC-PVTZ
    Blend: AUG-CC-PVTZ
  Basis Set: (AUG-CC-PVTZ AUX)
    Blend: AUG-CC-PVTZ-JKFIT
	 Reference Energy          =    -305.9946646321694175 [Eh]
	 Singles Energy            =      -0.0000000000000000 [Eh]
	 Same-Spin Energy          =      -0.3017324697320459 [Eh]
	 Opposite-Spin Energy      =      -0.9805557433321952 [Eh]
	 Correlation Energy        =      -1.2822882130642412 [Eh]
	 Total Energy              =    -307.2769528452336658 [Eh]

	 ================> DF-SCS-MP2 Energies <==================
	-----------------------------------------------------------
	 SCS Same-Spin Scale       =       0.3333333333333333 [-]
	 SCS Opposite-Spin Scale   =       1.2000000000000000 [-]
	 SCS Same-Spin Energy      =      -0.1005774899106820 [Eh]
	 SCS Opposite-Spin Energy  =      -1.1766668919986343 [Eh]
	 SCS Correlation Energy    =      -1.2772443819093162 [Eh]
	 SCS Total Energy          =    -307.2719090140787443 [Eh]
	-----------------------------------------------------------

  Dipole Moment: [D]
     X:     0.6678      Y:    -1.3756      Z:     0.5214     Total:     1.6156

*** Psi4 exiting successfully. Buy a developer a beer!
