                               Psi4 1.3.2 release

  ==> Input File <==

--------------------------------------------------------------------------
#psi4
#
memory 32 gb

molecule  {
0 1
  O       -1.5172650    -0.9302590     0.3397410
  O       -1.1248250     1.1536050    -0.4487800
  C        0.7353610    -0.1875570     0.3681900
  C        1.2675140    -1.2018710    -0.6496400
  C        1.5623690     1.0900120     0.3921910
  C       -0.6077687     0.1006031     0.0649395
  H        0.7409090    -0.6606070     1.3569650
  H        2.3072410    -1.4506340    -0.4222570
  H        1.2308120    -0.7800070    -1.6583810
  H        0.6786320    -2.1214010    -0.6338280
  H        1.5507090     1.5673140    -0.5898900
  H        2.5972890     0.8640450     0.6623340
  H        1.1628250     1.8055600     1.1144870
  H       -2.4138720    -0.6456040     0.0659830
units angstrom
no_reorient  #important for SAPT in psi4, default
symmetry c1  #important for SAPT in psi4, default
}

set PROPERTIES_ORIGIN ["COM"]
properties('MP2/aug-cc-pvtz', properties = ['dipole'])
--------------------------------------------------------------------------

    Molecular point group: c1
  Charge       = 0
  Multiplicity = 1
  Basis Set: AUG-CC-PVTZ
    Blend: AUG-CC-PVTZ
  Basis Set: (AUG-CC-PVTZ AUX)
    Blend: AUG-CC-PVTZ-JKFIT

    Orbital Energies [Eh]
    ---------------------

    Doubly Occupied:

       1A    -20.605069     2A    -20.545588     3A    -11.394241
       4A    -11.256010     5A    -11.240183     6A    -11.227262
       7A     -1.431202     8A     -1.317624     9A     -1.121876
      10A     -0.951958    11A     -0.916424    12A     -0.769961
      13A     -0.709347    14A     -0.679589    15A     -0.637716
      16A     -0.608912    17A     -0.587932    18A     -0.561294
      19A     -0.552584    20A     -0.532126    21A     -0.503501
      22A     -0.499702    23A     -0.459008    24A     -0.448391

  @DF-RHF Final Energy:  -305.97556685863498

   => Energetics <=

    Nuclear Repulsion Energy =            247.8573555492903608
    One-Electron Energy =                -908.5508467255921232
    Two-Electron Energy =                 354.7179243176668137
    Total Energy =                       -305.9755668586349771
  Basis Set: (AUG-CC-PVTZ AUX)
    Blend: AUG-CC-PVTZ-RI
    Molecular point group: c1

    Geometry (in Angstrom), charge = 0, multiplicity = 1:

       Center              X                  Y                   Z               Mass
    ------------   -----------------  -----------------  -----------------  -----------------
         O           -1.530276642122    -0.927467361142     0.336803078700    15.994914619570
         O           -1.137836642122     1.156396638858    -0.451717921300    15.994914619570
         C            0.722349357878    -0.184765361142     0.365252078700    12.000000000000
         C            1.254502357878    -1.199079361142    -0.652577921300    12.000000000000
         C            1.549357357878     1.092803638858     0.389253078700    12.000000000000
         C           -0.620780342122     0.103394738858     0.062001578700    12.000000000000
         H            0.727897357878    -0.657815361142     1.354027078700     1.007825032230
         H            2.294229357878    -1.447842361142    -0.425194921300     1.007825032230
         H            1.217800357878    -0.777215361142    -1.661318921300     1.007825032230
         H            0.665620357878    -2.118609361142    -0.636765921300     1.007825032230
         H            1.537697357878     1.570105638858    -0.592827921300     1.007825032230
         H            2.584277357878     0.866836638858     0.659396078700     1.007825032230
         H            1.149813357878     1.808351638858     1.111549078700     1.007825032230
         H           -2.426883642122    -0.642812361142     0.063045078700     1.007825032230

  Basis Set: AUG-CC-PVTZ
    Blend: AUG-CC-PVTZ
  Basis Set: (AUG-CC-PVTZ AUX)
    Blend: AUG-CC-PVTZ-JKFIT
	 Reference Energy          =    -305.9755668586349771 [Eh]
	 Singles Energy            =      -0.0000000000000000 [Eh]
	 Same-Spin Energy          =      -0.3042751647649380 [Eh]
	 Opposite-Spin Energy      =      -0.9854758446621432 [Eh]
	 Correlation Energy        =      -1.2897510094270812 [Eh]
	 Total Energy              =    -307.2653178680620840 [Eh]

	 ================> DF-SCS-MP2 Energies <==================
	-----------------------------------------------------------
	 SCS Same-Spin Scale       =       0.3333333333333333 [-]
	 SCS Opposite-Spin Scale   =       1.2000000000000000 [-]
	 SCS Same-Spin Energy      =      -0.1014250549216460 [Eh]
	 SCS Opposite-Spin Energy  =      -1.1825710135945717 [Eh]
	 SCS Correlation Energy    =      -1.2839960685162177 [Eh]
	 SCS Total Energy          =    -307.2595629271511939 [Eh]
	-----------------------------------------------------------

  Dipole Moment: [D]
     X:     1.2663      Y:    -1.4632      Z:     0.5898     Total:     2.0230

*** Psi4 exiting successfully. Buy a developer a beer!
