                               Psi4 1.3.2 release

  ==> Input File <==

--------------------------------------------------------------------------
#psi4
#
memory 32 gb

molecule  {
0 1
  O       -1.5172650    -0.9302590     0.3397410
  O       -1.1248250     1.1536050    -0.4487800
  C        0.7353610    -0.1875570     0.3681900
  C        1.2675140    -1.2018710    -0.6496400
  C        1.5623690     1.0900120     0.3921910
  C       -0.7032450     0.1210870     0.0433830
  H        0.7409090    -0.6606070     1.3569650
  H        2.3072410    -1.4506340    -0.4222570
  H        1.2308120    -0.7800070    -1.6583810
  H        0.6786320    -2.1214010    -0.6338280
  H        1.5507090     1.5673140    -0.5898900
  H        2.5972890     0.8640450     0.6623340
  H        1.1628250     1.8055600     1.1144870
  H       -2.5053875    -0.6165496     0.0380409
units angstrom
no_reorient  #important for SAPT in psi4, default
symmetry c1  #important for SAPT in psi4, default
}

set PROPERTIES_ORIGIN ["COM"]
properties('MP2/aug-cc-pvtz', properties = ['dipole'])
--------------------------------------------------------------------------

    Molecular point group: c1
  Charge       = 0
  Multiplicity = 1
  Basis Set: AUG-CC-PVTZ
    Blend: AUG-CC-PVTZ
  Basis Set: (AUG-CC-PVTZ AUX)
    Blend: AUG-CC-PVTZ-JKFIT

    Orbital Energies [Eh]
    ---------------------

    Doubly Occupied:

       1A    -20.619655     2A    -20.548548     3A    -11.383598
       4A    -11.252696     5A    -11.230962     6A    -11.220400
       7A     -1.446681     8A     -1.345948     9A     -1.095522
      10A     -0.943499    11A     -0.888564    12A     -0.762407
      13A     -0.695874    14A     -0.688279    15A     -0.639233
      16A     -0.609042    17A     -0.595189    18A     -0.559498
      19A     -0.548332    20A     -0.522953    21A     -0.497395
      22A     -0.491558    23A     -0.476349    24A     -0.445085

  @DF-RHF Final Energy:  -305.98515100915870

   => Energetics <=

    Nuclear Repulsion Energy =            247.2630538967995903
    One-Electron Energy =                -907.4818779733280962
    Two-Electron Energy =                 354.2336730673698639
    Total Energy =                       -305.9851510091586988
  Basis Set: (AUG-CC-PVTZ AUX)
    Blend: AUG-CC-PVTZ-RI
    Molecular point group: c1

    Geometry (in Angstrom), charge = 0, multiplicity = 1:

       Center              X                  Y                   Z               Mass
    ------------   -----------------  -----------------  -----------------  -----------------
         O           -1.516217436501    -0.930591506077     0.340060669086    15.994914619570
         O           -1.123777436501     1.153272493923    -0.448460330914    15.994914619570
         C            0.736408563499    -0.187889506077     0.368509669086    12.000000000000
         C            1.268561563499    -1.202203506077    -0.649320330914    12.000000000000
         C            1.563416563499     1.089679493923     0.392510669086    12.000000000000
         C           -0.702197436501     0.120754493923     0.043702669086    12.000000000000
         H            0.741956563499    -0.660939506077     1.357284669086     1.007825032230
         H            2.308288563499    -1.450966506077    -0.421937330914     1.007825032230
         H            1.231859563499    -0.780339506077    -1.658061330914     1.007825032230
         H            0.679679563499    -2.121733506077    -0.633508330914     1.007825032230
         H            1.551756563499     1.566981493923    -0.589570330914     1.007825032230
         H            2.598336563499     0.863712493923     0.662653669086     1.007825032230
         H            1.163872563499     1.805227493923     1.114806669086     1.007825032230
         H           -2.504339936501    -0.616882106077     0.038360569086     1.007825032230

  Basis Set: AUG-CC-PVTZ
    Blend: AUG-CC-PVTZ
  Basis Set: (AUG-CC-PVTZ AUX)
    Blend: AUG-CC-PVTZ-JKFIT
	 Reference Energy          =    -305.9851510091586988 [Eh]
	 Singles Energy            =      -0.0000000000000000 [Eh]
	 Same-Spin Energy          =      -0.3029419189489053 [Eh]
	 Opposite-Spin Energy      =      -0.9835141652359460 [Eh]
	 Correlation Energy        =      -1.2864560841848514 [Eh]
	 Total Energy              =    -307.2716070933435617 [Eh]

	 ================> DF-SCS-MP2 Energies <==================
	-----------------------------------------------------------
	 SCS Same-Spin Scale       =       0.3333333333333333 [-]
	 SCS Opposite-Spin Scale   =       1.2000000000000000 [-]
	 SCS Same-Spin Energy      =      -0.1009806396496351 [Eh]
	 SCS Opposite-Spin Energy  =      -1.1802169982831352 [Eh]
	 SCS Correlation Energy    =      -1.2811976379327703 [Eh]
	 SCS Total Energy          =    -307.2663486470914904 [Eh]
	-----------------------------------------------------------

  Dipole Moment: [D]
     X:     0.5611      Y:    -1.3761      Z:     0.5113     Total:     1.5716

*** Psi4 exiting successfully. Buy a developer a beer!
