                               Psi4 1.3.2 release

  ==> Input File <==

--------------------------------------------------------------------------
#psi4
#
memory 32 gb

molecule  {
0 1
  O       -1.5172650    -0.9302590     0.3397410
  O       -1.1248250     1.1536050    -0.4487800
  C        0.7353610    -0.1875570     0.3681900
  C        1.2675140    -1.2018710    -0.6496400
  C        1.5623690     1.0900120     0.3921910
  C       -0.5122924     0.0801193     0.0864961
  H        0.7409090    -0.6606070     1.3569650
  H        2.3072410    -1.4506340    -0.4222570
  H        1.2308120    -0.7800070    -1.6583810
  H        0.6786320    -2.1214010    -0.6338280
  H        1.5507090     1.5673140    -0.5898900
  H        2.5972890     0.8640450     0.6623340
  H        1.1628250     1.8055600     1.1144870
  H       -2.4138720    -0.6456040     0.0659830
units angstrom
no_reorient  #important for SAPT in psi4, default
symmetry c1  #important for SAPT in psi4, default
}

set PROPERTIES_ORIGIN ["COM"]
properties('MP2/aug-cc-pvtz', properties = ['dipole'])
--------------------------------------------------------------------------

    Molecular point group: c1
  Charge       = 0
  Multiplicity = 1
  Basis Set: AUG-CC-PVTZ
    Blend: AUG-CC-PVTZ
  Basis Set: (AUG-CC-PVTZ AUX)
    Blend: AUG-CC-PVTZ-JKFIT

    Orbital Energies [Eh]
    ---------------------

    Doubly Occupied:

       1A    -20.594434     2A    -20.539054     3A    -11.401712
       4A    -11.256701     5A    -11.250738     6A    -11.234842
       7A     -1.403367     8A     -1.281731     9A     -1.152280
      10A     -0.960964    11A     -0.937421    12A     -0.763642
      13A     -0.721375    14A     -0.662311    15A     -0.642611
      16A     -0.609781    17A     -0.572548    18A     -0.562873
      19A     -0.549413    20A     -0.542543    21A     -0.508473
      22A     -0.504111    23A     -0.438199    24A     -0.437852

  @DF-RHF Final Energy:  -305.92006051745733

   => Energetics <=

    Nuclear Repulsion Energy =            248.0524912062170984
    One-Electron Energy =                -908.8871525057410281
    Two-Electron Energy =                 354.9146007820666568
    Total Energy =                       -305.9200605174573298
  Basis Set: (AUG-CC-PVTZ AUX)
    Blend: AUG-CC-PVTZ-RI
    Molecular point group: c1

    Geometry (in Angstrom), charge = 0, multiplicity = 1:

       Center              X                  Y                   Z               Mass
    ------------   -----------------  -----------------  -----------------  -----------------
         O           -1.543288385313    -0.924675778883     0.333865292639    15.994914619570
         O           -1.150848385313     1.159188221117    -0.454655707361    15.994914619570
         C            0.709337614687    -0.181973778883     0.362314292639    12.000000000000
         C            1.241490614687    -1.196287778883    -0.655515707361    12.000000000000
         C            1.536345614687     1.095595221117     0.386315292639    12.000000000000
         C           -0.538315785313     0.085702521117     0.080620392639    12.000000000000
         H            0.714885614687    -0.655023778883     1.351089292639     1.007825032230
         H            2.281217614687    -1.445050778883    -0.428132707361     1.007825032230
         H            1.204788614687    -0.774423778883    -1.664256707361     1.007825032230
         H            0.652608614687    -2.115817778883    -0.639703707361     1.007825032230
         H            1.524685614687     1.572897221117    -0.595765707361     1.007825032230
         H            2.571265614687     0.869628221117     0.656458292639     1.007825032230
         H            1.136801614687     1.811143221117     1.108611292639     1.007825032230
         H           -2.439895385313    -0.640020778883     0.060107292639     1.007825032230

  Basis Set: AUG-CC-PVTZ
    Blend: AUG-CC-PVTZ
  Basis Set: (AUG-CC-PVTZ AUX)
    Blend: AUG-CC-PVTZ-JKFIT
	 Reference Energy          =    -305.9200605174573298 [Eh]
	 Singles Energy            =      -0.0000000000000000 [Eh]
	 Same-Spin Energy          =      -0.3080047659733904 [Eh]
	 Opposite-Spin Energy      =      -0.9925367564276242 [Eh]
	 Correlation Energy        =      -1.3005415224010146 [Eh]
	 Total Energy              =    -307.2206020398583632 [Eh]

	 ================> DF-SCS-MP2 Energies <==================
	-----------------------------------------------------------
	 SCS Same-Spin Scale       =       0.3333333333333333 [-]
	 SCS Opposite-Spin Scale   =       1.2000000000000000 [-]
	 SCS Same-Spin Energy      =      -0.1026682553244635 [Eh]
	 SCS Opposite-Spin Energy  =      -1.1910441077131491 [Eh]
	 SCS Correlation Energy    =      -1.2937123630376126 [Eh]
	 SCS Total Energy          =    -307.2137728804949575 [Eh]
	-----------------------------------------------------------

  Dipole Moment: [D]
     X:     1.9087      Y:    -1.5164      Z:     0.6350     Total:     2.5191

*** Psi4 exiting successfully. Buy a developer a beer!
