                               Psi4 1.3.2 release

  ==> Input File <==

--------------------------------------------------------------------------
#psi4
#
memory 32 gb

molecule  {
0 1
  O       -1.5172650    -0.9302590     0.3397410
  O       -1.1248250     1.1536050    -0.4487800
  C        0.7353610    -0.1875570     0.3681900
  C        1.2555892    -1.2019683    -0.6556898
  C        1.5623690     1.0900120     0.3921910
  C       -0.7026626     0.1127975     0.0331927
  H        0.7409090    -0.6606070     1.3569650
  H        2.3072410    -1.4506340    -0.4222570
  H        1.2308120    -0.7800070    -1.6583810
  H        0.6786320    -2.1214010    -0.6338280
  H        1.5507090     1.5673140    -0.5898900
  H        2.5972890     0.8640450     0.6623340
  H        1.1628250     1.8055600     1.1144870
  H       -2.4138720    -0.6456040     0.0659830
units angstrom
no_reorient  #important for SAPT in psi4, default
symmetry c1  #important for SAPT in psi4, default
}

set PROPERTIES_ORIGIN ["COM"]
properties('MP2/aug-cc-pvtz', properties = ['dipole'])
--------------------------------------------------------------------------

    Molecular point group: c1
  Charge       = 0
  Multiplicity = 1
  Basis Set: AUG-CC-PVTZ
    Blend: AUG-CC-PVTZ
  Basis Set: (AUG-CC-PVTZ AUX)
    Blend: AUG-CC-PVTZ-JKFIT

    Orbital Energies [Eh]
    ---------------------

    Doubly Occupied:

       1A    -20.615435     2A    -20.549363     3A    -11.385335
       4A    -11.253141     5A    -11.231580     6A    -11.220959
       7A     -1.459463     8A     -1.353846     9A     -1.097344
      10A     -0.944560    11A     -0.896980    12A     -0.774143
      13A     -0.705926    14A     -0.692128    15A     -0.641371
      16A     -0.612232    17A     -0.600780    18A     -0.561085
      19A     -0.547700    20A     -0.525000    21A     -0.499664
      22A     -0.493338    23A     -0.477694    24A     -0.445497

  @DF-RHF Final Energy:  -305.99788884297635

   => Energetics <=

    Nuclear Repulsion Energy =            247.8879695044382458
    One-Electron Energy =                -908.6025880796790943
    Two-Electron Energy =                 354.7167297322644686
    Total Energy =                       -305.9978888429763515
  Basis Set: (AUG-CC-PVTZ AUX)
    Blend: AUG-CC-PVTZ-RI
    Molecular point group: c1

    Geometry (in Angstrom), charge = 0, multiplicity = 1:

       Center              X                  Y                   Z               Mass
    ------------   -----------------  -----------------  -----------------  -----------------
         O           -1.515719128975    -0.929115983455     0.341954091597    15.994914619570
         O           -1.123279128975     1.154748016545    -0.446566908403    15.994914619570
         C            0.736906871025    -0.186413983455     0.370403091597    12.000000000000
         C            1.257135071025    -1.200825283455    -0.653476708403    12.000000000000
         C            1.563914871025     1.091155016545     0.394404091597    12.000000000000
         C           -0.701116728975     0.113940516545     0.035405791597    12.000000000000
         H            0.742454871025    -0.659463983455     1.359178091597     1.007825032230
         H            2.308786871025    -1.449490983455    -0.420043908403     1.007825032230
         H            1.232357871025    -0.778863983455    -1.656167908403     1.007825032230
         H            0.680177871025    -2.120257983455    -0.631614908403     1.007825032230
         H            1.552254871025     1.568457016545    -0.587676908403     1.007825032230
         H            2.598834871025     0.865188016545     0.664547091597     1.007825032230
         H            1.164370871025     1.806703016545     1.116700091597     1.007825032230
         H           -2.412326128975    -0.644460983455     0.068196091597     1.007825032230

  Basis Set: AUG-CC-PVTZ
    Blend: AUG-CC-PVTZ
  Basis Set: (AUG-CC-PVTZ AUX)
    Blend: AUG-CC-PVTZ-JKFIT
	 Reference Energy          =    -305.9978888429763515 [Eh]
	 Singles Energy            =      -0.0000000000000000 [Eh]
	 Same-Spin Energy          =      -0.3017170688379935 [Eh]
	 Opposite-Spin Energy      =      -0.9804215605887854 [Eh]
	 Correlation Energy        =      -1.2821386294267789 [Eh]
	 Total Energy              =    -307.2800274724031055 [Eh]

	 ================> DF-SCS-MP2 Energies <==================
	-----------------------------------------------------------
	 SCS Same-Spin Scale       =       0.3333333333333333 [-]
	 SCS Opposite-Spin Scale   =       1.2000000000000000 [-]
	 SCS Same-Spin Energy      =      -0.1005723562793312 [Eh]
	 SCS Opposite-Spin Energy  =      -1.1765058727065425 [Eh]
	 SCS Correlation Energy    =      -1.2770782289858738 [Eh]
	 SCS Total Energy          =    -307.2749670719622372 [Eh]
	-----------------------------------------------------------

  Dipole Moment: [D]
     X:     0.6637      Y:    -1.4183      Z:     0.5347     Total:     1.6547

*** Psi4 exiting successfully. Buy a developer a beer!
