                               Psi4 1.4a3.dev225

  ==> Input File <==

--------------------------------------------------------------------------
#psi4
#
memory 32 gb

molecule  {
0 1
  O       -1.6617030     0.7577680    -0.4073030
  O       -1.1227790    -1.2129920     0.5672640
  C        0.6404470     0.1718450    -0.3932210
  C        1.0928880     1.3538930     0.4742710
  C        1.5672530    -1.0291100    -0.2532030
  C       -0.7276419    -0.1916733    -0.0354615
  H        0.6138910     0.5049790    -1.4379290
  H        2.1115010     1.6456430     0.2036890
  H        1.0897110     1.0707860     1.5315760
  H        0.4361920     2.2162520     0.3415930
  H        1.5885520    -1.3743970     0.7830710
  H        2.5826960    -0.7552260    -0.5531760
  H        1.2333040    -1.8624340    -0.8759310
  H       -2.5365610     0.4411560    -0.1004010
units angstrom
no_reorient  #important for SAPT in psi4, default
symmetry c1  #important for SAPT in psi4, default
}

set PROPERTIES_ORIGIN ["COM"]
properties('MP2/aug-cc-pvtz', properties = ['dipole'])
--------------------------------------------------------------------------

    Molecular point group: c1
  Charge       = 0
  Multiplicity = 1
  Basis Set: AUG-CC-PVTZ
    Blend: AUG-CC-PVTZ
  Basis Set: (AUG-CC-PVTZ AUX)
    Blend: AUG-CC-PVTZ-JKFIT

    Orbital Energies [Eh]
    ---------------------

    Doubly Occupied:

       1A    -20.609602     2A    -20.548479     3A    -11.390456
       4A    -11.255875     5A    -11.235862     6A    -11.224145
       7A     -1.444139     8A     -1.335866     9A     -1.107683
      10A     -0.947426    11A     -0.906009    12A     -0.772190
      13A     -0.704512    14A     -0.686980    15A     -0.638322
      16A     -0.608014    17A     -0.595600    18A     -0.561243
      19A     -0.550882    20A     -0.528117    21A     -0.500376
      22A     -0.496244    23A     -0.469169    24A     -0.449496

  @DF-RHF Final Energy:  -305.99067045994866

   => Energetics <=

    Nuclear Repulsion Energy =            247.5110810300509172
    One-Electron Energy =                -907.8701304403754193
    Two-Electron Energy =                 354.3683789503758135
    Total Energy =                       -305.9906704599486602
  Basis Set: (AUG-CC-PVTZ AUX)
    Blend: AUG-CC-PVTZ-RI
    Molecular point group: c1

    Geometry (in Angstrom), charge = 0, multiplicity = 1:

       Center              X                  Y                   Z               Mass
    ------------   -----------------  -----------------  -----------------  -----------------
         O           -1.588028667056     0.777305106161    -0.406835543096    15.994914619570
         O           -1.049104667056    -1.193454893839     0.567731456904    15.994914619570
         C            0.714121332944     0.191382106161    -0.392753543096    12.000000000000
         C            1.166562332944     1.373430106161     0.474738456904    12.000000000000
         C            1.640927332944    -1.009572893839    -0.252735543096    12.000000000000
         C           -0.653967567056    -0.172136193839    -0.034994043096    12.000000000000
         H            0.687565332944     0.524516106161    -1.437461543096     1.007825032230
         H            2.185175332944     1.665180106161     0.204156456904     1.007825032230
         H            1.163385332944     1.090323106161     1.532043456904     1.007825032230
         H            0.509866332944     2.235789106161     0.342060456904     1.007825032230
         H            1.662226332944    -1.354859893839     0.783538456904     1.007825032230
         H            2.656370332944    -0.735688893839    -0.552708543096     1.007825032230
         H            1.306978332944    -1.842896893839    -0.875463543096     1.007825032230
         H           -2.462886667056     0.460693106161    -0.099933543096     1.007825032230

  Basis Set: AUG-CC-PVTZ
    Blend: AUG-CC-PVTZ
  Basis Set: (AUG-CC-PVTZ AUX)
    Blend: AUG-CC-PVTZ-JKFIT
	 Reference Energy          =    -305.9906704599486602 [Eh]
	 Singles Energy            =      -0.0000000000000000 [Eh]
	 Same-Spin Energy          =      -0.3027598789104217 [Eh]
	 Opposite-Spin Energy      =      -0.9826936201331107 [Eh]
	 Correlation Energy        =      -1.2854534990435325 [Eh]
	 Total Energy              =    -307.2761239589921729 [Eh]

	 ================> DF-SCS-MP2 Energies <==================
	-----------------------------------------------------------
	 SCS Same-Spin Scale       =       0.3333333333333333 [-]
	 SCS Opposite-Spin Scale   =       1.2000000000000000 [-]
	 SCS Same-Spin Energy      =      -0.1009199596368072 [Eh]
	 SCS Opposite-Spin Energy  =      -1.1792323441597328 [Eh]
	 SCS Correlation Energy    =      -1.2801523037965401 [Eh]
	 SCS Total Energy          =    -307.2708227637451728 [Eh]
	-----------------------------------------------------------

  Dipole Moment: [D]
     X:     0.8626      Y:     1.4349      Z:    -0.7143     Total:     1.8202

*** Psi4 exiting successfully. Buy a developer a beer!
