                               Psi4 1.3.2 release

  ==> Input File <==

--------------------------------------------------------------------------
#psi4
#
memory 32 gb

molecule  {
0 1
  O       -1.5078297    -0.9364381     0.3434985
  O       -1.1248250     1.1536050    -0.4487800
  C        0.7317951    -0.1995052     0.3723639
  C        1.2675140    -1.2018710    -0.6496400
  C        1.5623690     1.0900120     0.3921910
  C       -0.7032450     0.1210870     0.0433830
  H        0.7409090    -0.6606070     1.3569650
  H        2.3072410    -1.4506340    -0.4222570
  H        1.2308120    -0.7800070    -1.6583810
  H        0.6786320    -2.1214010    -0.6338280
  H        1.5507090     1.5673140    -0.5898900
  H        2.5972890     0.8640450     0.6623340
  H        1.1628250     1.8055600     1.1144870
  H       -2.4138720    -0.6456040     0.0659830
units angstrom
no_reorient  #important for SAPT in psi4, default
symmetry c1  #important for SAPT in psi4, default
}

set PROPERTIES_ORIGIN ["COM"]
properties('MP2/aug-cc-pvtz', properties = ['dipole'])
--------------------------------------------------------------------------

    Molecular point group: c1
  Charge       = 0
  Multiplicity = 1
  Basis Set: AUG-CC-PVTZ
    Blend: AUG-CC-PVTZ
  Basis Set: (AUG-CC-PVTZ AUX)
    Blend: AUG-CC-PVTZ-JKFIT

    Orbital Energies [Eh]
    ---------------------

    Doubly Occupied:

       1A    -20.615698     2A    -20.551339     3A    -11.385578
       4A    -11.252127     5A    -11.231142     6A    -11.220854
       7A     -1.457666     8A     -1.355208     9A     -1.096158
      10A     -0.942969    11A     -0.896119    12A     -0.771470
      13A     -0.705445    14A     -0.692379    15A     -0.641347
      16A     -0.610563    17A     -0.601063    18A     -0.560267
      19A     -0.548980    20A     -0.525434    21A     -0.495820
      22A     -0.494693    23A     -0.478841    24A     -0.447071

  @DF-RHF Final Energy:  -305.99703390978033

   => Energetics <=

    Nuclear Repulsion Energy =            247.7734262068830446
    One-Electron Energy =                -908.3844573515864340
    Two-Electron Energy =                 354.6139972349230334
    Total Energy =                       -305.9970339097803276
  Basis Set: (AUG-CC-PVTZ AUX)
    Blend: AUG-CC-PVTZ-RI
    Molecular point group: c1

    Geometry (in Angstrom), charge = 0, multiplicity = 1:

       Center              X                  Y                   Z               Mass
    ------------   -----------------  -----------------  -----------------  -----------------
         O           -1.509057572065    -0.933687280266     0.342246963836    15.994914619570
         O           -1.126052872065     1.156355819734    -0.450031536164    15.994914619570
         C            0.730567227935    -0.196754380266     0.371112363836    12.000000000000
         C            1.266286127935    -1.199120180266    -0.650891536164    12.000000000000
         C            1.561141127935     1.092762819734     0.390939463836    12.000000000000
         C           -0.704472872065     0.123837819734     0.042131463836    12.000000000000
         H            0.739681127935    -0.657856180266     1.355713463836     1.007825032230
         H            2.306013127935    -1.447883180266    -0.423508536164     1.007825032230
         H            1.229584127935    -0.777256180266    -1.659632536164     1.007825032230
         H            0.677404127935    -2.118650180266    -0.635079536164     1.007825032230
         H            1.549481127935     1.570064819734    -0.591141536164     1.007825032230
         H            2.596061127935     0.866795819734     0.661082463836     1.007825032230
         H            1.161597127935     1.808310819734     1.113235463836     1.007825032230
         H           -2.415099872065    -0.642853180266     0.064731463836     1.007825032230

  Basis Set: AUG-CC-PVTZ
    Blend: AUG-CC-PVTZ
  Basis Set: (AUG-CC-PVTZ AUX)
    Blend: AUG-CC-PVTZ-JKFIT
	 Reference Energy          =    -305.9970339097803276 [Eh]
	 Singles Energy            =      -0.0000000000000000 [Eh]
	 Same-Spin Energy          =      -0.3018599814702138 [Eh]
	 Opposite-Spin Energy      =      -0.9808615283949407 [Eh]
	 Correlation Energy        =      -1.2827215098651545 [Eh]
	 Total Energy              =    -307.2797554196454826 [Eh]

	 ================> DF-SCS-MP2 Energies <==================
	-----------------------------------------------------------
	 SCS Same-Spin Scale       =       0.3333333333333333 [-]
	 SCS Opposite-Spin Scale   =       1.2000000000000000 [-]
	 SCS Same-Spin Energy      =      -0.1006199938234046 [Eh]
	 SCS Opposite-Spin Energy  =      -1.1770338340739288 [Eh]
	 SCS Correlation Energy    =      -1.2776538278973333 [Eh]
	 SCS Total Energy          =    -307.2746877376776524 [Eh]
	-----------------------------------------------------------

  Dipole Moment: [D]
     X:     0.6410      Y:    -1.3876      Z:     0.5297     Total:     1.6177

*** Psi4 exiting successfully. Buy a developer a beer!
