                               Psi4 1.4a3.dev225

  ==> Input File <==

--------------------------------------------------------------------------
#psi4
#
memory 32 gb

molecule  {
0 1
  O       -1.6617030     0.7577680    -0.4073030
  O       -1.1227790    -1.2129920     0.5672640
  C        0.6404470     0.1718450    -0.3932210
  C        1.0928880     1.3538930     0.4742710
  C        1.5672530    -1.0291100    -0.2532030
  C       -0.7932320    -0.2091015    -0.0183094
  H        0.6138910     0.5049790    -1.4379290
  H        2.1115010     1.6456430     0.2036890
  H        1.0897110     1.0707860     1.5315760
  H        0.4361920     2.2162520     0.3415930
  H        1.5885520    -1.3743970     0.7830710
  H        2.5826960    -0.7552260    -0.5531760
  H        1.2333040    -1.8624340    -0.8759310
  H       -2.5365610     0.4411560    -0.1004010
units angstrom
no_reorient  #important for SAPT in psi4, default
symmetry c1  #important for SAPT in psi4, default
}

set PROPERTIES_ORIGIN ["COM"]
properties('MP2/aug-cc-pvtz', properties = ['dipole'])
--------------------------------------------------------------------------

    Molecular point group: c1
  Charge       = 0
  Multiplicity = 1
  Basis Set: AUG-CC-PVTZ
    Blend: AUG-CC-PVTZ
  Basis Set: (AUG-CC-PVTZ AUX)
    Blend: AUG-CC-PVTZ-JKFIT

    Orbital Energies [Eh]
    ---------------------

    Doubly Occupied:

       1A    -20.616029     2A    -20.551731     3A    -11.384449
       4A    -11.253085     5A    -11.230217     6A    -11.219854
       7A     -1.463315     8A     -1.362399     9A     -1.091913
      10A     -0.942229    11A     -0.893122    12A     -0.773545
      13A     -0.706976    14A     -0.692138    15A     -0.643105
      16A     -0.611604    17A     -0.601718    18A     -0.560286
      19A     -0.548226    20A     -0.525948    21A     -0.497141
      22A     -0.491243    23A     -0.482001    24A     -0.444234

  @DF-RHF Final Energy:  -305.99904212190563

   => Energetics <=

    Nuclear Repulsion Energy =            247.5190411679570843
    One-Electron Energy =                -907.8631484779047014
    Two-Electron Energy =                 354.3450651880419855
    Total Energy =                       -305.9990421219056316
  Basis Set: (AUG-CC-PVTZ AUX)
    Blend: AUG-CC-PVTZ-RI
    Molecular point group: c1

    Geometry (in Angstrom), charge = 0, multiplicity = 1:

       Center              X                  Y                   Z               Mass
    ------------   -----------------  -----------------  -----------------  -----------------
         O           -1.579089888143     0.779680263793    -0.409173073147    15.994914619570
         O           -1.040165888143    -1.191079736207     0.565393926853    15.994914619570
         C            0.723060111857     0.193757263793    -0.395091073147    12.000000000000
         C            1.175501111857     1.375805263793     0.472400926853    12.000000000000
         C            1.649866111857    -1.007197736207    -0.255073073147    12.000000000000
         C           -0.710618888143    -0.187189236207    -0.020179473147    12.000000000000
         H            0.696504111857     0.526891263793    -1.439799073147     1.007825032230
         H            2.194114111857     1.667555263793     0.201818926853     1.007825032230
         H            1.172324111857     1.092698263793     1.529705926853     1.007825032230
         H            0.518805111857     2.238164263793     0.339722926853     1.007825032230
         H            1.671165111857    -1.352484736207     0.781200926853     1.007825032230
         H            2.665309111857    -0.733313736207    -0.555046073147     1.007825032230
         H            1.315917111857    -1.840521736207    -0.877801073147     1.007825032230
         H           -2.453947888143     0.463068263793    -0.102271073147     1.007825032230

  Basis Set: AUG-CC-PVTZ
    Blend: AUG-CC-PVTZ
  Basis Set: (AUG-CC-PVTZ AUX)
    Blend: AUG-CC-PVTZ-JKFIT
	 Reference Energy          =    -305.9990421219056316 [Eh]
	 Singles Energy            =      -0.0000000000000000 [Eh]
	 Same-Spin Energy          =      -0.3012295582526486 [Eh]
	 Opposite-Spin Energy      =      -0.9796621692848291 [Eh]
	 Correlation Energy        =      -1.2808917275374778 [Eh]
	 Total Energy              =    -307.2799338494431254 [Eh]

	 ================> DF-SCS-MP2 Energies <==================
	-----------------------------------------------------------
	 SCS Same-Spin Scale       =       0.3333333333333333 [-]
	 SCS Opposite-Spin Scale   =       1.2000000000000000 [-]
	 SCS Same-Spin Energy      =      -0.1004098527508829 [Eh]
	 SCS Opposite-Spin Energy  =      -1.1755946031417948 [Eh]
	 SCS Correlation Energy    =      -1.2760044558926775 [Eh]
	 SCS Total Energy          =    -307.2750465777983209 [Eh]
	-----------------------------------------------------------

  Dipole Moment: [D]
     X:     0.4579      Y:     1.3497      Z:    -0.6596     Total:     1.5705

*** Psi4 exiting successfully. Buy a developer a beer!
