                               Psi4 1.3.2 release

  ==> Input File <==

--------------------------------------------------------------------------
#psi4
#
memory 32 gb

molecule  {
0 1
  O       -1.5172650    -0.9302590     0.3397410
  O       -1.1248250     1.1536050    -0.4487800
  C        0.7353610    -0.1875570     0.3681900
  C        1.2675140    -1.2018710    -0.6496400
  C        1.5623690     1.0900120     0.3921910
  C       -0.5837358     0.2754388    -0.0001264
  H        0.7409090    -0.6606070     1.3569650
  H        2.3072410    -1.4506340    -0.4222570
  H        1.2308120    -0.7800070    -1.6583810
  H        0.6786320    -2.1214010    -0.6338280
  H        1.5507090     1.5673140    -0.5898900
  H        2.5972890     0.8640450     0.6623340
  H        1.1628250     1.8055600     1.1144870
  H       -2.4138720    -0.6456040     0.0659830
units angstrom
no_reorient  #important for SAPT in psi4, default
symmetry c1  #important for SAPT in psi4, default
}

set PROPERTIES_ORIGIN ["COM"]
properties('MP2/aug-cc-pvtz', properties = ['dipole'])
--------------------------------------------------------------------------

    Molecular point group: c1
  Charge       = 0
  Multiplicity = 1
  Basis Set: AUG-CC-PVTZ
    Blend: AUG-CC-PVTZ
  Basis Set: (AUG-CC-PVTZ AUX)
    Blend: AUG-CC-PVTZ-JKFIT

    Orbital Energies [Eh]
    ---------------------

    Doubly Occupied:

       1A    -20.583765     2A    -20.551277     3A    -11.386816
       4A    -11.261039     5A    -11.237566     6A    -11.230610
       7A     -1.491018     8A     -1.306278     9A     -1.118524
      10A     -0.953827    11A     -0.896101    12A     -0.754298
      13A     -0.707429    14A     -0.690102    15A     -0.651430
      16A     -0.612152    17A     -0.596426    18A     -0.564439
      19A     -0.554733    20A     -0.538570    21A     -0.505456
      22A     -0.501324    23A     -0.473119    24A     -0.437504

  @DF-RHF Final Energy:  -305.96111447794715

   => Energetics <=

    Nuclear Repulsion Energy =            248.3394656888565351
    One-Electron Energy =                -909.3935499003373479
    Two-Electron Energy =                 355.0929697335336641
    Total Energy =                       -305.9611144779471488
  Basis Set: (AUG-CC-PVTZ AUX)
    Blend: AUG-CC-PVTZ-RI
    Molecular point group: c1

    Geometry (in Angstrom), charge = 0, multiplicity = 1:

       Center              X                  Y                   Z               Mass
    ------------   -----------------  -----------------  -----------------  -----------------
         O           -1.533551904390    -0.951294397057     0.345670418357    15.994914619570
         O           -1.141111904390     1.132569602943    -0.442850581643    15.994914619570
         C            0.719074095610    -0.208592397057     0.374119418357    12.000000000000
         C            1.251227095610    -1.222906397057    -0.643710581643    12.000000000000
         C            1.546082095610     1.068976602943     0.398120418357    12.000000000000
         C           -0.600022704390     0.254403402943     0.005803018357    12.000000000000
         H            0.724622095610    -0.681642397057     1.362894418357     1.007825032230
         H            2.290954095610    -1.471669397057    -0.416327581643     1.007825032230
         H            1.214525095610    -0.801042397057    -1.652451581643     1.007825032230
         H            0.662345095610    -2.142436397057    -0.627898581643     1.007825032230
         H            1.534422095610     1.546278602943    -0.583960581643     1.007825032230
         H            2.581002095610     0.843009602943     0.668263418357     1.007825032230
         H            1.146538095610     1.784524602943     1.120416418357     1.007825032230
         H           -2.430158904390    -0.666639397057     0.071912418357     1.007825032230

  Basis Set: AUG-CC-PVTZ
    Blend: AUG-CC-PVTZ
  Basis Set: (AUG-CC-PVTZ AUX)
    Blend: AUG-CC-PVTZ-JKFIT
	 Reference Energy          =    -305.9611144779471488 [Eh]
	 Singles Energy            =      -0.0000000000000000 [Eh]
	 Same-Spin Energy          =      -0.3023620280109017 [Eh]
	 Opposite-Spin Energy      =      -0.9826056408981959 [Eh]
	 Correlation Energy        =      -1.2849676689090976 [Eh]
	 Total Energy              =    -307.2460821468562244 [Eh]

	 ================> DF-SCS-MP2 Energies <==================
	-----------------------------------------------------------
	 SCS Same-Spin Scale       =       0.3333333333333333 [-]
	 SCS Opposite-Spin Scale   =       1.2000000000000000 [-]
	 SCS Same-Spin Energy      =      -0.1007873426703006 [Eh]
	 SCS Opposite-Spin Energy  =      -1.1791267690778351 [Eh]
	 SCS Correlation Energy    =      -1.2799141117481356 [Eh]
	 SCS Total Energy          =    -307.2410285896953042 [Eh]
	-----------------------------------------------------------

  Dipole Moment: [D]
     X:     1.7650      Y:    -0.0507      Z:     0.0980     Total:     1.7685

*** Psi4 exiting successfully. Buy a developer a beer!
