                               Psi4 1.3.2 release

  ==> Input File <==

--------------------------------------------------------------------------
#psi4
#
memory 32 gb

molecule  {
0 1
  O       -1.5172650    -0.9302590     0.3397410
  O       -1.1248250     1.1536050    -0.4487800
  C        0.7353610    -0.1875570     0.3681900
  C        1.2675140    -1.2018710    -0.6496400
  C        1.5623690     1.0900120     0.3921910
  C       -0.7220590     0.1330621     0.0351416
  H        0.7409090    -0.6606070     1.3569650
  H        2.3072410    -1.4506340    -0.4222570
  H        1.2308120    -0.7800070    -1.6583810
  H        0.6786320    -2.1214010    -0.6338280
  H        1.5507090     1.5673140    -0.5898900
  H        2.5972890     0.8640450     0.6623340
  H        1.1628250     1.8055600     1.1144870
  H       -2.4073941    -0.6306265     0.0608743
units angstrom
no_reorient  #important for SAPT in psi4, default
symmetry c1  #important for SAPT in psi4, default
}

set PROPERTIES_ORIGIN ["COM"]
properties('MP2/aug-cc-pvtz', properties = ['dipole'])
--------------------------------------------------------------------------

    Molecular point group: c1
  Charge       = 0
  Multiplicity = 1
  Basis Set: AUG-CC-PVTZ
    Blend: AUG-CC-PVTZ
  Basis Set: (AUG-CC-PVTZ AUX)
    Blend: AUG-CC-PVTZ-JKFIT

    Orbital Energies [Eh]
    ---------------------

    Doubly Occupied:

       1A    -20.614512     2A    -20.553496     3A    -11.383347
       4A    -11.252020     5A    -11.229858     6A    -11.219681
       7A     -1.464386     8A     -1.366197     9A     -1.092634
      10A     -0.942722    11A     -0.891564    12A     -0.770354
      13A     -0.708218    14A     -0.693303    15A     -0.643681
      16A     -0.612813    17A     -0.603389    18A     -0.560189
      19A     -0.548702    20A     -0.527183    21A     -0.498106
      22A     -0.490981    23A     -0.484168    24A     -0.444516

  @DF-RHF Final Energy:  -305.99908518563313

   => Energetics <=

    Nuclear Repulsion Energy =            247.8801519236170066
    One-Electron Energy =                -908.5664303494285150
    Two-Electron Energy =                 354.6871932401783170
    Total Energy =                       -305.9990851856331346
  Basis Set: (AUG-CC-PVTZ AUX)
    Blend: AUG-CC-PVTZ-RI
    Molecular point group: c1

    Geometry (in Angstrom), charge = 0, multiplicity = 1:

       Center              X                  Y                   Z               Mass
    ------------   -----------------  -----------------  -----------------  -----------------
         O           -1.514775025437    -0.932062381424     0.340922482080    15.994914619570
         O           -1.122335025437     1.151801618576    -0.447598517920    15.994914619570
         C            0.737850974563    -0.189360381424     0.369371482080    12.000000000000
         C            1.270003974563    -1.203674381424    -0.648458517920    12.000000000000
         C            1.564858974563     1.088208618576     0.393372482080    12.000000000000
         C           -0.719569025437     0.131258718576     0.036323082080    12.000000000000
         H            0.743398974563    -0.662410381424     1.358146482080     1.007825032230
         H            2.309730974563    -1.452437381424    -0.421075517920     1.007825032230
         H            1.233301974563    -0.781810381424    -1.657199517920     1.007825032230
         H            0.681121974563    -2.123204381424    -0.632646517920     1.007825032230
         H            1.553198974563     1.565510618576    -0.588708517920     1.007825032230
         H            2.599778974563     0.862241618576     0.663515482080     1.007825032230
         H            1.165314974563     1.803756618576     1.115668482080     1.007825032230
         H           -2.404904125437    -0.632429881424     0.062055782080     1.007825032230

  Basis Set: AUG-CC-PVTZ
    Blend: AUG-CC-PVTZ
  Basis Set: (AUG-CC-PVTZ AUX)
    Blend: AUG-CC-PVTZ-JKFIT
	 Reference Energy          =    -305.9990851856331346 [Eh]
	 Singles Energy            =      -0.0000000000000000 [Eh]
	 Same-Spin Energy          =      -0.3012102933314209 [Eh]
	 Opposite-Spin Energy      =      -0.9795038653406449 [Eh]
	 Correlation Energy        =      -1.2807141586720658 [Eh]
	 Total Energy              =    -307.2797993443052178 [Eh]

	 ================> DF-SCS-MP2 Energies <==================
	-----------------------------------------------------------
	 SCS Same-Spin Scale       =       0.3333333333333333 [-]
	 SCS Opposite-Spin Scale   =       1.2000000000000000 [-]
	 SCS Same-Spin Energy      =      -0.1004034311104736 [Eh]
	 SCS Opposite-Spin Energy  =      -1.1754046384087740 [Eh]
	 SCS Correlation Energy    =      -1.2758080695192475 [Eh]
	 SCS Total Energy          =    -307.2748932551523922 [Eh]
	-----------------------------------------------------------

  Dipole Moment: [D]
     X:     0.5815      Y:    -1.2866      Z:     0.4912     Total:     1.4950

*** Psi4 exiting successfully. Buy a developer a beer!
