                               Psi4 1.4a3.dev225

  ==> Input File <==

--------------------------------------------------------------------------
#psi4
#
memory 32 gb

molecule  {
0 1
  O       -1.6617030     0.7577680    -0.4073030
  O       -1.1227790    -1.2129920     0.5672640
  C        0.6404470     0.1718450    -0.3932210
  C        1.0928880     1.3538930     0.4742710
  C        1.5672530    -1.0291100    -0.2532030
  C       -0.7744920    -0.2041220    -0.0232100
  H        0.6138910     0.5049790    -1.4379290
  H        2.1115010     1.6456430     0.2036890
  H        1.0897110     1.0707860     1.5315760
  H        0.4361920     2.2162520     0.3415930
  H        1.5885520    -1.3743970     0.7830710
  H        2.5826960    -0.7552260    -0.5531760
  H        1.2333040    -1.8624340    -0.8759310
  H       -2.5187013     0.4476195    -0.1066662
units angstrom
no_reorient  #important for SAPT in psi4, default
symmetry c1  #important for SAPT in psi4, default
}

set PROPERTIES_ORIGIN ["COM"]
properties('MP2/aug-cc-pvtz', properties = ['dipole'])
--------------------------------------------------------------------------

    Molecular point group: c1
  Charge       = 0
  Multiplicity = 1
  Basis Set: AUG-CC-PVTZ
    Blend: AUG-CC-PVTZ
  Basis Set: (AUG-CC-PVTZ AUX)
    Blend: AUG-CC-PVTZ-JKFIT

    Orbital Energies [Eh]
    ---------------------

    Doubly Occupied:

       1A    -20.612890     2A    -20.551166     3A    -11.386450
       4A    -11.254139     5A    -11.231906     6A    -11.221147
       7A     -1.460873     8A     -1.356744     9A     -1.096526
      10A     -0.943850    11A     -0.898696    12A     -0.775754
      13A     -0.707171    14A     -0.691926    15A     -0.641747
      16A     -0.610393    17A     -0.602040    18A     -0.560950
      19A     -0.549177    20A     -0.526661    21A     -0.498039
      22A     -0.492859    23A     -0.479129    24A     -0.446935

  @DF-RHF Final Energy:  -305.99905130948417

   => Energetics <=

    Nuclear Repulsion Energy =            247.6338011880767169
    One-Electron Energy =                -908.0713688838792450
    Two-Electron Energy =                 354.4385163863183266
    Total Energy =                       -305.9990513094841731
  Basis Set: (AUG-CC-PVTZ AUX)
    Blend: AUG-CC-PVTZ-RI
    Molecular point group: c1

    Geometry (in Angstrom), charge = 0, multiplicity = 1:

       Center              X                  Y                   Z               Mass
    ------------   -----------------  -----------------  -----------------  -----------------
         O           -1.581848238527     0.778927665853    -0.408433497581    15.994914619570
         O           -1.042924238527    -1.191832334147     0.566133502419    15.994914619570
         C            0.720301761473     0.193004665853    -0.394351497581    12.000000000000
         C            1.172742761473     1.375052665853     0.473140502419    12.000000000000
         C            1.647107761473    -1.007950334147    -0.254333497581    12.000000000000
         C           -0.694637238527    -0.182962334147    -0.024340497581    12.000000000000
         H            0.693745761473     0.526138665853    -1.439059497581     1.007825032230
         H            2.191355761473     1.666802665853     0.202558502419     1.007825032230
         H            1.169565761473     1.091945665853     1.530445502419     1.007825032230
         H            0.516046761473     2.237411665853     0.340462502419     1.007825032230
         H            1.668406761473    -1.353237334147     0.781940502419     1.007825032230
         H            2.662550761473    -0.734066334147    -0.554306497581     1.007825032230
         H            1.313158761473    -1.841274334147    -0.877061497581     1.007825032230
         H           -2.438846538527     0.468779165853    -0.107796697581     1.007825032230

  Basis Set: AUG-CC-PVTZ
    Blend: AUG-CC-PVTZ
  Basis Set: (AUG-CC-PVTZ AUX)
    Blend: AUG-CC-PVTZ-JKFIT
	 Reference Energy          =    -305.9990513094841731 [Eh]
	 Singles Energy            =      -0.0000000000000000 [Eh]
	 Same-Spin Energy          =      -0.3013463258937280 [Eh]
	 Opposite-Spin Energy      =      -0.9798158806881441 [Eh]
	 Correlation Energy        =      -1.2811622065818722 [Eh]
	 Total Energy              =    -307.2802135160660555 [Eh]

	 ================> DF-SCS-MP2 Energies <==================
	-----------------------------------------------------------
	 SCS Same-Spin Scale       =       0.3333333333333333 [-]
	 SCS Opposite-Spin Scale   =       1.2000000000000000 [-]
	 SCS Same-Spin Energy      =      -0.1004487752979093 [Eh]
	 SCS Opposite-Spin Energy  =      -1.1757790568257729 [Eh]
	 SCS Correlation Energy    =      -1.2762278321236822 [Eh]
	 SCS Total Energy          =    -307.2752791416078821 [Eh]
	-----------------------------------------------------------

  Dipole Moment: [D]
     X:     0.5968      Y:     1.3780      Z:    -0.6810     Total:     1.6489

*** Psi4 exiting successfully. Buy a developer a beer!
