                               Psi4 1.4a3.dev225

  ==> Input File <==

--------------------------------------------------------------------------
#psi4
#
memory 32 gb

molecule  {
0 1
  O       -1.6617030     0.7577680    -0.4073030
  O       -1.1227790    -1.2129920     0.5672640
  C        0.6404470     0.1718450    -0.3932210
  C        1.0928880     1.3538930     0.4742710
  C        1.5672530    -1.0291100    -0.2532030
  C       -0.7614810    -0.2182282    -0.0175772
  H        0.6138910     0.5049790    -1.4379290
  H        2.1115010     1.6456430     0.2036890
  H        1.0897110     1.0707860     1.5315760
  H        0.4361920     2.2162520     0.3415930
  H        1.5885520    -1.3743970     0.7830710
  H        2.5826960    -0.7552260    -0.5531760
  H        1.2333040    -1.8624340    -0.8759310
  H       -2.5365610     0.4411560    -0.1004010
units angstrom
no_reorient  #important for SAPT in psi4, default
symmetry c1  #important for SAPT in psi4, default
}

set PROPERTIES_ORIGIN ["COM"]
properties('MP2/aug-cc-pvtz', properties = ['dipole'])
--------------------------------------------------------------------------

    Molecular point group: c1
  Charge       = 0
  Multiplicity = 1
  Basis Set: AUG-CC-PVTZ
    Blend: AUG-CC-PVTZ
  Basis Set: (AUG-CC-PVTZ AUX)
    Blend: AUG-CC-PVTZ-JKFIT

    Orbital Energies [Eh]
    ---------------------

    Doubly Occupied:

       1A    -20.608393     2A    -20.554009     3A    -11.385823
       4A    -11.254433     5A    -11.232282     6A    -11.221821
       7A     -1.453412     8A     -1.356365     9A     -1.097995
      10A     -0.944436    11A     -0.895594    12A     -0.768641
      13A     -0.704843    14A     -0.690688    15A     -0.640527
      16A     -0.608421    17A     -0.601985    18A     -0.560181
      19A     -0.549572    20A     -0.527998    21A     -0.498667
      22A     -0.492933    23A     -0.481558    24A     -0.448262

  @DF-RHF Final Energy:  -305.99785593434706

   => Energetics <=

    Nuclear Repulsion Energy =            247.5450952963810778
    One-Electron Energy =                -907.9282237467823506
    Two-Electron Energy =                 354.3852725160542150
    Total Energy =                       -305.9978559343470579
  Basis Set: (AUG-CC-PVTZ AUX)
    Blend: AUG-CC-PVTZ-RI
    Molecular point group: c1

    Geometry (in Angstrom), charge = 0, multiplicity = 1:

       Center              X                  Y                   Z               Mass
    ------------   -----------------  -----------------  -----------------  -----------------
         O           -1.583416991917     0.780924072745    -0.409272859150    15.994914619570
         O           -1.044492991917    -1.189835927255     0.565294140850    15.994914619570
         C            0.718733008083     0.195001072745    -0.395190859150    12.000000000000
         C            1.171174008083     1.377049072745     0.472301140850    12.000000000000
         C            1.645539008083    -1.005953927255    -0.255172859150    12.000000000000
         C           -0.683194991917    -0.195072127255    -0.019547059150    12.000000000000
         H            0.692177008083     0.528135072745    -1.439898859150     1.007825032230
         H            2.189787008083     1.668799072745     0.201719140850     1.007825032230
         H            1.167997008083     1.093942072745     1.529606140850     1.007825032230
         H            0.514478008083     2.239408072745     0.339623140850     1.007825032230
         H            1.666838008083    -1.351240927255     0.781101140850     1.007825032230
         H            2.660982008083    -0.732069927255    -0.555145859150     1.007825032230
         H            1.311590008083    -1.839277927255    -0.877900859150     1.007825032230
         H           -2.458274991917     0.464312072745    -0.102370859150     1.007825032230

  Basis Set: AUG-CC-PVTZ
    Blend: AUG-CC-PVTZ
  Basis Set: (AUG-CC-PVTZ AUX)
    Blend: AUG-CC-PVTZ-JKFIT
	 Reference Energy          =    -305.9978559343470579 [Eh]
	 Singles Energy            =      -0.0000000000000000 [Eh]
	 Same-Spin Energy          =      -0.3015716720635455 [Eh]
	 Opposite-Spin Energy      =      -0.9804674425703257 [Eh]
	 Correlation Energy        =      -1.2820391146338712 [Eh]
	 Total Energy              =    -307.2798950489809044 [Eh]

	 ================> DF-SCS-MP2 Energies <==================
	-----------------------------------------------------------
	 SCS Same-Spin Scale       =       0.3333333333333333 [-]
	 SCS Opposite-Spin Scale   =       1.2000000000000000 [-]
	 SCS Same-Spin Energy      =      -0.1005238906878485 [Eh]
	 SCS Opposite-Spin Energy  =      -1.1765609310843907 [Eh]
	 SCS Correlation Energy    =      -1.2770848217722393 [Eh]
	 SCS Total Energy          =    -307.2749407561192925 [Eh]
	-----------------------------------------------------------

  Dipole Moment: [D]
     X:     0.6785      Y:     1.2606      Z:    -0.6234     Total:     1.5614

*** Psi4 exiting successfully. Buy a developer a beer!
