                               Psi4 1.3.2 release

  ==> Input File <==

--------------------------------------------------------------------------
#psi4
#
memory 32 gb

molecule  {
0 1
  O       -1.5265963    -0.9241098     0.3356865
  O       -1.1346609     1.1495527    -0.4487410
  C        0.7353610    -0.1875570     0.3681900
  C        1.2675140    -1.2018710    -0.6496400
  C        1.5623690     1.0900120     0.3921910
  C       -0.7032450     0.1210870     0.0433830
  H        0.7409090    -0.6606070     1.3569650
  H        2.3072410    -1.4506340    -0.4222570
  H        1.2308120    -0.7800070    -1.6583810
  H        0.6786320    -2.1214010    -0.6338280
  H        1.5507090     1.5673140    -0.5898900
  H        2.5972890     0.8640450     0.6623340
  H        1.1628250     1.8055600     1.1144870
  H       -2.4138720    -0.6456040     0.0659830
units angstrom
no_reorient  #important for SAPT in psi4, default
symmetry c1  #important for SAPT in psi4, default
}

set PROPERTIES_ORIGIN ["COM"]
properties('MP2/aug-cc-pvtz', properties = ['dipole'])
--------------------------------------------------------------------------

    Molecular point group: c1
  Charge       = 0
  Multiplicity = 1
  Basis Set: AUG-CC-PVTZ
    Blend: AUG-CC-PVTZ
  Basis Set: (AUG-CC-PVTZ AUX)
    Blend: AUG-CC-PVTZ-JKFIT

    Orbital Energies [Eh]
    ---------------------

    Doubly Occupied:

       1A    -20.611972     2A    -20.549662     3A    -11.385362
       4A    -11.254170     5A    -11.232065     6A    -11.221491
       7A     -1.459779     8A     -1.354395     9A     -1.098044
      10A     -0.944767    11A     -0.898395    12A     -0.775257
      13A     -0.705961    14A     -0.691880    15A     -0.641293
      16A     -0.610987    17A     -0.601483    18A     -0.561330
      19A     -0.549558    20A     -0.526652    21A     -0.498695
      22A     -0.493192    23A     -0.477896    24A     -0.446829

  @DF-RHF Final Energy:  -305.99917990632122

   => Energetics <=

    Nuclear Repulsion Energy =            247.7913901986213716
    One-Electron Energy =                -908.3989095414804069
    Two-Electron Energy =                 354.6083394365378467
    Total Energy =                       -305.9991799063212170
  Basis Set: (AUG-CC-PVTZ AUX)
    Blend: AUG-CC-PVTZ-RI
    Molecular point group: c1

    Geometry (in Angstrom), charge = 0, multiplicity = 1:

       Center              X                  Y                   Z               Mass
    ------------   -----------------  -----------------  -----------------  -----------------
         O           -1.523114435517    -0.924490663457     0.336415775409    15.994914619570
         O           -1.131179035517     1.149171836543    -0.448011724591    15.994914619570
         C            0.738842864483    -0.187937863457     0.368919275409    12.000000000000
         C            1.270995864483    -1.202251863457    -0.648910724591    12.000000000000
         C            1.565850864483     1.089631136543     0.392920275409    12.000000000000
         C           -0.699763135517     0.120706136543     0.044112275409    12.000000000000
         H            0.744390864483    -0.660987863457     1.357694275409     1.007825032230
         H            2.310722864483    -1.451014863457    -0.421527724591     1.007825032230
         H            1.234293864483    -0.780387863457    -1.657651724591     1.007825032230
         H            0.682113864483    -2.121781863457    -0.633098724591     1.007825032230
         H            1.554190864483     1.566933136543    -0.589160724591     1.007825032230
         H            2.600770864483     0.863664136543     0.663063275409     1.007825032230
         H            1.166306864483     1.805179136543     1.115216275409     1.007825032230
         H           -2.410390135517    -0.645984863457     0.066712275409     1.007825032230

  Basis Set: AUG-CC-PVTZ
    Blend: AUG-CC-PVTZ
  Basis Set: (AUG-CC-PVTZ AUX)
    Blend: AUG-CC-PVTZ-JKFIT
	 Reference Energy          =    -305.9991799063212170 [Eh]
	 Singles Energy            =      -0.0000000000000000 [Eh]
	 Same-Spin Energy          =      -0.3014008858908821 [Eh]
	 Opposite-Spin Energy      =      -0.9798193282733770 [Eh]
	 Correlation Energy        =      -1.2812202141642590 [Eh]
	 Total Energy              =    -307.2804001204854671 [Eh]

	 ================> DF-SCS-MP2 Energies <==================
	-----------------------------------------------------------
	 SCS Same-Spin Scale       =       0.3333333333333333 [-]
	 SCS Opposite-Spin Scale   =       1.2000000000000000 [-]
	 SCS Same-Spin Energy      =      -0.1004669619636274 [Eh]
	 SCS Opposite-Spin Energy  =      -1.1757831939280523 [Eh]
	 SCS Correlation Energy    =      -1.2762501558916797 [Eh]
	 SCS Total Energy          =    -307.2754300622128767 [Eh]
	-----------------------------------------------------------

  Dipole Moment: [D]
     X:     0.7314      Y:    -1.3838      Z:     0.5392     Total:     1.6554

*** Psi4 exiting successfully. Buy a developer a beer!
