                               Psi4 1.4a3.dev225

  ==> Input File <==

--------------------------------------------------------------------------
#psi4
#
memory 32 gb

molecule  {
0 1
  O       -1.6617030     0.7577680    -0.4073030
  O       -1.1227790    -1.2129920     0.5672640
  C        0.6404470     0.1718450    -0.3932210
  C        1.0928880     1.3538930     0.4742710
  C        1.5672530    -1.0291100    -0.2532030
  C       -0.8070196    -0.1688565    -0.0372919
  H        0.6138910     0.5049790    -1.4379290
  H        2.1115010     1.6456430     0.2036890
  H        1.0897110     1.0707860     1.5315760
  H        0.4361920     2.2162520     0.3415930
  H        1.5885520    -1.3743970     0.7830710
  H        2.5826960    -0.7552260    -0.5531760
  H        1.2333040    -1.8624340    -0.8759310
  H       -2.5365610     0.4411560    -0.1004010
units angstrom
no_reorient  #important for SAPT in psi4, default
symmetry c1  #important for SAPT in psi4, default
}

set PROPERTIES_ORIGIN ["COM"]
properties('MP2/aug-cc-pvtz', properties = ['dipole'])
--------------------------------------------------------------------------

    Molecular point group: c1
  Charge       = 0
  Multiplicity = 1
  Basis Set: AUG-CC-PVTZ
    Blend: AUG-CC-PVTZ
  Basis Set: (AUG-CC-PVTZ AUX)
    Blend: AUG-CC-PVTZ-JKFIT

    Orbital Energies [Eh]
    ---------------------

    Doubly Occupied:

       1A    -20.628454     2A    -20.542544     3A    -11.386803
       4A    -11.253375     5A    -11.230591     6A    -11.219255
       7A     -1.477732     8A     -1.343595     9A     -1.091784
      10A     -0.941984    11A     -0.900937    12A     -0.785496
      13A     -0.709691    14A     -0.691942    15A     -0.646666
      16A     -0.613514    17A     -0.596759    18A     -0.561714
      19A     -0.547343    20A     -0.520550    21A     -0.496012
      22A     -0.491600    23A     -0.469798    24A     -0.440569

  @DF-RHF Final Energy:  -305.99459448352411

   => Energetics <=

    Nuclear Repulsion Energy =            247.4562605287063946
    One-Electron Energy =                -907.7242958393210301
    Two-Electron Energy =                 354.2734408270905533
    Total Energy =                       -305.9945944835241107
  Basis Set: (AUG-CC-PVTZ AUX)
    Blend: AUG-CC-PVTZ-RI
    Molecular point group: c1

    Geometry (in Angstrom), charge = 0, multiplicity = 1:

       Center              X                  Y                   Z               Mass
    ------------   -----------------  -----------------  -----------------  -----------------
         O           -1.577210880364     0.774195576968    -0.406586091716    15.994914619570
         O           -1.038286880364    -1.196564423032     0.567980908284    15.994914619570
         C            0.724939119636     0.188272576968    -0.392504091716    12.000000000000
         C            1.177380119636     1.370320576968     0.474987908284    12.000000000000
         C            1.651745119636    -1.012682423032    -0.252486091716    12.000000000000
         C           -0.722527480364    -0.152428923032    -0.036574991716    12.000000000000
         H            0.698383119636     0.521406576968    -1.437212091716     1.007825032230
         H            2.195993119636     1.662070576968     0.204405908284     1.007825032230
         H            1.174203119636     1.087213576968     1.532292908284     1.007825032230
         H            0.520684119636     2.232679576968     0.342309908284     1.007825032230
         H            1.673044119636    -1.357969423032     0.783787908284     1.007825032230
         H            2.667188119636    -0.738798423032    -0.552459091716     1.007825032230
         H            1.317796119636    -1.846006423032    -0.875214091716     1.007825032230
         H           -2.452068880364     0.457583576968    -0.099684091716     1.007825032230

  Basis Set: AUG-CC-PVTZ
    Blend: AUG-CC-PVTZ
  Basis Set: (AUG-CC-PVTZ AUX)
    Blend: AUG-CC-PVTZ-JKFIT
	 Reference Energy          =    -305.9945944835241107 [Eh]
	 Singles Energy            =      -0.0000000000000000 [Eh]
	 Same-Spin Energy          =      -0.3017776055077914 [Eh]
	 Opposite-Spin Energy      =      -0.9804384789988512 [Eh]
	 Correlation Energy        =      -1.2822160845066426 [Eh]
	 Total Energy              =    -307.2768105680307258 [Eh]

	 ================> DF-SCS-MP2 Energies <==================
	-----------------------------------------------------------
	 SCS Same-Spin Scale       =       0.3333333333333333 [-]
	 SCS Opposite-Spin Scale   =       1.2000000000000000 [-]
	 SCS Same-Spin Energy      =      -0.1005925351692638 [Eh]
	 SCS Opposite-Spin Energy  =      -1.1765261747986213 [Eh]
	 SCS Correlation Energy    =      -1.2771187099678851 [Eh]
	 SCS Total Energy          =    -307.2717131934920189 [Eh]
	-----------------------------------------------------------

  Dipole Moment: [D]
     X:     0.3226      Y:     1.6614      Z:    -0.8091     Total:     1.8759

*** Psi4 exiting successfully. Buy a developer a beer!
