                               Psi4 1.3.2 release

  ==> Input File <==

--------------------------------------------------------------------------
#psi4
#
memory 32 gb

molecule  {
0 1
  O       -1.5078717    -0.9363281     0.3437729
  O       -1.1149569     1.1575786    -0.4487815
  C        0.7353610    -0.1875570     0.3681900
  C        1.2675140    -1.2018710    -0.6496400
  C        1.5623690     1.0900120     0.3921910
  C       -0.7032450     0.1210870     0.0433830
  H        0.7409090    -0.6606070     1.3569650
  H        2.3072410    -1.4506340    -0.4222570
  H        1.2308120    -0.7800070    -1.6583810
  H        0.6786320    -2.1214010    -0.6338280
  H        1.5507090     1.5673140    -0.5898900
  H        2.5972890     0.8640450     0.6623340
  H        1.1628250     1.8055600     1.1144870
  H       -2.4138720    -0.6456040     0.0659830
units angstrom
no_reorient  #important for SAPT in psi4, default
symmetry c1  #important for SAPT in psi4, default
}

set PROPERTIES_ORIGIN ["COM"]
properties('MP2/aug-cc-pvtz', properties = ['dipole'])
--------------------------------------------------------------------------

    Molecular point group: c1
  Charge       = 0
  Multiplicity = 1
  Basis Set: AUG-CC-PVTZ
    Blend: AUG-CC-PVTZ
  Basis Set: (AUG-CC-PVTZ AUX)
    Blend: AUG-CC-PVTZ-JKFIT

    Orbital Energies [Eh]
    ---------------------

    Doubly Occupied:

       1A    -20.616828     2A    -20.551127     3A    -11.385519
       4A    -11.251987     5A    -11.231078     6A    -11.220167
       7A     -1.457674     8A     -1.355963     9A     -1.096313
      10A     -0.943632    11A     -0.895754    12A     -0.770956
      13A     -0.705691    14A     -0.691879    15A     -0.641628
      16A     -0.610822    17A     -0.601365    18A     -0.560262
      19A     -0.548985    20A     -0.525655    21A     -0.497879
      22A     -0.491935    23A     -0.479186    24A     -0.446360

  @DF-RHF Final Energy:  -305.99707203556352

   => Energetics <=

    Nuclear Repulsion Energy =            247.8566968164093112
    One-Electron Energy =                -908.5502460114116730
    Two-Electron Energy =                 354.6964771594388139
    Total Energy =                       -305.9970720355635194
  Basis Set: (AUG-CC-PVTZ AUX)
    Blend: AUG-CC-PVTZ-RI
    Molecular point group: c1

    Geometry (in Angstrom), charge = 0, multiplicity = 1:

       Center              X                  Y                   Z               Mass
    ------------   -----------------  -----------------  -----------------  -----------------
         O           -1.511370473978    -0.935947404913     0.343040620239    15.994914619570
         O           -1.118455673978     1.157959295087    -0.449513779761    15.994914619570
         C            0.731862226022    -0.187176304913     0.367457720239    12.000000000000
         C            1.264015226022    -1.201490304913    -0.650372279761    12.000000000000
         C            1.558870226022     1.090392695087     0.391458720239    12.000000000000
         C           -0.706743773978     0.121467695087     0.042650720239    12.000000000000
         H            0.737410226022    -0.660226304913     1.356232720239     1.007825032230
         H            2.303742226022    -1.450253304913    -0.422989279761     1.007825032230
         H            1.227313226022    -0.779626304913    -1.659113279761     1.007825032230
         H            0.675133226022    -2.121020304913    -0.634560279761     1.007825032230
         H            1.547210226022     1.567694695087    -0.590622279761     1.007825032230
         H            2.593790226022     0.864425695087     0.661601720239     1.007825032230
         H            1.159326226022     1.805940695087     1.113754720239     1.007825032230
         H           -2.417370773978    -0.645223304913     0.065250720239     1.007825032230

  Basis Set: AUG-CC-PVTZ
    Blend: AUG-CC-PVTZ
  Basis Set: (AUG-CC-PVTZ AUX)
    Blend: AUG-CC-PVTZ-JKFIT
	 Reference Energy          =    -305.9970720355635194 [Eh]
	 Singles Energy            =      -0.0000000000000000 [Eh]
	 Same-Spin Energy          =      -0.3019180451890499 [Eh]
	 Opposite-Spin Energy      =      -0.9809172890672837 [Eh]
	 Correlation Energy        =      -1.2828353342563337 [Eh]
	 Total Energy              =    -307.2799073698198526 [Eh]

	 ================> DF-SCS-MP2 Energies <==================
	-----------------------------------------------------------
	 SCS Same-Spin Scale       =       0.3333333333333333 [-]
	 SCS Opposite-Spin Scale   =       1.2000000000000000 [-]
	 SCS Same-Spin Energy      =      -0.1006393483963500 [Eh]
	 SCS Opposite-Spin Energy  =      -1.1771007468807404 [Eh]
	 SCS Correlation Energy    =      -1.2777400952770903 [Eh]
	 SCS Total Energy          =    -307.2748121308405871 [Eh]
	-----------------------------------------------------------

  Dipole Moment: [D]
     X:     0.6145      Y:    -1.3909      Z:     0.5288     Total:     1.6099

*** Psi4 exiting successfully. Buy a developer a beer!
