                               Psi4 1.3.2 release

  ==> Input File <==

--------------------------------------------------------------------------
#psi4
#
memory 32 gb

molecule  {
0 1
  O       -1.5172650    -0.9302590     0.3397410
  O       -1.1248250     1.1536050    -0.4487800
  C        0.7353610    -0.1875570     0.3681900
  C        1.2735683    -1.2371574    -0.6099048
  C        1.5623690     1.0900120     0.3921910
  C       -0.7032450     0.1210870     0.0433830
  H        0.7549511    -0.6923861     1.3409422
  H        2.3072410    -1.4506340    -0.4222570
  H        1.2308120    -0.7800070    -1.6583810
  H        0.6786320    -2.1214010    -0.6338280
  H        1.5507090     1.5673140    -0.5898900
  H        2.5972890     0.8640450     0.6623340
  H        1.1628250     1.8055600     1.1144870
  H       -2.4138720    -0.6456040     0.0659830
units angstrom
no_reorient  #important for SAPT in psi4, default
symmetry c1  #important for SAPT in psi4, default
}

set PROPERTIES_ORIGIN ["COM"]
properties('MP2/aug-cc-pvtz', properties = ['dipole'])
--------------------------------------------------------------------------

    Molecular point group: c1
  Charge       = 0
  Multiplicity = 1
  Basis Set: AUG-CC-PVTZ
    Blend: AUG-CC-PVTZ
  Basis Set: (AUG-CC-PVTZ AUX)
    Blend: AUG-CC-PVTZ-JKFIT

    Orbital Energies [Eh]
    ---------------------

    Doubly Occupied:

       1A    -20.614725     2A    -20.550981     3A    -11.386247
       4A    -11.253203     5A    -11.231940     6A    -11.221610
       7A     -1.459027     8A     -1.355592     9A     -1.097069
      10A     -0.945255    11A     -0.896941    12A     -0.773152
      13A     -0.706022    14A     -0.692399    15A     -0.642188
      16A     -0.613142    17A     -0.602849    18A     -0.565730
      19A     -0.541853    20A     -0.527480    21A     -0.503857
      22A     -0.483675    23A     -0.478016    24A     -0.448210

  @DF-RHF Final Energy:  -305.99488773901345

   => Energetics <=

    Nuclear Repulsion Energy =            247.6802854102882634
    One-Electron Energy =                -908.1680198987152153
    Two-Electron Energy =                 354.4928467494134452
    Total Energy =                       -305.9948877390134498
  Basis Set: (AUG-CC-PVTZ AUX)
    Blend: AUG-CC-PVTZ-RI
    Molecular point group: c1

    Geometry (in Angstrom), charge = 0, multiplicity = 1:

       Center              X                  Y                   Z               Mass
    ------------   -----------------  -----------------  -----------------  -----------------
         O           -1.518250715907    -0.925086305063     0.334509033865    15.994914619570
         O           -1.125810715907     1.158777694937    -0.454011966135    15.994914619570
         C            0.734375284093    -0.182384305063     0.362958033865    12.000000000000
         C            1.272582584093    -1.231984705063    -0.615136766135    12.000000000000
         C            1.561383284093     1.095184694937     0.386959033865    12.000000000000
         C           -0.704230715907     0.126259694937     0.038151033865    12.000000000000
         H            0.753965384093    -0.687213405063     1.335710233865     1.007825032230
         H            2.306255284093    -1.445461305063    -0.427488966135     1.007825032230
         H            1.229826284093    -0.774834305063    -1.663612966135     1.007825032230
         H            0.677646284093    -2.116228305063    -0.639059966135     1.007825032230
         H            1.549723284093     1.572486694937    -0.595121966135     1.007825032230
         H            2.596303284093     0.869217694937     0.657102033865     1.007825032230
         H            1.161839284093     1.810732694937     1.109255033865     1.007825032230
         H           -2.414857715907    -0.640431305063     0.060751033865     1.007825032230

  Basis Set: AUG-CC-PVTZ
    Blend: AUG-CC-PVTZ
  Basis Set: (AUG-CC-PVTZ AUX)
    Blend: AUG-CC-PVTZ-JKFIT
	 Reference Energy          =    -305.9948877390134498 [Eh]
	 Singles Energy            =      -0.0000000000000000 [Eh]
	 Same-Spin Energy          =      -0.3017188352086637 [Eh]
	 Opposite-Spin Energy      =      -0.9805212741852927 [Eh]
	 Correlation Energy        =      -1.2822401093939564 [Eh]
	 Total Energy              =    -307.2771278484074173 [Eh]

	 ================> DF-SCS-MP2 Energies <==================
	-----------------------------------------------------------
	 SCS Same-Spin Scale       =       0.3333333333333333 [-]
	 SCS Opposite-Spin Scale   =       1.2000000000000000 [-]
	 SCS Same-Spin Energy      =      -0.1005729450695546 [Eh]
	 SCS Opposite-Spin Energy  =      -1.1766255290223511 [Eh]
	 SCS Correlation Energy    =      -1.2771984740919056 [Eh]
	 SCS Total Energy          =    -307.2720862131053536 [Eh]
	-----------------------------------------------------------

  Dipole Moment: [D]
     X:     0.6760      Y:    -1.3970      Z:     0.5583     Total:     1.6493

*** Psi4 exiting successfully. Buy a developer a beer!
