                               Psi4 1.3.2 release

  ==> Input File <==

--------------------------------------------------------------------------
#psi4
#
memory 32 gb

molecule  {
0 1
  O       -1.5172650    -0.9302590     0.3397410
  O       -1.1149146     1.1574615    -0.4490635
  C        0.7388614    -0.1757145     0.3636735
  C        1.2675140    -1.2018710    -0.6496400
  C        1.5623690     1.0900120     0.3921910
  C       -0.7032450     0.1210870     0.0433830
  H        0.7409090    -0.6606070     1.3569650
  H        2.3072410    -1.4506340    -0.4222570
  H        1.2308120    -0.7800070    -1.6583810
  H        0.6786320    -2.1214010    -0.6338280
  H        1.5507090     1.5673140    -0.5898900
  H        2.5972890     0.8640450     0.6623340
  H        1.1628250     1.8055600     1.1144870
  H       -2.4138720    -0.6456040     0.0659830
units angstrom
no_reorient  #important for SAPT in psi4, default
symmetry c1  #important for SAPT in psi4, default
}

set PROPERTIES_ORIGIN ["COM"]
properties('MP2/aug-cc-pvtz', properties = ['dipole'])
--------------------------------------------------------------------------

    Molecular point group: c1
  Charge       = 0
  Multiplicity = 1
  Basis Set: AUG-CC-PVTZ
    Blend: AUG-CC-PVTZ
  Basis Set: (AUG-CC-PVTZ AUX)
    Blend: AUG-CC-PVTZ-JKFIT

    Orbital Energies [Eh]
    ---------------------

    Doubly Occupied:

       1A    -20.615566     2A    -20.550198     3A    -11.385393
       4A    -11.252995     5A    -11.231514     6A    -11.220135
       7A     -1.458731     8A     -1.355951     9A     -1.097411
      10A     -0.944892    11A     -0.896703    12A     -0.772628
      13A     -0.706026    14A     -0.691404    15A     -0.641775
      16A     -0.611201    17A     -0.601740    18A     -0.560905
      19A     -0.549278    20A     -0.526566    21A     -0.500363
      22A     -0.489771    23A     -0.478535    24A     -0.445876

  @DF-RHF Final Energy:  -305.99796655192142

   => Energetics <=

    Nuclear Repulsion Energy =            247.9082633812697054
    One-Electron Energy =                -908.6413469504904015
    Two-Electron Energy =                 354.7351170172993307
    Total Energy =                       -305.9979665519214223
  Basis Set: (AUG-CC-PVTZ AUX)
    Blend: AUG-CC-PVTZ-RI
    Molecular point group: c1

    Geometry (in Angstrom), charge = 0, multiplicity = 1:

       Center              X                  Y                   Z               Mass
    ------------   -----------------  -----------------  -----------------  -----------------
         O           -1.519542187620    -0.932573423414     0.340407869165    15.994914619570
         O           -1.117191787620     1.155147076586    -0.448396630835    15.994914619570
         C            0.736584212380    -0.178028923414     0.364340369165    12.000000000000
         C            1.265236812380    -1.204185423414    -0.648973130835    12.000000000000
         C            1.560091812380     1.087697576586     0.392857869165    12.000000000000
         C           -0.705522187620     0.118772576586     0.044049869165    12.000000000000
         H            0.738631812380    -0.662921423414     1.357631869165     1.007825032230
         H            2.304963812380    -1.452948423414    -0.421590130835     1.007825032230
         H            1.228534812380    -0.782321423414    -1.657714130835     1.007825032230
         H            0.676354812380    -2.123715423414    -0.633161130835     1.007825032230
         H            1.548431812380     1.564999576586    -0.589223130835     1.007825032230
         H            2.595011812380     0.861730576586     0.663000869165     1.007825032230
         H            1.160547812380     1.803245576586     1.115153869165     1.007825032230
         H           -2.416149187620    -0.647918423414     0.066649869165     1.007825032230

  Basis Set: AUG-CC-PVTZ
    Blend: AUG-CC-PVTZ
  Basis Set: (AUG-CC-PVTZ AUX)
    Blend: AUG-CC-PVTZ-JKFIT
	 Reference Energy          =    -305.9979665519214223 [Eh]
	 Singles Energy            =      -0.0000000000000000 [Eh]
	 Same-Spin Energy          =      -0.3017288008195997 [Eh]
	 Opposite-Spin Energy      =      -0.9804442750131246 [Eh]
	 Correlation Energy        =      -1.2821730758327243 [Eh]
	 Total Energy              =    -307.2801396277541244 [Eh]

	 ================> DF-SCS-MP2 Energies <==================
	-----------------------------------------------------------
	 SCS Same-Spin Scale       =       0.3333333333333333 [-]
	 SCS Opposite-Spin Scale   =       1.2000000000000000 [-]
	 SCS Same-Spin Energy      =      -0.1005762669398666 [Eh]
	 SCS Opposite-Spin Energy  =      -1.1765331300157496 [Eh]
	 SCS Correlation Energy    =      -1.2771093969556162 [Eh]
	 SCS Total Energy          =    -307.2750759488770314 [Eh]
	-----------------------------------------------------------

  Dipole Moment: [D]
     X:     0.6460      Y:    -1.3902      Z:     0.5335     Total:     1.6231

*** Psi4 exiting successfully. Buy a developer a beer!
