                               Psi4 1.4a3.dev225

  ==> Input File <==

--------------------------------------------------------------------------
#psi4
#
memory 32 gb

molecule  {
0 1
  O       -1.6617030     0.7577680    -0.4073030
  O       -1.1227790    -1.2129920     0.5672640
  C        0.6404470     0.1718450    -0.3932210
  C        1.0928880     1.3538930     0.4742710
  C        1.5672530    -1.0291100    -0.2532030
  C       -0.7419644    -0.2393875    -0.0091281
  H        0.6138910     0.5049790    -1.4379290
  H        2.1115010     1.6456430     0.2036890
  H        1.0897110     1.0707860     1.5315760
  H        0.4361920     2.2162520     0.3415930
  H        1.5885520    -1.3743970     0.7830710
  H        2.5826960    -0.7552260    -0.5531760
  H        1.2333040    -1.8624340    -0.8759310
  H       -2.5365610     0.4411560    -0.1004010
units angstrom
no_reorient  #important for SAPT in psi4, default
symmetry c1  #important for SAPT in psi4, default
}

set PROPERTIES_ORIGIN ["COM"]
properties('MP2/aug-cc-pvtz', properties = ['dipole'])
--------------------------------------------------------------------------

    Molecular point group: c1
  Charge       = 0
  Multiplicity = 1
  Basis Set: AUG-CC-PVTZ
    Blend: AUG-CC-PVTZ
  Basis Set: (AUG-CC-PVTZ AUX)
    Blend: AUG-CC-PVTZ-JKFIT

    Orbital Energies [Eh]
    ---------------------

    Doubly Occupied:

       1A    -20.599540     2A    -20.558835     3A    -11.385551
       4A    -11.255159     5A    -11.233069     6A    -11.223038
       7A     -1.451287     8A     -1.354881     9A     -1.100866
      10A     -0.945635    11A     -0.894601    12A     -0.762327
      13A     -0.704825    14A     -0.689941    15A     -0.640451
      16A     -0.606694    17A     -0.602618    18A     -0.559538
      19A     -0.550357    20A     -0.530519    21A     -0.499902
      22A     -0.493352    23A     -0.484910    24A     -0.449753

  @DF-RHF Final Energy:  -305.99578031248535

   => Energetics <=

    Nuclear Repulsion Energy =            247.6050196656674416
    One-Electron Energy =                -908.0463040961606112
    Two-Electron Energy =                 354.4455041180078183
    Total Energy =                       -305.9957803124853513
  Basis Set: (AUG-CC-PVTZ AUX)
    Blend: AUG-CC-PVTZ-RI
    Molecular point group: c1

    Geometry (in Angstrom), charge = 0, multiplicity = 1:

       Center              X                  Y                   Z               Mass
    ------------   -----------------  -----------------  -----------------  -----------------
         O           -1.586076761799     0.783807713792    -0.410424323119    15.994914619570
         O           -1.047152761799    -1.186952286208     0.564142676881    15.994914619570
         C            0.716073238201     0.197884713792    -0.396342323119    12.000000000000
         C            1.168514238201     1.379932713792     0.471149676881    12.000000000000
         C            1.642879238201    -1.003070286208    -0.256324323119    12.000000000000
         C           -0.666338161799    -0.213347786208    -0.012249423119    12.000000000000
         H            0.689517238201     0.531018713792    -1.441050323119     1.007825032230
         H            2.187127238201     1.671682713792     0.200567676881     1.007825032230
         H            1.165337238201     1.096825713792     1.528454676881     1.007825032230
         H            0.511818238201     2.242291713792     0.338471676881     1.007825032230
         H            1.664178238201    -1.348357286208     0.779949676881     1.007825032230
         H            2.658322238201    -0.729186286208    -0.556297323119     1.007825032230
         H            1.308930238201    -1.836394286208    -0.879052323119     1.007825032230
         H           -2.460934761799     0.467195713792    -0.103522323119     1.007825032230

  Basis Set: AUG-CC-PVTZ
    Blend: AUG-CC-PVTZ
  Basis Set: (AUG-CC-PVTZ AUX)
    Blend: AUG-CC-PVTZ-JKFIT
	 Reference Energy          =    -305.9957803124853513 [Eh]
	 Singles Energy            =      -0.0000000000000000 [Eh]
	 Same-Spin Energy          =      -0.3015662085208270 [Eh]
	 Opposite-Spin Energy      =      -0.9806292946776340 [Eh]
	 Correlation Energy        =      -1.2821955031984611 [Eh]
	 Total Energy              =    -307.2779758156838170 [Eh]

	 ================> DF-SCS-MP2 Energies <==================
	-----------------------------------------------------------
	 SCS Same-Spin Scale       =       0.3333333333333333 [-]
	 SCS Opposite-Spin Scale   =       1.2000000000000000 [-]
	 SCS Same-Spin Energy      =      -0.1005220695069423 [Eh]
	 SCS Opposite-Spin Energy  =      -1.1767551536131609 [Eh]
	 SCS Correlation Energy    =      -1.2772772231201033 [Eh]
	 SCS Total Energy          =    -307.2730575356054601 [Eh]
	-----------------------------------------------------------

  Dipole Moment: [D]
     X:     0.8414      Y:     1.0863      Z:    -0.5436     Total:     1.4777

*** Psi4 exiting successfully. Buy a developer a beer!
