                               Psi4 1.3.2 release

  ==> Input File <==

--------------------------------------------------------------------------
#psi4
#
memory 32 gb

molecule  {
0 1
  O       -1.5172650    -0.9302590     0.3397410
  O       -1.1248250     1.1536050    -0.4487800
  C        0.7353610    -0.1875570     0.3681900
  C        1.3381799    -1.1996655    -0.6117301
  C        1.5623690     1.0900120     0.3921910
  C       -0.7044377     0.1703083     0.1050167
  H        0.7409090    -0.6606070     1.3569650
  H        2.3072410    -1.4506340    -0.4222570
  H        1.2308120    -0.7800070    -1.6583810
  H        0.6786320    -2.1214010    -0.6338280
  H        1.5507090     1.5673140    -0.5898900
  H        2.5972890     0.8640450     0.6623340
  H        1.1628250     1.8055600     1.1144870
  H       -2.4138720    -0.6456040     0.0659830
units angstrom
no_reorient  #important for SAPT in psi4, default
symmetry c1  #important for SAPT in psi4, default
}

set PROPERTIES_ORIGIN ["COM"]
properties('MP2/aug-cc-pvtz', properties = ['dipole'])
--------------------------------------------------------------------------

    Molecular point group: c1
  Charge       = 0
  Multiplicity = 1
  Basis Set: AUG-CC-PVTZ
    Blend: AUG-CC-PVTZ
  Basis Set: (AUG-CC-PVTZ AUX)
    Blend: AUG-CC-PVTZ-JKFIT

    Orbital Energies [Eh]
    ---------------------

    Doubly Occupied:

       1A    -20.608115     2A    -20.557335     3A    -11.387530
       4A    -11.253832     5A    -11.233078     6A    -11.220383
       7A     -1.455067     8A     -1.358936     9A     -1.097204
      10A     -0.943546    11A     -0.898107    12A     -0.766928
      13A     -0.705465    14A     -0.690089    15A     -0.644219
      16A     -0.605957    17A     -0.602061    18A     -0.575554
      19A     -0.545379    20A     -0.529764    21A     -0.492113
      22A     -0.486198    23A     -0.479642    24A     -0.451031

  @DF-RHF Final Energy:  -305.98630107516999

   => Energetics <=

    Nuclear Repulsion Energy =            247.3632720713349045
    One-Electron Energy =                -907.5240821735894770
    Two-Electron Energy =                 354.1745090270845822
    Total Energy =                       -305.9863010751699903
  Basis Set: (AUG-CC-PVTZ AUX)
    Blend: AUG-CC-PVTZ-RI
    Molecular point group: c1

    Geometry (in Angstrom), charge = 0, multiplicity = 1:

       Center              X                  Y                   Z               Mass
    ------------   -----------------  -----------------  -----------------  -----------------
         O           -1.526732876188    -0.937267526849     0.326174806370    15.994914619570
         O           -1.134292876188     1.146596473151    -0.462346193630    15.994914619570
         C            0.725893123812    -0.194565526849     0.354623806370    12.000000000000
         C            1.328712023812    -1.206674026849    -0.625296293630    12.000000000000
         C            1.552901123812     1.083003473151     0.378624806370    12.000000000000
         C           -0.713905576188     0.163299773151     0.091450506370    12.000000000000
         H            0.731441123812    -0.667615526849     1.343398806370     1.007825032230
         H            2.297773123812    -1.457642526849    -0.435823193630     1.007825032230
         H            1.221344123812    -0.787015526849    -1.671947193630     1.007825032230
         H            0.669164123812    -2.128409526849    -0.647394193630     1.007825032230
         H            1.541241123812     1.560305473151    -0.603456193630     1.007825032230
         H            2.587821123812     0.857036473151     0.648767806370     1.007825032230
         H            1.153357123812     1.798551473151     1.100920806370     1.007825032230
         H           -2.423339876188    -0.652612526849     0.052416806370     1.007825032230

  Basis Set: AUG-CC-PVTZ
    Blend: AUG-CC-PVTZ
  Basis Set: (AUG-CC-PVTZ AUX)
    Blend: AUG-CC-PVTZ-JKFIT
	 Reference Energy          =    -305.9863010751699903 [Eh]
	 Singles Energy            =      -0.0000000000000000 [Eh]
	 Same-Spin Energy          =      -0.3017783508758081 [Eh]
	 Opposite-Spin Energy      =      -0.9812141691830470 [Eh]
	 Correlation Energy        =      -1.2829925200588552 [Eh]
	 Total Energy              =    -307.2692935952288735 [Eh]

	 ================> DF-SCS-MP2 Energies <==================
	-----------------------------------------------------------
	 SCS Same-Spin Scale       =       0.3333333333333333 [-]
	 SCS Opposite-Spin Scale   =       1.2000000000000000 [-]
	 SCS Same-Spin Energy      =      -0.1005927836252694 [Eh]
	 SCS Opposite-Spin Energy  =      -1.1774570030196565 [Eh]
	 SCS Correlation Energy    =      -1.2780497866449259 [Eh]
	 SCS Total Energy          =    -307.2643508618149326 [Eh]
	-----------------------------------------------------------

  Dipole Moment: [D]
     X:     0.7288      Y:    -1.1831      Z:     0.5368     Total:     1.4897

*** Psi4 exiting successfully. Buy a developer a beer!
