                               Psi4 1.4a3.dev225

  ==> Input File <==

--------------------------------------------------------------------------
#psi4
#
memory 32 gb

molecule  {
0 1
  O       -1.6617030     0.7577680    -0.4073030
  O       -1.1227790    -1.2129920     0.5672640
  C        0.6404470     0.1718450    -0.3932210
  C        1.0928880     1.3538930     0.4742710
  C        1.5672530    -1.0291100    -0.2532030
  C       -0.7802028    -0.2206643    -0.0135281
  H        0.6138910     0.5049790    -1.4379290
  H        2.1115010     1.6456430     0.2036890
  H        1.0897110     1.0707860     1.5315760
  H        0.4361920     2.2162520     0.3415930
  H        1.5885520    -1.3743970     0.7830710
  H        2.5826960    -0.7552260    -0.5531760
  H        1.2333040    -1.8624340    -0.8759310
  H       -2.5365610     0.4411560    -0.1004010
units angstrom
no_reorient  #important for SAPT in psi4, default
symmetry c1  #important for SAPT in psi4, default
}

set PROPERTIES_ORIGIN ["COM"]
properties('MP2/aug-cc-pvtz', properties = ['dipole'])
--------------------------------------------------------------------------

    Molecular point group: c1
  Charge       = 0
  Multiplicity = 1
  Basis Set: AUG-CC-PVTZ
    Blend: AUG-CC-PVTZ
  Basis Set: (AUG-CC-PVTZ AUX)
    Blend: AUG-CC-PVTZ-JKFIT

    Orbital Energies [Eh]
    ---------------------

    Doubly Occupied:

       1A    -20.610819     2A    -20.554414     3A    -11.384281
       4A    -11.253531     5A    -11.230777     6A    -11.220616
       7A     -1.459143     8A     -1.362971     9A     -1.093812
      10A     -0.942996    11A     -0.892295    12A     -0.769588
      13A     -0.706125    14A     -0.691871    15A     -0.642068
      16A     -0.610459    17A     -0.602367    18A     -0.559983
      19A     -0.548840    20A     -0.527618    21A     -0.498058
      22A     -0.491615    23A     -0.484061    24A     -0.446013

  @DF-RHF Final Energy:  -305.99895760230379

   => Energetics <=

    Nuclear Repulsion Energy =            247.5490763479505461
    One-Electron Energy =                -907.9274254793816681
    Two-Electron Energy =                 354.3793915291273606
    Total Energy =                       -305.9989576023037898
  Basis Set: (AUG-CC-PVTZ AUX)
    Blend: AUG-CC-PVTZ-RI
    Molecular point group: c1

    Geometry (in Angstrom), charge = 0, multiplicity = 1:

       Center              X                  Y                   Z               Mass
    ------------   -----------------  -----------------  -----------------  -----------------
         O           -1.580865539319     0.781256070399    -0.409824680380    15.994914619570
         O           -1.041941539319    -1.189503929601     0.564742319620    15.994914619570
         C            0.721284460681     0.195333070399    -0.395742680380    12.000000000000
         C            1.173725460681     1.377381070399     0.471749319620    12.000000000000
         C            1.648090460681    -1.005621929601    -0.255724680380    12.000000000000
         C           -0.699365339319    -0.197176229601    -0.016049780380    12.000000000000
         H            0.694728460681     0.528467070399    -1.440450680380     1.007825032230
         H            2.192338460681     1.669131070399     0.201167319620     1.007825032230
         H            1.170548460681     1.094274070399     1.529054319620     1.007825032230
         H            0.517029460681     2.239740070399     0.339071319620     1.007825032230
         H            1.669389460681    -1.350908929601     0.780549319620     1.007825032230
         H            2.663533460681    -0.731737929601    -0.555697680380     1.007825032230
         H            1.314141460681    -1.838945929601    -0.878452680380     1.007825032230
         H           -2.455723539319     0.464644070399    -0.102922680380     1.007825032230

  Basis Set: AUG-CC-PVTZ
    Blend: AUG-CC-PVTZ
  Basis Set: (AUG-CC-PVTZ AUX)
    Blend: AUG-CC-PVTZ-JKFIT
	 Reference Energy          =    -305.9989576023037898 [Eh]
	 Singles Energy            =      -0.0000000000000000 [Eh]
	 Same-Spin Energy          =      -0.3012137484124158 [Eh]
	 Opposite-Spin Energy      =      -0.9797364154583661 [Eh]
	 Correlation Energy        =      -1.2809501638707819 [Eh]
	 Total Energy              =    -307.2799077661745741 [Eh]

	 ================> DF-SCS-MP2 Energies <==================
	-----------------------------------------------------------
	 SCS Same-Spin Scale       =       0.3333333333333333 [-]
	 SCS Opposite-Spin Scale   =       1.2000000000000000 [-]
	 SCS Same-Spin Energy      =      -0.1004045828041386 [Eh]
	 SCS Opposite-Spin Energy  =      -1.1756836985500392 [Eh]
	 SCS Correlation Energy    =      -1.2760882813541778 [Eh]
	 SCS Total Energy          =    -307.2750458836579810 [Eh]
	-----------------------------------------------------------

  Dipole Moment: [D]
     X:     0.5586      Y:     1.2518      Z:    -0.6146     Total:     1.5023

*** Psi4 exiting successfully. Buy a developer a beer!
