                               Psi4 1.4a3.dev225

  ==> Input File <==

--------------------------------------------------------------------------
#psi4
#
memory 32 gb

molecule  {
0 1
  O       -1.6617030     0.7577680    -0.4073030
  O       -1.1227790    -1.2129920     0.5672640
  C        0.6404470     0.1718450    -0.3932210
  C        1.0928880     1.3538930     0.4742710
  C        1.5672530    -1.0291100    -0.2532030
  C       -0.7744920    -0.2041220    -0.0232100
  H        0.6138910     0.5049790    -1.4379290
  H        2.1115010     1.6456430     0.2036890
  H        1.0897110     1.0707860     1.5315760
  H        0.4361920     2.2162520     0.3415930
  H        1.5885520    -1.3743970     0.7830710
  H        2.5826960    -0.7552260    -0.5531760
  H        1.2333040    -1.8624340    -0.8759310
  H       -2.4919116     0.4573147    -0.1160641
units angstrom
no_reorient  #important for SAPT in psi4, default
symmetry c1  #important for SAPT in psi4, default
}

set PROPERTIES_ORIGIN ["COM"]
properties('MP2/aug-cc-pvtz', properties = ['dipole'])
--------------------------------------------------------------------------

    Molecular point group: c1
  Charge       = 0
  Multiplicity = 1
  Basis Set: AUG-CC-PVTZ
    Blend: AUG-CC-PVTZ
  Basis Set: (AUG-CC-PVTZ AUX)
    Blend: AUG-CC-PVTZ-JKFIT

    Orbital Energies [Eh]
    ---------------------

    Doubly Occupied:

       1A    -20.610765     2A    -20.551763     3A    -11.387028
       4A    -11.254285     5A    -11.232099     6A    -11.221292
       7A     -1.465930     8A     -1.359770     9A     -1.097114
      10A     -0.944112    11A     -0.902045    12A     -0.779573
      13A     -0.710073    14A     -0.692615    15A     -0.642473
      16A     -0.610997    17A     -0.603658    18A     -0.561346
      19A     -0.549467    20A     -0.527454    21A     -0.498330
      22A     -0.493202    23A     -0.479804    24A     -0.447420

  @DF-RHF Final Energy:  -305.99891070537251

   => Energetics <=

    Nuclear Repulsion Energy =            247.8243304677818060
    One-Electron Energy =                -908.4012527600649491
    Two-Electron Energy =                 354.5780115869106339
    Total Energy =                       -305.9989107053725093
  Basis Set: (AUG-CC-PVTZ AUX)
    Blend: AUG-CC-PVTZ-RI
    Molecular point group: c1

    Geometry (in Angstrom), charge = 0, multiplicity = 1:

       Center              X                  Y                   Z               Mass
    ------------   -----------------  -----------------  -----------------  -----------------
         O           -1.582154866412     0.778816697135    -0.408325931680    15.994914619570
         O           -1.043230866412    -1.191943302865     0.566241068320    15.994914619570
         C            0.719995133588     0.192893697135    -0.394243931680    12.000000000000
         C            1.172436133588     1.374941697135     0.473248068320    12.000000000000
         C            1.646801133588    -1.008061302865    -0.254225931680    12.000000000000
         C           -0.694943866412    -0.183073302865    -0.024232931680    12.000000000000
         H            0.693439133588     0.526027697135    -1.438951931680     1.007825032230
         H            2.191049133588     1.666691697135     0.202666068320     1.007825032230
         H            1.169259133588     1.091834697135     1.530553068320     1.007825032230
         H            0.515740133588     2.237300697135     0.340570068320     1.007825032230
         H            1.668100133588    -1.353348302865     0.782048068320     1.007825032230
         H            2.662244133588    -0.734177302865    -0.554198931680     1.007825032230
         H            1.312852133588    -1.841385302865    -0.876953931680     1.007825032230
         H           -2.412363466412     0.478363397135    -0.117087031680     1.007825032230

  Basis Set: AUG-CC-PVTZ
    Blend: AUG-CC-PVTZ
  Basis Set: (AUG-CC-PVTZ AUX)
    Blend: AUG-CC-PVTZ-JKFIT
	 Reference Energy          =    -305.9989107053725093 [Eh]
	 Singles Energy            =      -0.0000000000000000 [Eh]
	 Same-Spin Energy          =      -0.3009605932779263 [Eh]
	 Opposite-Spin Energy      =      -0.9789463818350471 [Eh]
	 Correlation Energy        =      -1.2799069751129735 [Eh]
	 Total Energy              =    -307.2788176804854743 [Eh]

	 ================> DF-SCS-MP2 Energies <==================
	-----------------------------------------------------------
	 SCS Same-Spin Scale       =       0.3333333333333333 [-]
	 SCS Opposite-Spin Scale   =       1.2000000000000000 [-]
	 SCS Same-Spin Energy      =      -0.1003201977593088 [Eh]
	 SCS Opposite-Spin Energy  =      -1.1747356582020565 [Eh]
	 SCS Correlation Energy    =      -1.2750558559613652 [Eh]
	 SCS Total Energy          =    -307.2739665613338502 [Eh]
	-----------------------------------------------------------

  Dipole Moment: [D]
     X:     0.6325      Y:     1.3809      Z:    -0.6875     Total:     1.6672

*** Psi4 exiting successfully. Buy a developer a beer!
