                               Psi4 1.3.2 release

  ==> Input File <==

--------------------------------------------------------------------------
#psi4
#
memory 32 gb

molecule  {
0 1
  O       -1.5722983    -0.8921794     0.3150863
  O       -1.1833330     1.1281230    -0.4479841
  C        0.7353610    -0.1875570     0.3681900
  C        1.2675140    -1.2018710    -0.6496400
  C        1.5623690     1.0900120     0.3921910
  C       -0.7032450     0.1210870     0.0433830
  H        0.7409090    -0.6606070     1.3569650
  H        2.3072410    -1.4506340    -0.4222570
  H        1.2308120    -0.7800070    -1.6583810
  H        0.6786320    -2.1214010    -0.6338280
  H        1.5507090     1.5673140    -0.5898900
  H        2.5972890     0.8640450     0.6623340
  H        1.1628250     1.8055600     1.1144870
  H       -2.4138720    -0.6456040     0.0659830
units angstrom
no_reorient  #important for SAPT in psi4, default
symmetry c1  #important for SAPT in psi4, default
}

set PROPERTIES_ORIGIN ["COM"]
properties('MP2/aug-cc-pvtz', properties = ['dipole'])
--------------------------------------------------------------------------

    Molecular point group: c1
  Charge       = 0
  Multiplicity = 1
  Basis Set: AUG-CC-PVTZ
    Blend: AUG-CC-PVTZ
  Basis Set: (AUG-CC-PVTZ AUX)
    Blend: AUG-CC-PVTZ-JKFIT

    Orbital Energies [Eh]
    ---------------------

    Doubly Occupied:

       1A    -20.598967     2A    -20.545852     3A    -11.385340
       4A    -11.259609     5A    -11.234542     6A    -11.224801
       7A     -1.466001     8A     -1.350649     9A     -1.102360
      10A     -0.947657    11A     -0.905635    12A     -0.787253
      13A     -0.706524    14A     -0.691065    15A     -0.640801
      16A     -0.612273    17A     -0.600348    18A     -0.563993
      19A     -0.551113    20A     -0.528882    21A     -0.501015
      22A     -0.496286    23A     -0.474017    24A     -0.446644

  @DF-RHF Final Energy:  -305.99675705815338

   => Energetics <=

    Nuclear Repulsion Energy =            247.7135730614545253
    One-Electron Energy =                -908.1774033258163854
    Two-Electron Energy =                 354.4670732062084539
    Total Energy =                       -305.9967570581533778
  Basis Set: (AUG-CC-PVTZ AUX)
    Blend: AUG-CC-PVTZ-RI
    Molecular point group: c1

    Geometry (in Angstrom), charge = 0, multiplicity = 1:

       Center              X                  Y                   Z               Mass
    ------------   -----------------  -----------------  -----------------  -----------------
         O           -1.551673175752    -0.894467738366     0.319420153852    15.994914619570
         O           -1.162707875752     1.125834661634    -0.443650246148    15.994914619570
         C            0.755986124248    -0.189845338366     0.372523853852    12.000000000000
         C            1.288139124248    -1.204159338366    -0.645306146148    12.000000000000
         C            1.582994124248     1.087723661634     0.396524853852    12.000000000000
         C           -0.682619875752     0.118798661634     0.047716853852    12.000000000000
         H            0.761534124248    -0.662895338366     1.361298853852     1.007825032230
         H            2.327866124248    -1.452922338366    -0.417923146148     1.007825032230
         H            1.251437124248    -0.782295338366    -1.654047146148     1.007825032230
         H            0.699257124248    -2.123689338366    -0.629494146148     1.007825032230
         H            1.571334124248     1.565025661634    -0.585556146148     1.007825032230
         H            2.617914124248     0.861756661634     0.666667853852     1.007825032230
         H            1.183450124248     1.803271661634     1.118820853852     1.007825032230
         H           -2.393246875752    -0.647892338366     0.070316853852     1.007825032230

  Basis Set: AUG-CC-PVTZ
    Blend: AUG-CC-PVTZ
  Basis Set: (AUG-CC-PVTZ AUX)
    Blend: AUG-CC-PVTZ-JKFIT
	 Reference Energy          =    -305.9967570581533778 [Eh]
	 Singles Energy            =      -0.0000000000000000 [Eh]
	 Same-Spin Energy          =      -0.3002528968455653 [Eh]
	 Opposite-Spin Energy      =      -0.9774319574629170 [Eh]
	 Correlation Energy        =      -1.2776848543084822 [Eh]
	 Total Energy              =    -307.2744419124618389 [Eh]

	 ================> DF-SCS-MP2 Energies <==================
	-----------------------------------------------------------
	 SCS Same-Spin Scale       =       0.3333333333333333 [-]
	 SCS Opposite-Spin Scale   =       1.2000000000000000 [-]
	 SCS Same-Spin Energy      =      -0.1000842989485217 [Eh]
	 SCS Opposite-Spin Energy  =      -1.1729183489555004 [Eh]
	 SCS Correlation Energy    =      -1.2730026479040222 [Eh]
	 SCS Total Energy          =    -307.2697597060574140 [Eh]
	-----------------------------------------------------------

  Dipole Moment: [D]
     X:     1.0318      Y:    -1.3619      Z:     0.5650     Total:     1.7997

*** Psi4 exiting successfully. Buy a developer a beer!
