                               Psi4 1.4a3.dev225

  ==> Input File <==

--------------------------------------------------------------------------
#psi4
#
memory 32 gb

molecule  {
0 1
  O       -1.6617030     0.7577680    -0.4073030
  O       -1.1227790    -1.2129920     0.5672640
  C        0.6404470     0.1718450    -0.3932210
  C        1.0928880     1.3538930     0.4742710
  C        1.5672530    -1.0291100    -0.2532030
  C       -0.7744920    -0.2041220    -0.0232100
  H        0.6138910     0.5049790    -1.4379290
  H        2.1115010     1.6456430     0.2036890
  H        1.0897110     1.0707860     1.5315760
  H        0.4361920     2.2162520     0.3415930
  H        1.5885520    -1.3743970     0.7830710
  H        2.5826960    -0.7552260    -0.5531760
  H        1.2333040    -1.8624340    -0.8759310
  H       -2.5812104     0.4249973    -0.0847379
units angstrom
no_reorient  #important for SAPT in psi4, default
symmetry c1  #important for SAPT in psi4, default
}

set PROPERTIES_ORIGIN ["COM"]
properties('MP2/aug-cc-pvtz', properties = ['dipole'])
--------------------------------------------------------------------------

    Molecular point group: c1
  Charge       = 0
  Multiplicity = 1
  Basis Set: AUG-CC-PVTZ
    Blend: AUG-CC-PVTZ
  Basis Set: (AUG-CC-PVTZ AUX)
    Blend: AUG-CC-PVTZ-JKFIT

    Orbital Energies [Eh]
    ---------------------

    Doubly Occupied:

       1A    -20.617072     2A    -20.549827     3A    -11.385138
       4A    -11.253838     5A    -11.231469     6A    -11.220830
       7A     -1.451253     8A     -1.349977     9A     -1.095284
      10A     -0.943313    11A     -0.892047    12A     -0.767592
      13A     -0.699904    14A     -0.690090    15A     -0.640154
      16A     -0.609035    17A     -0.597903    18A     -0.560046
      19A     -0.548511    20A     -0.524600    21A     -0.497408
      22A     -0.492109    23A     -0.477560    24A     -0.445830

  @DF-RHF Final Energy:  -305.99305939577846

   => Energetics <=

    Nuclear Repulsion Energy =            247.2223330265756829
    One-Electron Energy =                -907.3492030967084929
    Two-Electron Energy =                 354.1338106743543221
    Total Energy =                       -305.9930593957784595
  Basis Set: (AUG-CC-PVTZ AUX)
    Blend: AUG-CC-PVTZ-RI
    Molecular point group: c1

    Geometry (in Angstrom), charge = 0, multiplicity = 1:

       Center              X                  Y                   Z               Mass
    ------------   -----------------  -----------------  -----------------  -----------------
         O           -1.581132775750     0.779186593626    -0.408684483156    15.994914619570
         O           -1.042208775750    -1.191573406374     0.565882516844    15.994914619570
         C            0.721017224250     0.193263593626    -0.394602483156    12.000000000000
         C            1.173458224250     1.375311593626     0.472889516844    12.000000000000
         C            1.647823224250    -1.007691406374    -0.254584483156    12.000000000000
         C           -0.693921775750    -0.182703406374    -0.024591483156    12.000000000000
         H            0.694461224250     0.526397593626    -1.439310483156     1.007825032230
         H            2.192071224250     1.667061593626     0.202307516844     1.007825032230
         H            1.170281224250     1.092204593626     1.530194516844     1.007825032230
         H            0.516762224250     2.237670593626     0.340211516844     1.007825032230
         H            1.669122224250    -1.352978406374     0.781689516844     1.007825032230
         H            2.663266224250    -0.733807406374    -0.554557483156     1.007825032230
         H            1.313874224250    -1.841015406374    -0.877312483156     1.007825032230
         H           -2.500640175750     0.446415893626    -0.086119383156     1.007825032230

  Basis Set: AUG-CC-PVTZ
    Blend: AUG-CC-PVTZ
  Basis Set: (AUG-CC-PVTZ AUX)
    Blend: AUG-CC-PVTZ-JKFIT
	 Reference Energy          =    -305.9930593957784595 [Eh]
	 Singles Energy            =      -0.0000000000000000 [Eh]
	 Same-Spin Energy          =      -0.3022492542066229 [Eh]
	 Opposite-Spin Energy      =      -0.9819522181367397 [Eh]
	 Correlation Energy        =      -1.2842014723433626 [Eh]
	 Total Energy              =    -307.2772608681218003 [Eh]

	 ================> DF-SCS-MP2 Energies <==================
	-----------------------------------------------------------
	 SCS Same-Spin Scale       =       0.3333333333333333 [-]
	 SCS Opposite-Spin Scale   =       1.2000000000000000 [-]
	 SCS Same-Spin Energy      =      -0.1007497514022076 [Eh]
	 SCS Opposite-Spin Energy  =      -1.1783426617640875 [Eh]
	 SCS Correlation Energy    =      -1.2790924131662951 [Eh]
	 SCS Total Energy          =    -307.2721518089447272 [Eh]
	-----------------------------------------------------------

  Dipole Moment: [D]
     X:     0.5167      Y:     1.3685      Z:    -0.6643     Total:     1.6066

*** Psi4 exiting successfully. Buy a developer a beer!
