                               Psi4 1.4a3.dev225

  ==> Input File <==

--------------------------------------------------------------------------
#psi4
#
memory 32 gb

molecule  {
0 1
  O       -1.6617030     0.7577680    -0.4073030
  O       -1.1227790    -1.2129920     0.5672640
  C        0.6404470     0.1718450    -0.3932210
  C        1.0928880     1.3538930     0.4742710
  C        1.5672530    -1.0291100    -0.2532030
  C       -0.7887690    -0.2454777     0.0009948
  H        0.6138910     0.5049790    -1.4379290
  H        2.1115010     1.6456430     0.2036890
  H        1.0897110     1.0707860     1.5315760
  H        0.4361920     2.2162520     0.3415930
  H        1.5885520    -1.3743970     0.7830710
  H        2.5826960    -0.7552260    -0.5531760
  H        1.2333040    -1.8624340    -0.8759310
  H       -2.5365610     0.4411560    -0.1004010
units angstrom
no_reorient  #important for SAPT in psi4, default
symmetry c1  #important for SAPT in psi4, default
}

set PROPERTIES_ORIGIN ["COM"]
properties('MP2/aug-cc-pvtz', properties = ['dipole'])
--------------------------------------------------------------------------

    Molecular point group: c1
  Charge       = 0
  Multiplicity = 1
  Basis Set: AUG-CC-PVTZ
    Blend: AUG-CC-PVTZ
  Basis Set: (AUG-CC-PVTZ AUX)
    Blend: AUG-CC-PVTZ-JKFIT

    Orbital Energies [Eh]
    ---------------------

    Doubly Occupied:

       1A    -20.605573     2A    -20.559814     3A    -11.381462
       4A    -11.252725     5A    -11.229298     6A    -11.219987
       7A     -1.466272     8A     -1.370931     9A     -1.090400
      10A     -0.941983    11A     -0.885702    12A     -0.764663
      13A     -0.708270    14A     -0.693330    15A     -0.644144
      16A     -0.613150    17A     -0.602211    18A     -0.559222
      19A     -0.548751    20A     -0.530133    21A     -0.500495
      22A     -0.490194    23A     -0.488857    24A     -0.443635

  @DF-RHF Final Energy:  -305.99737586622695

   => Energetics <=

    Nuclear Repulsion Energy =            247.6258721182328770
    One-Electron Energy =                -908.0640929457933908
    Two-Electron Energy =                 354.4408449613335392
    Total Energy =                       -305.9973758662269461
  Basis Set: (AUG-CC-PVTZ AUX)
    Blend: AUG-CC-PVTZ-RI
    Molecular point group: c1

    Geometry (in Angstrom), charge = 0, multiplicity = 1:

       Center              X                  Y                   Z               Mass
    ------------   -----------------  -----------------  -----------------  -----------------
         O           -1.579698116676     0.784637701112    -0.411803896638    15.994914619570
         O           -1.040774116676    -1.186122298888     0.562763103362    15.994914619570
         C            0.722451883324     0.198714701112    -0.397721896638    12.000000000000
         C            1.174892883324     1.380762701112     0.469770103362    12.000000000000
         C            1.649257883324    -1.002240298888    -0.257703896638    12.000000000000
         C           -0.706764116676    -0.218607998888    -0.003506096638    12.000000000000
         H            0.695895883324     0.531848701112    -1.442429896638     1.007825032230
         H            2.193505883324     1.672512701112     0.199188103362     1.007825032230
         H            1.171715883324     1.097655701112     1.527075103362     1.007825032230
         H            0.518196883324     2.243121701112     0.337092103362     1.007825032230
         H            1.670556883324    -1.347527298888     0.778570103362     1.007825032230
         H            2.664700883324    -0.728356298888    -0.557676896638     1.007825032230
         H            1.315308883324    -1.835564298888    -0.880431896638     1.007825032230
         H           -2.454556116676     0.468025701112    -0.104901896638     1.007825032230

  Basis Set: AUG-CC-PVTZ
    Blend: AUG-CC-PVTZ
  Basis Set: (AUG-CC-PVTZ AUX)
    Blend: AUG-CC-PVTZ-JKFIT
	 Reference Energy          =    -305.9973758662269461 [Eh]
	 Singles Energy            =      -0.0000000000000000 [Eh]
	 Same-Spin Energy          =      -0.3006688923519201 [Eh]
	 Opposite-Spin Energy      =      -0.9787940620580087 [Eh]
	 Correlation Energy        =      -1.2794629544099287 [Eh]
	 Total Energy              =    -307.2768388206368968 [Eh]

	 ================> DF-SCS-MP2 Energies <==================
	-----------------------------------------------------------
	 SCS Same-Spin Scale       =       0.3333333333333333 [-]
	 SCS Opposite-Spin Scale   =       1.2000000000000000 [-]
	 SCS Same-Spin Energy      =      -0.1002229641173067 [Eh]
	 SCS Opposite-Spin Energy  =      -1.1745528744696103 [Eh]
	 SCS Correlation Energy    =      -1.2747758385869170 [Eh]
	 SCS Total Energy          =    -307.2721517048138367 [Eh]
	-----------------------------------------------------------

  Dipole Moment: [D]
     X:     0.5368      Y:     1.0596      Z:    -0.5184     Total:     1.2960

*** Psi4 exiting successfully. Buy a developer a beer!
