                               Psi4 1.3.2 release

  ==> Input File <==

--------------------------------------------------------------------------
#psi4
#
memory 32 gb

molecule  {
0 1
  O       -1.5172650    -0.9302590     0.3397410
  O       -1.1248250     1.1536050    -0.4487800
  C        0.7353610    -0.1875570     0.3681900
  C        1.2793982    -1.2016964    -0.6435127
  C        1.5623690     1.0900120     0.3921910
  C       -0.7037178     0.1293530     0.0535980
  H        0.7409090    -0.6606070     1.3569650
  H        2.3072410    -1.4506340    -0.4222570
  H        1.2308120    -0.7800070    -1.6583810
  H        0.6786320    -2.1214010    -0.6338280
  H        1.5507090     1.5673140    -0.5898900
  H        2.5972890     0.8640450     0.6623340
  H        1.1628250     1.8055600     1.1144870
  H       -2.4138720    -0.6456040     0.0659830
units angstrom
no_reorient  #important for SAPT in psi4, default
symmetry c1  #important for SAPT in psi4, default
}

set PROPERTIES_ORIGIN ["COM"]
properties('MP2/aug-cc-pvtz', properties = ['dipole'])
--------------------------------------------------------------------------

    Molecular point group: c1
  Charge       = 0
  Multiplicity = 1
  Basis Set: AUG-CC-PVTZ
    Blend: AUG-CC-PVTZ
  Basis Set: (AUG-CC-PVTZ AUX)
    Blend: AUG-CC-PVTZ-JKFIT

    Orbital Energies [Eh]
    ---------------------

    Doubly Occupied:

       1A    -20.613401     2A    -20.551469     3A    -11.385598
       4A    -11.253069     5A    -11.231639     6A    -11.220715
       7A     -1.457977     8A     -1.356309     9A     -1.097063
      10A     -0.943902    11A     -0.897162    12A     -0.771992
      13A     -0.705764    14A     -0.691646    15A     -0.641617
      16A     -0.609601    17A     -0.602067    18A     -0.561592
      19A     -0.550010    20A     -0.527088    21A     -0.496902
      22A     -0.491745    23A     -0.479278    24A     -0.447652

  @DF-RHF Final Energy:  -305.99808289005864

   => Energetics <=

    Nuclear Repulsion Energy =            247.7524405189508627
    One-Electron Energy =                -908.3305375608249506
    Two-Electron Energy =                 354.5800141518154760
    Total Energy =                       -305.9980828900586403
  Basis Set: (AUG-CC-PVTZ AUX)
    Blend: AUG-CC-PVTZ-RI
    Molecular point group: c1

    Geometry (in Angstrom), charge = 0, multiplicity = 1:

       Center              X                  Y                   Z               Mass
    ------------   -----------------  -----------------  -----------------  -----------------
         O           -1.518820072374    -0.931409262597     0.337513682602    15.994914619570
         O           -1.126380072374     1.152454737403    -0.451007317398    15.994914619570
         C            0.733805927626    -0.188707262597     0.365962682602    12.000000000000
         C            1.277843127626    -1.202846662597    -0.645740017398    12.000000000000
         C            1.560813927626     1.088861737403     0.389963682602    12.000000000000
         C           -0.705272872374     0.128202737403     0.051370682602    12.000000000000
         H            0.739353927626    -0.661757262597     1.354737682602     1.007825032230
         H            2.305685927626    -1.451784262597    -0.424484317398     1.007825032230
         H            1.229256927626    -0.781157262597    -1.660608317398     1.007825032230
         H            0.677076927626    -2.122551262597    -0.636055317398     1.007825032230
         H            1.549153927626     1.566163737403    -0.592117317398     1.007825032230
         H            2.595733927626     0.862894737403     0.660106682602     1.007825032230
         H            1.161269927626     1.804409737403     1.112259682602     1.007825032230
         H           -2.415427072374    -0.646754262597     0.063755682602     1.007825032230

  Basis Set: AUG-CC-PVTZ
    Blend: AUG-CC-PVTZ
  Basis Set: (AUG-CC-PVTZ AUX)
    Blend: AUG-CC-PVTZ-JKFIT
	 Reference Energy          =    -305.9980828900586403 [Eh]
	 Singles Energy            =      -0.0000000000000000 [Eh]
	 Same-Spin Energy          =      -0.3016175485820008 [Eh]
	 Opposite-Spin Energy      =      -0.9803532523373356 [Eh]
	 Correlation Energy        =      -1.2819708009193365 [Eh]
	 Total Energy              =    -307.2800536909779794 [Eh]

	 ================> DF-SCS-MP2 Energies <==================
	-----------------------------------------------------------
	 SCS Same-Spin Scale       =       0.3333333333333333 [-]
	 SCS Opposite-Spin Scale   =       1.2000000000000000 [-]
	 SCS Same-Spin Energy      =      -0.1005391828606669 [Eh]
	 SCS Opposite-Spin Energy  =      -1.1764239028048027 [Eh]
	 SCS Correlation Energy    =      -1.2769630856654697 [Eh]
	 SCS Total Energy          =    -307.2750459757240833 [Eh]
	-----------------------------------------------------------

  Dipole Moment: [D]
     X:     0.6818      Y:    -1.3557      Z:     0.5337     Total:     1.6086

*** Psi4 exiting successfully. Buy a developer a beer!
