                               Psi4 1.3.2 release

  ==> Input File <==

--------------------------------------------------------------------------
#psi4
#
memory 32 gb

molecule  {
0 1
  O       -1.5172650    -0.9302590     0.3397410
  O       -1.1248250     1.1536050    -0.4487800
  C        0.7353610    -0.1875570     0.3681900
  C        1.2675140    -1.2018710    -0.6496400
  C        1.5623690     1.0900120     0.3921910
  C       -0.7629996     0.0439111     0.0651377
  H        0.7409090    -0.6606070     1.3569650
  H        2.3072410    -1.4506340    -0.4222570
  H        1.2308120    -0.7800070    -1.6583810
  H        0.6786320    -2.1214010    -0.6338280
  H        1.5507090     1.5673140    -0.5898900
  H        2.5972890     0.8640450     0.6623340
  H        1.1628250     1.8055600     1.1144870
  H       -2.4138720    -0.6456040     0.0659830
units angstrom
no_reorient  #important for SAPT in psi4, default
symmetry c1  #important for SAPT in psi4, default
}

set PROPERTIES_ORIGIN ["COM"]
properties('MP2/aug-cc-pvtz', properties = ['dipole'])
--------------------------------------------------------------------------

    Molecular point group: c1
  Charge       = 0
  Multiplicity = 1
  Basis Set: AUG-CC-PVTZ
    Blend: AUG-CC-PVTZ
  Basis Set: (AUG-CC-PVTZ AUX)
    Blend: AUG-CC-PVTZ-JKFIT

    Orbital Energies [Eh]
    ---------------------

    Doubly Occupied:

       1A    -20.642774     2A    -20.533640     3A    -11.386903
       4A    -11.252106     5A    -11.229213     6A    -11.217315
       7A     -1.507450     8A     -1.326722     9A     -1.088631
      10A     -0.940956    11A     -0.908799    12A     -0.796943
      13A     -0.721010    14A     -0.690583    15A     -0.658214
      16A     -0.615434    17A     -0.591432    18A     -0.562322
      19A     -0.545810    20A     -0.513676    21A     -0.494534
      22A     -0.490038    23A     -0.459178    24A     -0.432327

  @DF-RHF Final Energy:  -305.98423235240142

   => Energetics <=

    Nuclear Repulsion Energy =            247.7503975154634759
    One-Electron Energy =                -908.2572351202389882
    Two-Electron Energy =                 354.5226052523740350
    Total Energy =                       -305.9842323524014205
  Basis Set: (AUG-CC-PVTZ AUX)
    Blend: AUG-CC-PVTZ-RI
    Molecular point group: c1

    Geometry (in Angstrom), charge = 0, multiplicity = 1:

       Center              X                  Y                   Z               Mass
    ------------   -----------------  -----------------  -----------------  -----------------
         O           -1.509121396200    -0.919741237015     0.336776067520    15.994914619570
         O           -1.116681396200     1.164122762985    -0.451744932480    15.994914619570
         C            0.743504603800    -0.177039237015     0.365225067520    12.000000000000
         C            1.275657603800    -1.191353237015    -0.652604932480    12.000000000000
         C            1.570512603800     1.100529762985     0.389226067520    12.000000000000
         C           -0.754855996200     0.054428862985     0.062172767520    12.000000000000
         H            0.749052603800    -0.650089237015     1.354000067520     1.007825032230
         H            2.315384603800    -1.440116237015    -0.425221932480     1.007825032230
         H            1.238955603800    -0.769489237015    -1.661345932480     1.007825032230
         H            0.686775603800    -2.110883237015    -0.636792932480     1.007825032230
         H            1.558852603800     1.577831762985    -0.592854932480     1.007825032230
         H            2.605432603800     0.874562762985     0.659369067520     1.007825032230
         H            1.170968603800     1.816077762985     1.111522067520     1.007825032230
         H           -2.405728396200    -0.635086237015     0.063018067520     1.007825032230

  Basis Set: AUG-CC-PVTZ
    Blend: AUG-CC-PVTZ
  Basis Set: (AUG-CC-PVTZ AUX)
    Blend: AUG-CC-PVTZ-JKFIT
	 Reference Energy          =    -305.9842323524014205 [Eh]
	 Singles Energy            =      -0.0000000000000000 [Eh]
	 Same-Spin Energy          =      -0.3020994250500302 [Eh]
	 Opposite-Spin Energy      =      -0.9806093312478625 [Eh]
	 Correlation Energy        =      -1.2827087562978927 [Eh]
	 Total Energy              =    -307.2669411086993136 [Eh]

	 ================> DF-SCS-MP2 Energies <==================
	-----------------------------------------------------------
	 SCS Same-Spin Scale       =       0.3333333333333333 [-]
	 SCS Opposite-Spin Scale   =       1.2000000000000000 [-]
	 SCS Same-Spin Energy      =      -0.1006998083500101 [Eh]
	 SCS Opposite-Spin Energy  =      -1.1767311974974350 [Eh]
	 SCS Correlation Energy    =      -1.2774310058474452 [Eh]
	 SCS Total Energy          =    -307.2616633582488817 [Eh]
	-----------------------------------------------------------

  Dipole Moment: [D]
     X:     0.2294      Y:    -2.0153      Z:     0.7495     Total:     2.1624

*** Psi4 exiting successfully. Buy a developer a beer!
