                               Psi4 1.3.2 release

  ==> Input File <==

--------------------------------------------------------------------------
#psi4
#
memory 32 gb

molecule  {
0 1
  O       -1.5172650    -0.9302590     0.3397410
  O       -1.1248250     1.1536050    -0.4487800
  C        0.7353610    -0.1875570     0.3681900
  C        1.2675140    -1.2018710    -0.6496400
  C        1.5623690     1.0900120     0.3921910
  C       -0.6663665     0.0961799     0.0601341
  H        0.7409090    -0.6606070     1.3569650
  H        2.3072410    -1.4506340    -0.4222570
  H        1.2308120    -0.7800070    -1.6583810
  H        0.6786320    -2.1214010    -0.6338280
  H        1.5507090     1.5673140    -0.5898900
  H        2.5972890     0.8640450     0.6623340
  H        1.1628250     1.8055600     1.1144870
  H       -2.4260066    -0.6758145     0.0764490
units angstrom
no_reorient  #important for SAPT in psi4, default
symmetry c1  #important for SAPT in psi4, default
}

set PROPERTIES_ORIGIN ["COM"]
properties('MP2/aug-cc-pvtz', properties = ['dipole'])
--------------------------------------------------------------------------

    Molecular point group: c1
  Charge       = 0
  Multiplicity = 1
  Basis Set: AUG-CC-PVTZ
    Blend: AUG-CC-PVTZ
  Basis Set: (AUG-CC-PVTZ AUX)
    Blend: AUG-CC-PVTZ-JKFIT

    Orbital Energies [Eh]
    ---------------------

    Doubly Occupied:

       1A    -20.614393     2A    -20.544085     3A    -11.389816
       4A    -11.254665     5A    -11.235099     6A    -11.223141
       7A     -1.449963     8A     -1.331648     9A     -1.106813
      10A     -0.947157    11A     -0.907857    12A     -0.779105
      13A     -0.704806    14A     -0.687186    15A     -0.638763
      16A     -0.610756    17A     -0.592787    18A     -0.561906
      19A     -0.550533    20A     -0.526021    21A     -0.499979
      22A     -0.495774    23A     -0.464861    24A     -0.447087

  @DF-RHF Final Energy:  -305.99047054115351

   => Energetics <=

    Nuclear Repulsion Energy =            247.7343271292268980
    One-Electron Energy =                -908.3211907816495341
    Two-Electron Energy =                 354.5963931112690943
    Total Energy =                       -305.9904705411535133
  Basis Set: (AUG-CC-PVTZ AUX)
    Blend: AUG-CC-PVTZ-RI
    Molecular point group: c1

    Geometry (in Angstrom), charge = 0, multiplicity = 1:

       Center              X                  Y                   Z               Mass
    ------------   -----------------  -----------------  -----------------  -----------------
         O           -1.522151901467    -0.926518775184     0.337338179247    15.994914619570
         O           -1.129711901467     1.157345224816    -0.451182820753    15.994914619570
         C            0.730474098533    -0.183816775184     0.365787179247    12.000000000000
         C            1.262627098533    -1.198130775184    -0.652042820753    12.000000000000
         C            1.557482098533     1.093752224816     0.389788179247    12.000000000000
         C           -0.671253401467     0.099920124816     0.057731279247    12.000000000000
         H            0.736022098533    -0.656866775184     1.354562179247     1.007825032230
         H            2.302354098533    -1.446893775184    -0.424659820753     1.007825032230
         H            1.225925098533    -0.776266775184    -1.660783820753     1.007825032230
         H            0.673745098533    -2.117660775184    -0.636230820753     1.007825032230
         H            1.545822098533     1.571054224816    -0.592292820753     1.007825032230
         H            2.592402098533     0.867785224816     0.659931179247     1.007825032230
         H            1.157938098533     1.809300224816     1.112084179247     1.007825032230
         H           -2.430893501467    -0.672074275184     0.074046179247     1.007825032230

  Basis Set: AUG-CC-PVTZ
    Blend: AUG-CC-PVTZ
  Basis Set: (AUG-CC-PVTZ AUX)
    Blend: AUG-CC-PVTZ-JKFIT
	 Reference Energy          =    -305.9904705411535133 [Eh]
	 Singles Energy            =      -0.0000000000000000 [Eh]
	 Same-Spin Energy          =      -0.3027592075481614 [Eh]
	 Opposite-Spin Energy      =      -0.9824411938777790 [Eh]
	 Correlation Energy        =      -1.2852004014259404 [Eh]
	 Total Energy              =    -307.2756709425794384 [Eh]

	 ================> DF-SCS-MP2 Energies <==================
	-----------------------------------------------------------
	 SCS Same-Spin Scale       =       0.3333333333333333 [-]
	 SCS Opposite-Spin Scale   =       1.2000000000000000 [-]
	 SCS Same-Spin Energy      =      -0.1009197358493871 [Eh]
	 SCS Opposite-Spin Energy  =      -1.1789294326533346 [Eh]
	 SCS Correlation Energy    =      -1.2798491685027218 [Eh]
	 SCS Total Energy          =    -307.2703197096562349 [Eh]
	-----------------------------------------------------------

  Dipole Moment: [D]
     X:     0.8464      Y:    -1.5863      Z:     0.6169     Total:     1.9009

*** Psi4 exiting successfully. Buy a developer a beer!
