                               Psi4 1.3.2 release

  ==> Input File <==

--------------------------------------------------------------------------
#psi4
#
memory 32 gb

molecule  {
0 1
  O       -1.5172650    -0.9302590     0.3397410
  O       -1.1248250     1.1536050    -0.4487800
  C        0.7353610    -0.1875570     0.3681900
  C        1.2675140    -1.2018710    -0.6496400
  C        1.5623690     1.0900120     0.3921910
  C       -0.7032450     0.1210870     0.0433830
  H        0.7409090    -0.6606070     1.3569650
  H        2.3072410    -1.4506340    -0.4222570
  H        1.2308120    -0.7800070    -1.6583810
  H        0.6786320    -2.1214010    -0.6338280
  H        1.5507090     1.5673140    -0.5898900
  H        2.5972890     0.8640450     0.6623340
  H        1.1628250     1.8055600     1.1144870
  H       -2.2308410    -0.7037127     0.1218672
units angstrom
no_reorient  #important for SAPT in psi4, default
symmetry c1  #important for SAPT in psi4, default
}

set PROPERTIES_ORIGIN ["COM"]
properties('MP2/aug-cc-pvtz', properties = ['dipole'])
--------------------------------------------------------------------------

    Molecular point group: c1
  Charge       = 0
  Multiplicity = 1
  Basis Set: AUG-CC-PVTZ
    Blend: AUG-CC-PVTZ
  Basis Set: (AUG-CC-PVTZ AUX)
    Blend: AUG-CC-PVTZ-JKFIT

    Orbital Energies [Eh]
    ---------------------

    Doubly Occupied:

       1A    -20.597374     2A    -20.554556     3A    -11.389390
       4A    -11.254189     5A    -11.232893     6A    -11.221870
       7A     -1.504144     8A     -1.375201     9A     -1.101653
      10A     -0.946595    11A     -0.923876    12A     -0.798961
      13A     -0.722342    14A     -0.696386    15A     -0.646796
      16A     -0.615035    17A     -0.611034    18A     -0.563599
      19A     -0.551211    20A     -0.530939    21A     -0.500496
      22A     -0.494952    23A     -0.482993    24A     -0.449935

  @DF-RHF Final Energy:  -305.95452015600824

   => Energetics <=

    Nuclear Repulsion Energy =            249.2533908149127058
    One-Electron Energy =                -910.8829777831929277
    Two-Electron Energy =                 355.6750668122720072
    Total Energy =                       -305.9545201560082432
  Basis Set: (AUG-CC-PVTZ AUX)
    Blend: AUG-CC-PVTZ-RI
    Molecular point group: c1

    Geometry (in Angstrom), charge = 0, multiplicity = 1:

       Center              X                  Y                   Z               Mass
    ------------   -----------------  -----------------  -----------------  -----------------
         O           -1.519359823789    -0.929593860077     0.339101215225    15.994914619570
         O           -1.126919823789     1.154270139923    -0.449419784775    15.994914619570
         C            0.733266176211    -0.186891860077     0.367550215225    12.000000000000
         C            1.265419176211    -1.201205860077    -0.650279784775    12.000000000000
         C            1.560274176211     1.090677139923     0.391551215225    12.000000000000
         C           -0.705339823789     0.121752139923     0.042743215225    12.000000000000
         H            0.738814176211    -0.659941860077     1.356325215225     1.007825032230
         H            2.305146176211    -1.449968860077    -0.422896784775     1.007825032230
         H            1.228717176211    -0.779341860077    -1.659020784775     1.007825032230
         H            0.676537176211    -2.120735860077    -0.634467784775     1.007825032230
         H            1.548614176211     1.567979139923    -0.590529784775     1.007825032230
         H            2.595194176211     0.864710139923     0.661694215225     1.007825032230
         H            1.160730176211     1.806225139923     1.113847215225     1.007825032230
         H           -2.232935823789    -0.703047560077     0.121227415225     1.007825032230

  Basis Set: AUG-CC-PVTZ
    Blend: AUG-CC-PVTZ
  Basis Set: (AUG-CC-PVTZ AUX)
    Blend: AUG-CC-PVTZ-JKFIT
	 Reference Energy          =    -305.9545201560082432 [Eh]
	 Singles Energy            =      -0.0000000000000000 [Eh]
	 Same-Spin Energy          =      -0.2991942650230216 [Eh]
	 Opposite-Spin Energy      =      -0.9750483194032386 [Eh]
	 Correlation Energy        =      -1.2742425844262601 [Eh]
	 Total Energy              =    -307.2287627404344903 [Eh]

	 ================> DF-SCS-MP2 Energies <==================
	-----------------------------------------------------------
	 SCS Same-Spin Scale       =       0.3333333333333333 [-]
	 SCS Opposite-Spin Scale   =       1.2000000000000000 [-]
	 SCS Same-Spin Energy      =      -0.0997314216743405 [Eh]
	 SCS Opposite-Spin Energy  =      -1.1700579832838862 [Eh]
	 SCS Correlation Energy    =      -1.2697894049582268 [Eh]
	 SCS Total Energy          =    -307.2243095609664465 [Eh]
	-----------------------------------------------------------

  Dipole Moment: [D]
     X:     0.9173      Y:    -1.3823      Z:     0.5701     Total:     1.7542

*** Psi4 exiting successfully. Buy a developer a beer!
