                               Psi4 1.3.2 release

  ==> Input File <==

--------------------------------------------------------------------------
#psi4
#
memory 32 gb

molecule  {
0 1
  O       -1.5172650    -0.9302590     0.3397410
  O       -1.1248250     1.1536050    -0.4487800
  C        0.7353610    -0.1875570     0.3681900
  C        1.2675140    -1.2018710    -0.6496400
  C        1.5623690     1.0900120     0.3921910
  C       -0.6686619     0.0363874     0.0837561
  H        0.7409090    -0.6606070     1.3569650
  H        2.3072410    -1.4506340    -0.4222570
  H        1.2308120    -0.7800070    -1.6583810
  H        0.6786320    -2.1214010    -0.6338280
  H        1.5507090     1.5673140    -0.5898900
  H        2.5972890     0.8640450     0.6623340
  H        1.1628250     1.8055600     1.1144870
  H       -2.4138720    -0.6456040     0.0659830
units angstrom
no_reorient  #important for SAPT in psi4, default
symmetry c1  #important for SAPT in psi4, default
}

set PROPERTIES_ORIGIN ["COM"]
properties('MP2/aug-cc-pvtz', properties = ['dipole'])
--------------------------------------------------------------------------

    Molecular point group: c1
  Charge       = 0
  Multiplicity = 1
  Basis Set: AUG-CC-PVTZ
    Blend: AUG-CC-PVTZ
  Basis Set: (AUG-CC-PVTZ AUX)
    Blend: AUG-CC-PVTZ-JKFIT

    Orbital Energies [Eh]
    ---------------------

    Doubly Occupied:

       1A    -20.630136     2A    -20.531376     3A    -11.393085
       4A    -11.255486     5A    -11.236838     6A    -11.223182
       7A     -1.473580     8A     -1.299450     9A     -1.109462
      10A     -0.947856    11A     -0.917765    12A     -0.795574
      13A     -0.705942    14A     -0.694144    15A     -0.644343
      16A     -0.616994    17A     -0.583181    18A     -0.564367
      19A     -0.550340    20A     -0.522736    21A     -0.498829
      22A     -0.496477    23A     -0.445073    24A     -0.438794

  @DF-RHF Final Energy:  -305.97616094070167

   => Energetics <=

    Nuclear Repulsion Energy =            247.7687794974118276
    One-Electron Energy =                -908.3398604848655395
    Two-Electron Energy =                 354.5949200467520086
    Total Energy =                       -305.9761609407016749
  Basis Set: (AUG-CC-PVTZ AUX)
    Blend: AUG-CC-PVTZ-RI
    Molecular point group: c1

    Geometry (in Angstrom), charge = 0, multiplicity = 1:

       Center              X                  Y                   Z               Mass
    ------------   -----------------  -----------------  -----------------  -----------------
         O           -1.521977968205    -0.918715888816     0.334238706526    15.994914619570
         O           -1.129537968205     1.165148111184    -0.454282293474    15.994914619570
         C            0.730648031795    -0.176013888816     0.362687706526    12.000000000000
         C            1.262801031795    -1.190327888816    -0.655142293474    12.000000000000
         C            1.557656031795     1.101555111184     0.386688706526    12.000000000000
         C           -0.673374868205     0.047930511184     0.078253806526    12.000000000000
         H            0.736196031795    -0.649063888816     1.351462706526     1.007825032230
         H            2.302528031795    -1.439090888816    -0.427759293474     1.007825032230
         H            1.226099031795    -0.768463888816    -1.663883293474     1.007825032230
         H            0.673919031795    -2.109857888816    -0.639330293474     1.007825032230
         H            1.545996031795     1.578857111184    -0.595392293474     1.007825032230
         H            2.592576031795     0.875588111184     0.656831706526     1.007825032230
         H            1.158112031795     1.817103111184     1.108984706526     1.007825032230
         H           -2.418584968205    -0.634060888816     0.060480706526     1.007825032230

  Basis Set: AUG-CC-PVTZ
    Blend: AUG-CC-PVTZ
  Basis Set: (AUG-CC-PVTZ AUX)
    Blend: AUG-CC-PVTZ-JKFIT
	 Reference Energy          =    -305.9761609407016749 [Eh]
	 Singles Energy            =      -0.0000000000000000 [Eh]
	 Same-Spin Energy          =      -0.3038725937305879 [Eh]
	 Opposite-Spin Energy      =      -0.9841551311986507 [Eh]
	 Correlation Energy        =      -1.2880277249292387 [Eh]
	 Total Energy              =    -307.2641886656309111 [Eh]

	 ================> DF-SCS-MP2 Energies <==================
	-----------------------------------------------------------
	 SCS Same-Spin Scale       =       0.3333333333333333 [-]
	 SCS Opposite-Spin Scale   =       1.2000000000000000 [-]
	 SCS Same-Spin Energy      =      -0.1012908645768626 [Eh]
	 SCS Opposite-Spin Energy  =      -1.1809861574383809 [Eh]
	 SCS Correlation Energy    =      -1.2822770220152435 [Eh]
	 SCS Total Energy          =    -307.2584379627169255 [Eh]
	-----------------------------------------------------------

  Dipole Moment: [D]
     X:     0.7947      Y:    -1.9796      Z:     0.7623     Total:     2.2653

*** Psi4 exiting successfully. Buy a developer a beer!
