                               Psi4 1.3.2 release

  ==> Input File <==

--------------------------------------------------------------------------
#psi4
#
memory 32 gb

molecule  {
0 1
  O       -1.5172650    -0.9302590     0.3397410
  O       -1.1248250     1.1536050    -0.4487800
  C        0.7353610    -0.1875570     0.3681900
  C        1.2763500    -1.2543237    -0.5895872
  C        1.5623690     1.0900120     0.3921910
  C       -0.7032450     0.1210870     0.0433830
  H        0.7619643    -0.7080474     1.3324851
  H        2.3072410    -1.4506340    -0.4222570
  H        1.2308120    -0.7800070    -1.6583810
  H        0.6786320    -2.1214010    -0.6338280
  H        1.5507090     1.5673140    -0.5898900
  H        2.5972890     0.8640450     0.6623340
  H        1.1628250     1.8055600     1.1144870
  H       -2.4138720    -0.6456040     0.0659830
units angstrom
no_reorient  #important for SAPT in psi4, default
symmetry c1  #important for SAPT in psi4, default
}

set PROPERTIES_ORIGIN ["COM"]
properties('MP2/aug-cc-pvtz', properties = ['dipole'])
--------------------------------------------------------------------------

    Molecular point group: c1
  Charge       = 0
  Multiplicity = 1
  Basis Set: AUG-CC-PVTZ
    Blend: AUG-CC-PVTZ
  Basis Set: (AUG-CC-PVTZ AUX)
    Blend: AUG-CC-PVTZ-JKFIT

    Orbital Energies [Eh]
    ---------------------

    Doubly Occupied:

       1A    -20.614897     2A    -20.551291     3A    -11.386693
       4A    -11.253437     5A    -11.232562     6A    -11.222048
       7A     -1.459217     8A     -1.355823     9A     -1.097200
      10A     -0.945998    11A     -0.897041    12A     -0.773377
      13A     -0.706164    14A     -0.692867    15A     -0.642529
      16A     -0.615425    17A     -0.603170    18A     -0.568552
      19A     -0.538589    20A     -0.528040    21A     -0.506231
      22A     -0.481585    23A     -0.474236    24A     -0.448756

  @DF-RHF Final Energy:  -305.99081148105046

   => Energetics <=

    Nuclear Repulsion Energy =            247.6140312129621179
    One-Electron Energy =                -908.0182246367204471
    Two-Electron Energy =                 354.4133819427078720
    Total Energy =                       -305.9908114810504571
  Basis Set: (AUG-CC-PVTZ AUX)
    Blend: AUG-CC-PVTZ-RI
    Molecular point group: c1

    Geometry (in Angstrom), charge = 0, multiplicity = 1:

       Center              X                  Y                   Z               Mass
    ------------   -----------------  -----------------  -----------------  -----------------
         O           -1.518710084022    -0.922567584666     0.331836899499    15.994914619570
         O           -1.126270084022     1.161296415334    -0.456684100501    15.994914619570
         C            0.733915915978    -0.179865584666     0.360285899499    12.000000000000
         C            1.274904915978    -1.246632284666    -0.597491300501    12.000000000000
         C            1.560923915978     1.097703415334     0.384286899499    12.000000000000
         C           -0.704690084022     0.128778415334     0.035478899499    12.000000000000
         H            0.760519215978    -0.700355984666     1.324580999499     1.007825032230
         H            2.305795915978    -1.442942584666    -0.430161100501     1.007825032230
         H            1.229366915978    -0.772315584666    -1.666285100501     1.007825032230
         H            0.677186915978    -2.113709584666    -0.641732100501     1.007825032230
         H            1.549263915978     1.575005415334    -0.597794100501     1.007825032230
         H            2.595843915978     0.871736415334     0.654429899499     1.007825032230
         H            1.161379915978     1.813251415334     1.106582899499     1.007825032230
         H           -2.415317084022    -0.637912584666     0.058078899499     1.007825032230

  Basis Set: AUG-CC-PVTZ
    Blend: AUG-CC-PVTZ
  Basis Set: (AUG-CC-PVTZ AUX)
    Blend: AUG-CC-PVTZ-JKFIT
	 Reference Energy          =    -305.9908114810504571 [Eh]
	 Singles Energy            =      -0.0000000000000000 [Eh]
	 Same-Spin Energy          =      -0.3018026934134529 [Eh]
	 Opposite-Spin Energy      =      -0.9807335514974004 [Eh]
	 Correlation Energy        =      -1.2825362449108533 [Eh]
	 Total Energy              =    -307.2733477259612869 [Eh]

	 ================> DF-SCS-MP2 Energies <==================
	-----------------------------------------------------------
	 SCS Same-Spin Scale       =       0.3333333333333333 [-]
	 SCS Opposite-Spin Scale   =       1.2000000000000000 [-]
	 SCS Same-Spin Energy      =      -0.1006008978044843 [Eh]
	 SCS Opposite-Spin Energy  =      -1.1768802617968803 [Eh]
	 SCS Correlation Energy    =      -1.2774811596013647 [Eh]
	 SCS Total Energy          =    -307.2682926406517936 [Eh]
	-----------------------------------------------------------

  Dipole Moment: [D]
     X:     0.6772      Y:    -1.4011      Z:     0.5746     Total:     1.6589

*** Psi4 exiting successfully. Buy a developer a beer!
