                               Psi4 1.4a3.dev225

  ==> Input File <==

--------------------------------------------------------------------------
#psi4
#
memory 32 gb

molecule  {
0 1
  O       -1.6617030     0.7577680    -0.4073030
  O       -1.1227790    -1.2129920     0.5672640
  C        0.6404470     0.1718450    -0.3932210
  C        1.0928880     1.3538930     0.4742710
  C        1.5672530    -1.0291100    -0.2532030
  C       -0.7602150    -0.1627663    -0.0474148
  H        0.6138910     0.5049790    -1.4379290
  H        2.1115010     1.6456430     0.2036890
  H        1.0897110     1.0707860     1.5315760
  H        0.4361920     2.2162520     0.3415930
  H        1.5885520    -1.3743970     0.7830710
  H        2.5826960    -0.7552260    -0.5531760
  H        1.2333040    -1.8624340    -0.8759310
  H       -2.5365610     0.4411560    -0.1004010
units angstrom
no_reorient  #important for SAPT in psi4, default
symmetry c1  #important for SAPT in psi4, default
}

set PROPERTIES_ORIGIN ["COM"]
properties('MP2/aug-cc-pvtz', properties = ['dipole'])
--------------------------------------------------------------------------

    Molecular point group: c1
  Charge       = 0
  Multiplicity = 1
  Basis Set: AUG-CC-PVTZ
    Blend: AUG-CC-PVTZ
  Basis Set: (AUG-CC-PVTZ AUX)
    Blend: AUG-CC-PVTZ-JKFIT

    Orbital Energies [Eh]
    ---------------------

    Doubly Occupied:

       1A    -20.622258     2A    -20.541475     3A    -11.390188
       4A    -11.255274     5A    -11.234353     6A    -11.222202
       7A     -1.462434     8A     -1.328321     9A     -1.102205
      10A     -0.945479    11A     -0.907215    12A     -0.783795
      13A     -0.704221    14A     -0.691897    15A     -0.641325
      16A     -0.612387    17A     -0.592762    18A     -0.562677
      19A     -0.549497    20A     -0.523475    21A     -0.498501
      22A     -0.495074    23A     -0.462371    24A     -0.444773

  @DF-RHF Final Energy:  -305.99047710996916

   => Energetics <=

    Nuclear Repulsion Energy =            247.4612376547415806
    One-Electron Energy =                -907.7551133638444298
    Two-Electron Energy =                 354.3033985991336863
    Total Energy =                       -305.9904771099691629
  Basis Set: (AUG-CC-PVTZ AUX)
    Blend: AUG-CC-PVTZ-RI
    Molecular point group: c1

    Geometry (in Angstrom), charge = 0, multiplicity = 1:

       Center              X                  Y                   Z               Mass
    ------------   -----------------  -----------------  -----------------  -----------------
         O           -1.583589525487     0.773365589648    -0.405206518198    15.994914619570
         O           -1.044665525487    -1.197394410352     0.569360481802    15.994914619570
         C            0.718560474513     0.187442589648    -0.391124518198    12.000000000000
         C            1.171001474513     1.369490589648     0.476367481802    12.000000000000
         C            1.645366474513    -1.013512410352    -0.251106518198    12.000000000000
         C           -0.682101525487    -0.147168710352    -0.045318318198    12.000000000000
         H            0.692004474513     0.520576589648    -1.435832518198     1.007825032230
         H            2.189614474513     1.661240589648     0.205785481802     1.007825032230
         H            1.167824474513     1.086383589648     1.533672481802     1.007825032230
         H            0.514305474513     2.231849589648     0.343689481802     1.007825032230
         H            1.666665474513    -1.358799410352     0.785167481802     1.007825032230
         H            2.660809474513    -0.739628410352    -0.551079518198     1.007825032230
         H            1.311417474513    -1.846836410352    -0.873834518198     1.007825032230
         H           -2.458447525487     0.456753589648    -0.098304518198     1.007825032230

  Basis Set: AUG-CC-PVTZ
    Blend: AUG-CC-PVTZ
  Basis Set: (AUG-CC-PVTZ AUX)
    Blend: AUG-CC-PVTZ-JKFIT
	 Reference Energy          =    -305.9904771099691629 [Eh]
	 Singles Energy            =      -0.0000000000000000 [Eh]
	 Same-Spin Energy          =      -0.3026668970604878 [Eh]
	 Opposite-Spin Energy      =      -0.9822394006804955 [Eh]
	 Correlation Energy        =      -1.2849062977409833 [Eh]
	 Total Energy              =    -307.2753834077101374 [Eh]

	 ================> DF-SCS-MP2 Energies <==================
	-----------------------------------------------------------
	 SCS Same-Spin Scale       =       0.3333333333333333 [-]
	 SCS Opposite-Spin Scale   =       1.2000000000000000 [-]
	 SCS Same-Spin Energy      =      -0.1008889656868293 [Eh]
	 SCS Opposite-Spin Energy  =      -1.1786872808165947 [Eh]
	 SCS Correlation Energy    =      -1.2795762465034239 [Eh]
	 SCS Total Energy          =    -307.2700533564726015 [Eh]
	-----------------------------------------------------------

  Dipole Moment: [D]
     X:     0.6119      Y:     1.6713      Z:    -0.8233     Total:     1.9610

*** Psi4 exiting successfully. Buy a developer a beer!
