                               Psi4 1.3.2 release

  ==> Input File <==

--------------------------------------------------------------------------
#psi4
#
memory 32 gb

molecule  {
0 1
  O       -1.5172650    -0.9302590     0.3397410
  O       -1.1347033     1.1496699    -0.4484590
  C        0.7317511    -0.1993760     0.3726817
  C        1.2675140    -1.2018710    -0.6496400
  C        1.5623690     1.0900120     0.3921910
  C       -0.7032450     0.1210870     0.0433830
  H        0.7409090    -0.6606070     1.3569650
  H        2.3072410    -1.4506340    -0.4222570
  H        1.2308120    -0.7800070    -1.6583810
  H        0.6786320    -2.1214010    -0.6338280
  H        1.5507090     1.5673140    -0.5898900
  H        2.5972890     0.8640450     0.6623340
  H        1.1628250     1.8055600     1.1144870
  H       -2.4138720    -0.6456040     0.0659830
units angstrom
no_reorient  #important for SAPT in psi4, default
symmetry c1  #important for SAPT in psi4, default
}

set PROPERTIES_ORIGIN ["COM"]
properties('MP2/aug-cc-pvtz', properties = ['dipole'])
--------------------------------------------------------------------------

    Molecular point group: c1
  Charge       = 0
  Multiplicity = 1
  Basis Set: AUG-CC-PVTZ
    Blend: AUG-CC-PVTZ
  Basis Set: (AUG-CC-PVTZ AUX)
    Blend: AUG-CC-PVTZ-JKFIT

    Orbital Energies [Eh]
    ---------------------

    Doubly Occupied:

       1A    -20.613282     2A    -20.550598     3A    -11.385490
       4A    -11.253204     5A    -11.231648     6A    -11.221513
       7A     -1.458691     8A     -1.354405     9A     -1.096998
      10A     -0.943518    11A     -0.897415    12A     -0.773565
      13A     -0.705648    14A     -0.692389    15A     -0.641153
      16A     -0.610569    17A     -0.601204    18A     -0.560779
      19A     -0.549262    20A     -0.525931    21A     -0.496122
      22A     -0.495442    23A     -0.478224    24A     -0.447293

  @DF-RHF Final Energy:  -305.99822398020535

   => Energetics <=

    Nuclear Repulsion Energy =            247.7377909269529539
    One-Electron Energy =                -908.3033396525664784
    Two-Electron Energy =                 354.5673247454082002
    Total Energy =                       -305.9982239802053527
  Basis Set: (AUG-CC-PVTZ AUX)
    Blend: AUG-CC-PVTZ-RI
    Molecular point group: c1

    Geometry (in Angstrom), charge = 0, multiplicity = 1:

       Center              X                  Y                   Z               Mass
    ------------   -----------------  -----------------  -----------------  -----------------
         O           -1.514978518347    -0.927933415420     0.339070400948    15.994914619570
         O           -1.132416818347     1.151995484580    -0.449129599052    15.994914619570
         C            0.734037581653    -0.197050415420     0.372011100948    12.000000000000
         C            1.269800481653    -1.199545415420    -0.650310599052    12.000000000000
         C            1.564655481653     1.092337584580     0.391520400948    12.000000000000
         C           -0.700958518347     0.123412584580     0.042712400948    12.000000000000
         H            0.743195481653    -0.658281415420     1.356294400948     1.007825032230
         H            2.309527481653    -1.448308415420    -0.422927599052     1.007825032230
         H            1.233098481653    -0.777681415420    -1.659051599052     1.007825032230
         H            0.680918481653    -2.119075415420    -0.634498599052     1.007825032230
         H            1.552995481653     1.569639584580    -0.590560599052     1.007825032230
         H            2.599575481653     0.866370584580     0.661663400948     1.007825032230
         H            1.165111481653     1.807885584580     1.113816400948     1.007825032230
         H           -2.411585518347    -0.643278415420     0.065312400948     1.007825032230

  Basis Set: AUG-CC-PVTZ
    Blend: AUG-CC-PVTZ
  Basis Set: (AUG-CC-PVTZ AUX)
    Blend: AUG-CC-PVTZ-JKFIT
	 Reference Energy          =    -305.9982239802053527 [Eh]
	 Singles Energy            =      -0.0000000000000000 [Eh]
	 Same-Spin Energy          =      -0.3015979187037466 [Eh]
	 Opposite-Spin Energy      =      -0.9803049688838542 [Eh]
	 Correlation Energy        =      -1.2819028875876008 [Eh]
	 Total Energy              =    -307.2801268677929443 [Eh]

	 ================> DF-SCS-MP2 Energies <==================
	-----------------------------------------------------------
	 SCS Same-Spin Scale       =       0.3333333333333333 [-]
	 SCS Opposite-Spin Scale   =       1.2000000000000000 [-]
	 SCS Same-Spin Energy      =      -0.1005326395679155 [Eh]
	 SCS Opposite-Spin Energy  =      -1.1763659626606251 [Eh]
	 SCS Correlation Energy    =      -1.2768986022285407 [Eh]
	 SCS Total Energy          =    -307.2751225824338803 [Eh]
	-----------------------------------------------------------

  Dipole Moment: [D]
     X:     0.6994      Y:    -1.3842      Z:     0.5342     Total:     1.6403

*** Psi4 exiting successfully. Buy a developer a beer!
