                               Psi4 1.3.2 release

  ==> Input File <==

--------------------------------------------------------------------------
#psi4
#
memory 32 gb

molecule  {
0 1
  O       -1.5358649    -0.9178810     0.3316097
  O       -1.1444640     1.1454221    -0.4486646
  C        0.7353610    -0.1875570     0.3681900
  C        1.2675140    -1.2018710    -0.6496400
  C        1.5623690     1.0900120     0.3921910
  C       -0.7032450     0.1210870     0.0433830
  H        0.7409090    -0.6606070     1.3569650
  H        2.3072410    -1.4506340    -0.4222570
  H        1.2308120    -0.7800070    -1.6583810
  H        0.6786320    -2.1214010    -0.6338280
  H        1.5507090     1.5673140    -0.5898900
  H        2.5972890     0.8640450     0.6623340
  H        1.1628250     1.8055600     1.1144870
  H       -2.4138720    -0.6456040     0.0659830
units angstrom
no_reorient  #important for SAPT in psi4, default
symmetry c1  #important for SAPT in psi4, default
}

set PROPERTIES_ORIGIN ["COM"]
properties('MP2/aug-cc-pvtz', properties = ['dipole'])
--------------------------------------------------------------------------

    Molecular point group: c1
  Charge       = 0
  Multiplicity = 1
  Basis Set: AUG-CC-PVTZ
    Blend: AUG-CC-PVTZ
  Basis Set: (AUG-CC-PVTZ AUX)
    Blend: AUG-CC-PVTZ-JKFIT

    Orbital Energies [Eh]
    ---------------------

    Doubly Occupied:

       1A    -20.609471     2A    -20.548917     3A    -11.385314
       4A    -11.255260     5A    -11.232559     6A    -11.222153
       7A     -1.460912     8A     -1.353624     9A     -1.098908
      10A     -0.945339    11A     -0.899770    12A     -0.777531
      13A     -0.706069    14A     -0.691822    15A     -0.641153
      16A     -0.611161    17A     -0.601400    18A     -0.561863
      19A     -0.549854    20A     -0.527128    21A     -0.499133
      22A     -0.493816    23A     -0.477190    24A     -0.446953

  @DF-RHF Final Energy:  -305.99961788010074

   => Energetics <=

    Nuclear Repulsion Energy =            247.7659690907246670
    One-Electron Energy =                -908.3365699167617322
    Two-Electron Energy =                 354.5709829459363505
    Total Energy =                       -305.9996178801007432
  Basis Set: (AUG-CC-PVTZ AUX)
    Blend: AUG-CC-PVTZ-RI
    Molecular point group: c1

    Geometry (in Angstrom), charge = 0, multiplicity = 1:

       Center              X                  Y                   Z               Mass
    ------------   -----------------  -----------------  -----------------  -----------------
         O           -1.528918619885    -0.918643006034     0.333065656737    15.994914619570
         O           -1.137517719885     1.144660093966    -0.447208643263    15.994914619570
         C            0.742307280115    -0.188319006034     0.369645956737    12.000000000000
         C            1.274460280115    -1.202633006034    -0.648184043263    12.000000000000
         C            1.569315280115     1.089249993966     0.393646956737    12.000000000000
         C           -0.696298719885     0.120324993966     0.044838956737    12.000000000000
         H            0.747855280115    -0.661369006034     1.358420956737     1.007825032230
         H            2.314187280115    -1.451396006034    -0.420801043263     1.007825032230
         H            1.237758280115    -0.780769006034    -1.656925043263     1.007825032230
         H            0.685578280115    -2.122163006034    -0.632372043263     1.007825032230
         H            1.557655280115     1.566551993966    -0.588434043263     1.007825032230
         H            2.604235280115     0.863282993966     0.663789956737     1.007825032230
         H            1.169771280115     1.804797993966     1.115942956737     1.007825032230
         H           -2.406925719885    -0.646366006034     0.067438956737     1.007825032230

  Basis Set: AUG-CC-PVTZ
    Blend: AUG-CC-PVTZ
  Basis Set: (AUG-CC-PVTZ AUX)
    Blend: AUG-CC-PVTZ-JKFIT
	 Reference Energy          =    -305.9996178801007432 [Eh]
	 Singles Energy            =      -0.0000000000000000 [Eh]
	 Same-Spin Energy          =      -0.3011543148630771 [Eh]
	 Opposite-Spin Energy      =      -0.9793005191899845 [Eh]
	 Correlation Energy        =      -1.2804548340530617 [Eh]
	 Total Energy              =    -307.2800727141537891 [Eh]

	 ================> DF-SCS-MP2 Energies <==================
	-----------------------------------------------------------
	 SCS Same-Spin Scale       =       0.3333333333333333 [-]
	 SCS Opposite-Spin Scale   =       1.2000000000000000 [-]
	 SCS Same-Spin Energy      =      -0.1003847716210257 [Eh]
	 SCS Opposite-Spin Energy  =      -1.1751606230279814 [Eh]
	 SCS Correlation Energy    =      -1.2755453946490072 [Eh]
	 SCS Total Energy          =    -307.2751632747497297 [Eh]
	-----------------------------------------------------------

  Dipole Moment: [D]
     X:     0.7905      Y:    -1.3799      Z:     0.5444     Total:     1.6809

*** Psi4 exiting successfully. Buy a developer a beer!
