                               Psi4 1.3.2 release

  ==> Input File <==

--------------------------------------------------------------------------
#psi4
#
memory 32 gb

molecule  {
0 1
  O       -1.5172650    -0.9302590     0.3397410
  O       -1.1248250     1.1536050    -0.4487800
  C        0.7353610    -0.1875570     0.3681900
  C        1.2675140    -1.2018710    -0.6496400
  C        1.5623690     1.0900120     0.3921910
  C       -0.6340788    -0.0483122     0.1241293
  H        0.7409090    -0.6606070     1.3569650
  H        2.3072410    -1.4506340    -0.4222570
  H        1.2308120    -0.7800070    -1.6583810
  H        0.6786320    -2.1214010    -0.6338280
  H        1.5507090     1.5673140    -0.5898900
  H        2.5972890     0.8640450     0.6623340
  H        1.1628250     1.8055600     1.1144870
  H       -2.4138720    -0.6456040     0.0659830
units angstrom
no_reorient  #important for SAPT in psi4, default
symmetry c1  #important for SAPT in psi4, default
}

set PROPERTIES_ORIGIN ["COM"]
properties('MP2/aug-cc-pvtz', properties = ['dipole'])
--------------------------------------------------------------------------

    Molecular point group: c1
  Charge       = 0
  Multiplicity = 1
  Basis Set: AUG-CC-PVTZ
    Blend: AUG-CC-PVTZ
  Basis Set: (AUG-CC-PVTZ AUX)
    Blend: AUG-CC-PVTZ-JKFIT

    Orbital Energies [Eh]
    ---------------------

    Doubly Occupied:

       1A    -20.644252     2A    -20.510991     3A    -11.398303
       4A    -11.257899     5A    -11.242579     6A    -11.225689
       7A     -1.498324     8A     -1.244925     9A     -1.121556
      10A     -0.952221    11A     -0.935744    12A     -0.822614
      13A     -0.710716    14A     -0.700481    15A     -0.654183
      16A     -0.624793    17A     -0.576496    18A     -0.560928
      19A     -0.549907    20A     -0.524432    21A     -0.502529
      22A     -0.482965    23A     -0.419938    24A     -0.412632

  @DF-RHF Final Energy:  -305.93153630481868

   => Energetics <=

    Nuclear Repulsion Energy =            247.8796609266276505
    One-Electron Energy =                -908.4721972111256036
    Two-Electron Energy =                 354.6609999796793318
    Total Energy =                       -305.9315363048186782
  Basis Set: (AUG-CC-PVTZ AUX)
    Blend: AUG-CC-PVTZ-RI
    Molecular point group: c1

    Geometry (in Angstrom), charge = 0, multiplicity = 1:

       Center              X                  Y                   Z               Mass
    ------------   -----------------  -----------------  -----------------  -----------------
         O           -1.526691037479    -0.907172820603     0.328736548292    15.994914619570
         O           -1.134251037479     1.176691179397    -0.459784451708    15.994914619570
         C            0.725934962521    -0.164470820603     0.357185548292    12.000000000000
         C            1.258087962521    -1.178784820603    -0.660644451708    12.000000000000
         C            1.552942962521     1.113098179397     0.381186548292    12.000000000000
         C           -0.643504837479    -0.025226020603     0.113124848292    12.000000000000
         H            0.731482962521    -0.637520820603     1.345960548292     1.007825032230
         H            2.297814962521    -1.427547820603    -0.433261451708     1.007825032230
         H            1.221385962521    -0.756920820603    -1.669385451708     1.007825032230
         H            0.669205962521    -2.098314820603    -0.644832451708     1.007825032230
         H            1.541282962521     1.590400179397    -0.600894451708     1.007825032230
         H            2.587862962521     0.887131179397     0.651329548292     1.007825032230
         H            1.153398962521     1.828646179397     1.103482548292     1.007825032230
         H           -2.423298037479    -0.622517820603     0.054978548292     1.007825032230

  Basis Set: AUG-CC-PVTZ
    Blend: AUG-CC-PVTZ
  Basis Set: (AUG-CC-PVTZ AUX)
    Blend: AUG-CC-PVTZ-JKFIT
	 Reference Energy          =    -305.9315363048186782 [Eh]
	 Singles Energy            =      -0.0000000000000000 [Eh]
	 Same-Spin Energy          =      -0.3062581561824035 [Eh]
	 Opposite-Spin Energy      =      -0.9882107563550001 [Eh]
	 Correlation Energy        =      -1.2944689125374036 [Eh]
	 Total Energy              =    -307.2260052173560894 [Eh]

	 ================> DF-SCS-MP2 Energies <==================
	-----------------------------------------------------------
	 SCS Same-Spin Scale       =       0.3333333333333333 [-]
	 SCS Opposite-Spin Scale   =       1.2000000000000000 [-]
	 SCS Same-Spin Energy      =      -0.1020860520608012 [Eh]
	 SCS Opposite-Spin Energy  =      -1.1858529076260000 [Eh]
	 SCS Correlation Energy    =      -1.2879389596868012 [Eh]
	 SCS Total Energy          =    -307.2194752645054905 [Eh]
	-----------------------------------------------------------

  Dipole Moment: [D]
     X:     0.9399      Y:    -2.5359      Z:     0.9739     Total:     2.8745

*** Psi4 exiting successfully. Buy a developer a beer!
