                               Psi4 1.3.2 release

  ==> Input File <==

--------------------------------------------------------------------------
#psi4
#
memory 32 gb

molecule  {
0 1
  O       -1.5172650    -0.9302590     0.3397410
  O       -1.1248250     1.1536050    -0.4487800
  C        0.7353610    -0.1875570     0.3681900
  C        1.3147987    -1.2007093    -0.6246705
  C        1.5623690     1.0900120     0.3921910
  C       -0.7044787     0.1540035     0.0843836
  H        0.7409090    -0.6606070     1.3569650
  H        2.3072410    -1.4506340    -0.4222570
  H        1.2308120    -0.7800070    -1.6583810
  H        0.6786320    -2.1214010    -0.6338280
  H        1.5507090     1.5673140    -0.5898900
  H        2.5972890     0.8640450     0.6623340
  H        1.1628250     1.8055600     1.1144870
  H       -2.4138720    -0.6456040     0.0659830
units angstrom
no_reorient  #important for SAPT in psi4, default
symmetry c1  #important for SAPT in psi4, default
}

set PROPERTIES_ORIGIN ["COM"]
properties('MP2/aug-cc-pvtz', properties = ['dipole'])
--------------------------------------------------------------------------

    Molecular point group: c1
  Charge       = 0
  Multiplicity = 1
  Basis Set: AUG-CC-PVTZ
    Blend: AUG-CC-PVTZ
  Basis Set: (AUG-CC-PVTZ AUX)
    Blend: AUG-CC-PVTZ-JKFIT

    Orbital Energies [Eh]
    ---------------------

    Doubly Occupied:

       1A    -20.610258     2A    -20.554885     3A    -11.386540
       4A    -11.253362     5A    -11.232288     6A    -11.220467
       7A     -1.456085     8A     -1.358497     9A     -1.097006
      10A     -0.943444    11A     -0.897649    12A     -0.768874
      13A     -0.705585    14A     -0.690773    15A     -0.642758
      16A     -0.606647    17A     -0.602894    18A     -0.569207
      19A     -0.547879    20A     -0.528957    21A     -0.493425
      22A     -0.488726    23A     -0.480278    24A     -0.450036

  @DF-RHF Final Energy:  -305.99317416182987

   => Energetics <=

    Nuclear Repulsion Energy =            247.5275342311241786
    One-Electron Energy =                -907.8683750506090746
    Two-Electron Energy =                 354.3476666576550542
    Total Energy =                       -305.9931741618298702
  Basis Set: (AUG-CC-PVTZ AUX)
    Blend: AUG-CC-PVTZ-RI
    Molecular point group: c1

    Geometry (in Angstrom), charge = 0, multiplicity = 1:

       Center              X                  Y                   Z               Mass
    ------------   -----------------  -----------------  -----------------  -----------------
         O           -1.523540841606    -0.934903217299     0.330750284892    15.994914619570
         O           -1.131100841606     1.148960782701    -0.457770715108    15.994914619570
         C            0.729085158394    -0.192201217299     0.359199284892    12.000000000000
         C            1.308522858394    -1.205353517299    -0.633661215108    12.000000000000
         C            1.556093158394     1.085367782701     0.383200284892    12.000000000000
         C           -0.710754541606     0.149359282701     0.075392884892    12.000000000000
         H            0.734633158394    -0.665251217299     1.347974284892     1.007825032230
         H            2.300965158394    -1.455278217299    -0.431247715108     1.007825032230
         H            1.224536158394    -0.784651217299    -1.667371715108     1.007825032230
         H            0.672356158394    -2.126045217299    -0.642818715108     1.007825032230
         H            1.544433158394     1.562669782701    -0.598880715108     1.007825032230
         H            2.591013158394     0.859400782701     0.653343284892     1.007825032230
         H            1.156549158394     1.800915782701     1.105496284892     1.007825032230
         H           -2.420147841606    -0.650248217299     0.056992284892     1.007825032230

  Basis Set: AUG-CC-PVTZ
    Blend: AUG-CC-PVTZ
  Basis Set: (AUG-CC-PVTZ AUX)
    Blend: AUG-CC-PVTZ-JKFIT
	 Reference Energy          =    -305.9931741618298702 [Eh]
	 Singles Energy            =      -0.0000000000000000 [Eh]
	 Same-Spin Energy          =      -0.3016441609290486 [Eh]
	 Opposite-Spin Energy      =      -0.9806906205758956 [Eh]
	 Correlation Energy        =      -1.2823347815049442 [Eh]
	 Total Energy              =    -307.2755089433348417 [Eh]

	 ================> DF-SCS-MP2 Energies <==================
	-----------------------------------------------------------
	 SCS Same-Spin Scale       =       0.3333333333333333 [-]
	 SCS Opposite-Spin Scale   =       1.2000000000000000 [-]
	 SCS Same-Spin Energy      =      -0.1005480536430162 [Eh]
	 SCS Opposite-Spin Energy  =      -1.1768287446910748 [Eh]
	 SCS Correlation Energy    =      -1.2773767983340909 [Eh]
	 SCS Total Energy          =    -307.2705509601639733 [Eh]
	-----------------------------------------------------------

  Dipole Moment: [D]
     X:     0.7098      Y:    -1.2548      Z:     0.5346     Total:     1.5376

*** Psi4 exiting successfully. Buy a developer a beer!
