                               Psi4 1.3.2 release

  ==> Input File <==

--------------------------------------------------------------------------
#psi4
#
memory 32 gb

molecule  {
0 1
  O       -1.5172650    -0.9302590     0.3397410
  O       -1.1248250     1.1536050    -0.4487800
  C        0.7353610    -0.1875570     0.3681900
  C        1.2675140    -1.2018710    -0.6496400
  C        1.5623690     1.0900120     0.3921910
  C       -0.6434904     0.1982629     0.0216283
  H        0.7409090    -0.6606070     1.3569650
  H        2.3072410    -1.4506340    -0.4222570
  H        1.2308120    -0.7800070    -1.6583810
  H        0.6786320    -2.1214010    -0.6338280
  H        1.5507090     1.5673140    -0.5898900
  H        2.5972890     0.8640450     0.6623340
  H        1.1628250     1.8055600     1.1144870
  H       -2.4138720    -0.6456040     0.0659830
units angstrom
no_reorient  #important for SAPT in psi4, default
symmetry c1  #important for SAPT in psi4, default
}

set PROPERTIES_ORIGIN ["COM"]
properties('MP2/aug-cc-pvtz', properties = ['dipole'])
--------------------------------------------------------------------------

    Molecular point group: c1
  Charge       = 0
  Multiplicity = 1
  Basis Set: AUG-CC-PVTZ
    Blend: AUG-CC-PVTZ
  Basis Set: (AUG-CC-PVTZ AUX)
    Blend: AUG-CC-PVTZ-JKFIT

    Orbital Energies [Eh]
    ---------------------

    Doubly Occupied:

       1A    -20.584484     2A    -20.566530     3A    -11.384809
       4A    -11.255811     5A    -11.234326     6A    -11.225091
       7A     -1.458816     8A     -1.343948     9A     -1.107107
      10A     -0.948444    11A     -0.894420    12A     -0.754607
      13A     -0.705126    14A     -0.690821    15A     -0.642196
      16A     -0.607574    17A     -0.601909    18A     -0.559540
      19A     -0.551626    20A     -0.534119    21A     -0.502145
      22A     -0.494925    23A     -0.486579    24A     -0.449356

  @DF-RHF Final Energy:  -305.98843828394439

   => Energetics <=

    Nuclear Repulsion Energy =            248.0450908165023804
    One-Electron Energy =                -908.8984399615025040
    Two-Electron Energy =                 354.8649108610557619
    Total Energy =                       -305.9884382839443902
  Basis Set: (AUG-CC-PVTZ AUX)
    Blend: AUG-CC-PVTZ-RI
    Molecular point group: c1

    Geometry (in Angstrom), charge = 0, multiplicity = 1:

       Center              X                  Y                   Z               Mass
    ------------   -----------------  -----------------  -----------------  -----------------
         O           -1.525408401660    -0.940776677043     0.342705634745    15.994914619570
         O           -1.132968401660     1.143087322957    -0.445815365255    15.994914619570
         C            0.727217598340    -0.198074677043     0.371154634745    12.000000000000
         C            1.259370598340    -1.212388677043    -0.646675365255    12.000000000000
         C            1.554225598340     1.079494322957     0.395155634745    12.000000000000
         C           -0.651633801660     0.187745222957     0.024592934745    12.000000000000
         H            0.732765598340    -0.671124677043     1.359929634745     1.007825032230
         H            2.299097598340    -1.461151677043    -0.419292365255     1.007825032230
         H            1.222668598340    -0.790524677043    -1.655416365255     1.007825032230
         H            0.670488598340    -2.131918677043    -0.630863365255     1.007825032230
         H            1.542565598340     1.556796322957    -0.586925365255     1.007825032230
         H            2.589145598340     0.853527322957     0.665298634745     1.007825032230
         H            1.154681598340     1.795042322957     1.117451634745     1.007825032230
         H           -2.422015401660    -0.656121677043     0.068947634745     1.007825032230

  Basis Set: AUG-CC-PVTZ
    Blend: AUG-CC-PVTZ
  Basis Set: (AUG-CC-PVTZ AUX)
    Blend: AUG-CC-PVTZ-JKFIT
	 Reference Energy          =    -305.9884382839443902 [Eh]
	 Singles Energy            =      -0.0000000000000000 [Eh]
	 Same-Spin Energy          =      -0.3017341413412467 [Eh]
	 Opposite-Spin Energy      =      -0.9810507621804325 [Eh]
	 Correlation Energy        =      -1.2827849035216792 [Eh]
	 Total Energy              =    -307.2712231874660915 [Eh]

	 ================> DF-SCS-MP2 Energies <==================
	-----------------------------------------------------------
	 SCS Same-Spin Scale       =       0.3333333333333333 [-]
	 SCS Opposite-Spin Scale   =       1.2000000000000000 [-]
	 SCS Same-Spin Energy      =      -0.1005780471137489 [Eh]
	 SCS Opposite-Spin Energy  =      -1.1772609146165189 [Eh]
	 SCS Correlation Energy    =      -1.2778389617302679 [Eh]
	 SCS Total Energy          =    -307.2662772456746438 [Eh]
	-----------------------------------------------------------

  Dipole Moment: [D]
     X:     1.1831      Y:    -0.7414      Z:     0.3196     Total:     1.4323

*** Psi4 exiting successfully. Buy a developer a beer!
