                               Psi4 1.3.2 release

  ==> Input File <==

--------------------------------------------------------------------------
#psi4
#
memory 32 gb

molecule  {
0 1
  O       -1.5172650    -0.9302590     0.3397410
  O       -1.1248250     1.1536050    -0.4487800
  C        0.7353610    -0.1875570     0.3681900
  C        1.2675140    -1.2018710    -0.6496400
  C        1.5623690     1.0900120     0.3921910
  C       -0.7987213     0.1415709     0.0218265
  H        0.7409090    -0.6606070     1.3569650
  H        2.3072410    -1.4506340    -0.4222570
  H        1.2308120    -0.7800070    -1.6583810
  H        0.6786320    -2.1214010    -0.6338280
  H        1.5507090     1.5673140    -0.5898900
  H        2.5972890     0.8640450     0.6623340
  H        1.1628250     1.8055600     1.1144870
  H       -2.4138720    -0.6456040     0.0659830
units angstrom
no_reorient  #important for SAPT in psi4, default
symmetry c1  #important for SAPT in psi4, default
}

set PROPERTIES_ORIGIN ["COM"]
properties('MP2/aug-cc-pvtz', properties = ['dipole'])
--------------------------------------------------------------------------

    Molecular point group: c1
  Charge       = 0
  Multiplicity = 1
  Basis Set: AUG-CC-PVTZ
    Blend: AUG-CC-PVTZ
  Basis Set: (AUG-CC-PVTZ AUX)
    Blend: AUG-CC-PVTZ-JKFIT

    Orbital Energies [Eh]
    ---------------------

    Doubly Occupied:

       1A    -20.623897     2A    -20.555975     3A    -11.378895
       4A    -11.246750     5A    -11.223922     6A    -11.214869
       7A     -1.486254     8A     -1.393781     9A     -1.077593
      10A     -0.936926    11A     -0.881087    12A     -0.773471
      13A     -0.718665    14A     -0.695020    15A     -0.653882
      16A     -0.620190    17A     -0.600891    18A     -0.558139
      19A     -0.545978    20A     -0.528216    21A     -0.504008
      22A     -0.487103    23A     -0.483724    24A     -0.427928

  @DF-RHF Final Energy:  -305.99126429383671

   => Energetics <=

    Nuclear Repulsion Energy =            247.8795133529998509
    One-Electron Energy =                -908.5072287539856006
    Two-Electron Energy =                 354.6364511071490142
    Total Energy =                       -305.9912642938367071
  Basis Set: (AUG-CC-PVTZ AUX)
    Blend: AUG-CC-PVTZ-RI
    Molecular point group: c1

    Geometry (in Angstrom), charge = 0, multiplicity = 1:

       Center              X                  Y                   Z               Mass
    ------------   -----------------  -----------------  -----------------  -----------------
         O           -1.504253155739    -0.933050552915     0.342678623565    15.994914619570
         O           -1.111813155739     1.150813447085    -0.445842376435    15.994914619570
         C            0.748372844261    -0.190348552915     0.371127623565    12.000000000000
         C            1.280525844261    -1.204662552915    -0.646702376435    12.000000000000
         C            1.575380844261     1.087220447085     0.395128623565    12.000000000000
         C           -0.785709455739     0.138779347085     0.024764123565    12.000000000000
         H            0.753920844261    -0.663398552915     1.359902623565     1.007825032230
         H            2.320252844261    -1.453425552915    -0.419319376435     1.007825032230
         H            1.243823844261    -0.782798552915    -1.655443376435     1.007825032230
         H            0.691643844261    -2.124192552915    -0.630890376435     1.007825032230
         H            1.563720844261     1.564522447085    -0.586952376435     1.007825032230
         H            2.610300844261     0.861253447085     0.665271623565     1.007825032230
         H            1.175836844261     1.802768447085     1.117424623565     1.007825032230
         H           -2.400860155739    -0.648395552915     0.068920623565     1.007825032230

  Basis Set: AUG-CC-PVTZ
    Blend: AUG-CC-PVTZ
  Basis Set: (AUG-CC-PVTZ AUX)
    Blend: AUG-CC-PVTZ-JKFIT
	 Reference Energy          =    -305.9912642938367071 [Eh]
	 Singles Energy            =      -0.0000000000000000 [Eh]
	 Same-Spin Energy          =      -0.3002851968166134 [Eh]
	 Opposite-Spin Energy      =      -0.9775711313734021 [Eh]
	 Correlation Energy        =      -1.2778563281900155 [Eh]
	 Total Energy              =    -307.2691206220267190 [Eh]

	 ================> DF-SCS-MP2 Energies <==================
	-----------------------------------------------------------
	 SCS Same-Spin Scale       =       0.3333333333333333 [-]
	 SCS Opposite-Spin Scale   =       1.2000000000000000 [-]
	 SCS Same-Spin Energy      =      -0.1000950656055378 [Eh]
	 SCS Opposite-Spin Energy  =      -1.1730853576480824 [Eh]
	 SCS Correlation Energy    =      -1.2731804232536201 [Eh]
	 SCS Total Energy          =    -307.2644447170903277 [Eh]
	-----------------------------------------------------------

  Dipole Moment: [D]
     X:     0.0740      Y:    -1.2764      Z:     0.4583     Total:     1.3582

*** Psi4 exiting successfully. Buy a developer a beer!
