                               Psi4 1.3.2 release

  ==> Input File <==

--------------------------------------------------------------------------
#psi4
#
memory 32 gb

molecule  {
0 1
  O       -1.5359490    -0.9176612     0.3321586
  O       -1.1248250     1.1536050    -0.4487800
  C        0.7421638    -0.1635911     0.3597683
  C        1.2675140    -1.2018710    -0.6496400
  C        1.5623690     1.0900120     0.3921910
  C       -0.7032450     0.1210870     0.0433830
  H        0.7409090    -0.6606070     1.3569650
  H        2.3072410    -1.4506340    -0.4222570
  H        1.2308120    -0.7800070    -1.6583810
  H        0.6786320    -2.1214010    -0.6338280
  H        1.5507090     1.5673140    -0.5898900
  H        2.5972890     0.8640450     0.6623340
  H        1.1628250     1.8055600     1.1144870
  H       -2.4138720    -0.6456040     0.0659830
units angstrom
no_reorient  #important for SAPT in psi4, default
symmetry c1  #important for SAPT in psi4, default
}

set PROPERTIES_ORIGIN ["COM"]
properties('MP2/aug-cc-pvtz', properties = ['dipole'])
--------------------------------------------------------------------------

    Molecular point group: c1
  Charge       = 0
  Multiplicity = 1
  Basis Set: AUG-CC-PVTZ
    Blend: AUG-CC-PVTZ
  Basis Set: (AUG-CC-PVTZ AUX)
    Blend: AUG-CC-PVTZ-JKFIT

    Orbital Energies [Eh]
    ---------------------

    Doubly Occupied:

       1A    -20.611801     2A    -20.548541     3A    -11.385248
       4A    -11.255136     5A    -11.232504     6A    -11.220740
       7A     -1.460982     8A     -1.355221     9A     -1.099393
      10A     -0.946723    11A     -0.899099    12A     -0.776851
      13A     -0.706236    14A     -0.690964    15A     -0.641831
      16A     -0.611932    17A     -0.601773    18A     -0.562231
      19A     -0.549896    20A     -0.528184    21A     -0.503043
      22A     -0.488295    23A     -0.476862    24A     -0.445571

  @DF-RHF Final Energy:  -305.99871914076027

   => Energetics <=

    Nuclear Repulsion Energy =            247.9300361924463232
    One-Electron Energy =                -908.6593981666346735
    Two-Electron Energy =                 354.7306428334280781
    Total Energy =                       -305.9987191407602722
  Basis Set: (AUG-CC-PVTZ AUX)
    Blend: AUG-CC-PVTZ-RI
    Molecular point group: c1

    Geometry (in Angstrom), charge = 0, multiplicity = 1:

       Center              X                  Y                   Z               Mass
    ------------   -----------------  -----------------  -----------------  -----------------
         O           -1.533482012031    -0.923215706042     0.334683540353    15.994914619570
         O           -1.122358012031     1.148050493958    -0.446255059647    15.994914619570
         C            0.744630787969    -0.169145606042     0.362293240353    12.000000000000
         C            1.269980987969    -1.207425506042    -0.647115059647    12.000000000000
         C            1.564835987969     1.084457493958     0.394715940353    12.000000000000
         C           -0.700778012031     0.115532493958     0.045907940353    12.000000000000
         H            0.743375987969    -0.666161506042     1.359489940353     1.007825032230
         H            2.309707987969    -1.456188506042    -0.419732059647     1.007825032230
         H            1.233278987969    -0.785561506042    -1.655856059647     1.007825032230
         H            0.681098987969    -2.126955506042    -0.631303059647     1.007825032230
         H            1.553175987969     1.561759493958    -0.587365059647     1.007825032230
         H            2.599755987969     0.858490493958     0.664858940353     1.007825032230
         H            1.165291987969     1.800005493958     1.117011940353     1.007825032230
         H           -2.411405012031    -0.651158506042     0.068507940353     1.007825032230

  Basis Set: AUG-CC-PVTZ
    Blend: AUG-CC-PVTZ
  Basis Set: (AUG-CC-PVTZ AUX)
    Blend: AUG-CC-PVTZ-JKFIT
	 Reference Energy          =    -305.9987191407602722 [Eh]
	 Singles Energy            =      -0.0000000000000000 [Eh]
	 Same-Spin Energy          =      -0.3013073164765973 [Eh]
	 Opposite-Spin Energy      =      -0.9794856300194337 [Eh]
	 Correlation Energy        =      -1.2807929464960308 [Eh]
	 Total Energy              =    -307.2795120872563075 [Eh]

	 ================> DF-SCS-MP2 Energies <==================
	-----------------------------------------------------------
	 SCS Same-Spin Scale       =       0.3333333333333333 [-]
	 SCS Opposite-Spin Scale   =       1.2000000000000000 [-]
	 SCS Same-Spin Energy      =      -0.1004357721588657 [Eh]
	 SCS Opposite-Spin Energy  =      -1.1753827560233203 [Eh]
	 SCS Correlation Energy    =      -1.2758185281821861 [Eh]
	 SCS Total Energy          =    -307.2745376689424575 [Eh]
	-----------------------------------------------------------

  Dipole Moment: [D]
     X:     0.7379      Y:    -1.3867      Z:     0.5420     Total:     1.6616

*** Psi4 exiting successfully. Buy a developer a beer!
