                               Psi4 1.3.2 release

  ==> Input File <==

--------------------------------------------------------------------------
#psi4
#
memory 32 gb

molecule  {
0 1
  O       -1.5542112    -0.9051865     0.3233907
  O       -1.1639687     1.1369273    -0.4483992
  C        0.7353610    -0.1875570     0.3681900
  C        1.2675140    -1.2018710    -0.6496400
  C        1.5623690     1.0900120     0.3921910
  C       -0.7032450     0.1210870     0.0433830
  H        0.7409090    -0.6606070     1.3569650
  H        2.3072410    -1.4506340    -0.4222570
  H        1.2308120    -0.7800070    -1.6583810
  H        0.6786320    -2.1214010    -0.6338280
  H        1.5507090     1.5673140    -0.5898900
  H        2.5972890     0.8640450     0.6623340
  H        1.1628250     1.8055600     1.1144870
  H       -2.4138720    -0.6456040     0.0659830
units angstrom
no_reorient  #important for SAPT in psi4, default
symmetry c1  #important for SAPT in psi4, default
}

set PROPERTIES_ORIGIN ["COM"]
properties('MP2/aug-cc-pvtz', properties = ['dipole'])
--------------------------------------------------------------------------

    Molecular point group: c1
  Charge       = 0
  Multiplicity = 1
  Basis Set: AUG-CC-PVTZ
    Blend: AUG-CC-PVTZ
  Basis Set: (AUG-CC-PVTZ AUX)
    Blend: AUG-CC-PVTZ-JKFIT

    Orbital Energies [Eh]
    ---------------------

    Doubly Occupied:

       1A    -20.604319     2A    -20.547402     3A    -11.385282
       4A    -11.257437     5A    -11.233550     6A    -11.223477
       7A     -1.463343     8A     -1.352113     9A     -1.100636
      10A     -0.946492    11A     -0.902629    12A     -0.782283
      13A     -0.706274    14A     -0.691559    15A     -0.640933
      16A     -0.611653    17A     -0.600996    18A     -0.562929
      19A     -0.550468    20A     -0.528035    21A     -0.500054
      22A     -0.495055    23A     -0.475669    24A     -0.446967

  @DF-RHF Final Energy:  -305.99915609197154

   => Energetics <=

    Nuclear Repulsion Energy =            247.7298162000857928
    One-Electron Energy =                -908.2388281970713706
    Two-Electron Energy =                 354.5098559050140352
    Total Energy =                       -305.9991560919715425
  Basis Set: (AUG-CC-PVTZ AUX)
    Blend: AUG-CC-PVTZ-RI
    Molecular point group: c1

    Geometry (in Angstrom), charge = 0, multiplicity = 1:

       Center              X                  Y                   Z               Mass
    ------------   -----------------  -----------------  -----------------  -----------------
         O           -1.540389203715    -0.906711390639     0.326291445412    15.994914619570
         O           -1.150146703715     1.135402409361    -0.445498454588    15.994914619570
         C            0.749182996285    -0.189081890639     0.371090745412    12.000000000000
         C            1.281335996285    -1.203395890639    -0.646739254588    12.000000000000
         C            1.576190996285     1.088487109361     0.395091745412    12.000000000000
         C           -0.689423003715     0.119562109361     0.046283745412    12.000000000000
         H            0.754730996285    -0.662131890639     1.359865745412     1.007825032230
         H            2.321062996285    -1.452158890639    -0.419356254588     1.007825032230
         H            1.244633996285    -0.781531890639    -1.655480254588     1.007825032230
         H            0.692453996285    -2.122925890639    -0.630927254588     1.007825032230
         H            1.564530996285     1.565789109361    -0.586989254588     1.007825032230
         H            2.611110996285     0.862520109361     0.665234745412     1.007825032230
         H            1.176646996285     1.804035109361     1.117387745412     1.007825032230
         H           -2.400050003715    -0.647128890639     0.068883745412     1.007825032230

  Basis Set: AUG-CC-PVTZ
    Blend: AUG-CC-PVTZ
  Basis Set: (AUG-CC-PVTZ AUX)
    Blend: AUG-CC-PVTZ-JKFIT
	 Reference Energy          =    -305.9991560919715425 [Eh]
	 Singles Energy            =      -0.0000000000000000 [Eh]
	 Same-Spin Energy          =      -0.3006861813734933 [Eh]
	 Opposite-Spin Energy      =      -0.9783243850517865 [Eh]
	 Correlation Energy        =      -1.2790105664252800 [Eh]
	 Total Energy              =    -307.2781666583967990 [Eh]

	 ================> DF-SCS-MP2 Energies <==================
	-----------------------------------------------------------
	 SCS Same-Spin Scale       =       0.3333333333333333 [-]
	 SCS Opposite-Spin Scale   =       1.2000000000000000 [-]
	 SCS Same-Spin Energy      =      -0.1002287271244978 [Eh]
	 SCS Opposite-Spin Energy  =      -1.1739892620621437 [Eh]
	 SCS Correlation Energy    =      -1.2742179891866414 [Eh]
	 SCS Total Energy          =    -307.2733740811581811 [Eh]
	-----------------------------------------------------------

  Dipole Moment: [D]
     X:     0.9103      Y:    -1.3714      Z:     0.5548     Total:     1.7369

*** Psi4 exiting successfully. Buy a developer a beer!
