                               Psi4 1.3.2 release

  ==> Input File <==

--------------------------------------------------------------------------
#psi4
#
memory 32 gb

molecule  {
0 1
  O       -1.5725504    -0.8915201     0.3167323
  O       -1.1248250     1.1536050    -0.4487800
  C        0.7544467    -0.1154063     0.3426384
  C        1.2675140    -1.2018710    -0.6496400
  C        1.5623690     1.0900120     0.3921910
  C       -0.7032450     0.1210870     0.0433830
  H        0.7409090    -0.6606070     1.3569650
  H        2.3072410    -1.4506340    -0.4222570
  H        1.2308120    -0.7800070    -1.6583810
  H        0.6786320    -2.1214010    -0.6338280
  H        1.5507090     1.5673140    -0.5898900
  H        2.5972890     0.8640450     0.6623340
  H        1.1628250     1.8055600     1.1144870
  H       -2.4138720    -0.6456040     0.0659830
units angstrom
no_reorient  #important for SAPT in psi4, default
symmetry c1  #important for SAPT in psi4, default
}

set PROPERTIES_ORIGIN ["COM"]
properties('MP2/aug-cc-pvtz', properties = ['dipole'])
--------------------------------------------------------------------------

    Molecular point group: c1
  Charge       = 0
  Multiplicity = 1
  Basis Set: AUG-CC-PVTZ
    Blend: AUG-CC-PVTZ
  Basis Set: (AUG-CC-PVTZ AUX)
    Blend: AUG-CC-PVTZ-JKFIT

    Orbital Energies [Eh]
    ---------------------

    Doubly Occupied:

       1A    -20.606225     2A    -20.544909     3A    -11.385350
       4A    -11.259818     5A    -11.234633     6A    -11.220449
       7A     -1.466404     8A     -1.355741     9A     -1.104602
      10A     -0.952003    11A     -0.903885    12A     -0.786309
      13A     -0.705714    14A     -0.689311    15A     -0.643343
      16A     -0.615092    17A     -0.601033    18A     -0.567037
      19A     -0.551336    20A     -0.534597    21A     -0.508131
      22A     -0.482816    23A     -0.468967    24A     -0.442804

  @DF-RHF Final Energy:  -305.99013407203734

   => Energetics <=

    Nuclear Repulsion Energy =            248.1951938787194365
    One-Electron Energy =                -909.1096403104531873
    Two-Electron Energy =                 354.9243123596963869
    Total Energy =                       -305.9901340720373355
  Basis Set: (AUG-CC-PVTZ AUX)
    Blend: AUG-CC-PVTZ-RI
    Molecular point group: c1

    Geometry (in Angstrom), charge = 0, multiplicity = 1:

       Center              X                  Y                   Z               Mass
    ------------   -----------------  -----------------  -----------------  -----------------
         O           -1.565108632000    -0.908389935650     0.324393965757    15.994914619570
         O           -1.117383232000     1.136735164350    -0.441118334243    15.994914619570
         C            0.761888468000    -0.132276135650     0.350300065757    12.000000000000
         C            1.274955768000    -1.218740835650    -0.641978334243    12.000000000000
         C            1.569810768000     1.073142164350     0.399852665757    12.000000000000
         C           -0.695803232000     0.104217164350     0.051044665757    12.000000000000
         H            0.748350768000    -0.677476835650     1.364626665757     1.007825032230
         H            2.314682768000    -1.467503835650    -0.414595334243     1.007825032230
         H            1.238253768000    -0.796876835650    -1.650719334243     1.007825032230
         H            0.686073768000    -2.138270835650    -0.626166334243     1.007825032230
         H            1.558150768000     1.550444164350    -0.582228334243     1.007825032230
         H            2.604730768000     0.847175164350     0.669995665757     1.007825032230
         H            1.170266768000     1.788690164350     1.122148665757     1.007825032230
         H           -2.406430232000    -0.662473835650     0.073644665757     1.007825032230

  Basis Set: AUG-CC-PVTZ
    Blend: AUG-CC-PVTZ
  Basis Set: (AUG-CC-PVTZ AUX)
    Blend: AUG-CC-PVTZ-JKFIT
	 Reference Energy          =    -305.9901340720373355 [Eh]
	 Singles Energy            =      -0.0000000000000000 [Eh]
	 Same-Spin Energy          =      -0.3008567266785779 [Eh]
	 Opposite-Spin Energy      =      -0.9782746755503602 [Eh]
	 Correlation Energy        =      -1.2791314022289382 [Eh]
	 Total Energy              =    -307.2692654742662626 [Eh]

	 ================> DF-SCS-MP2 Energies <==================
	-----------------------------------------------------------
	 SCS Same-Spin Scale       =       0.3333333333333333 [-]
	 SCS Opposite-Spin Scale   =       1.2000000000000000 [-]
	 SCS Same-Spin Energy      =      -0.1002855755595260 [Eh]
	 SCS Opposite-Spin Energy  =      -1.1739296106604322 [Eh]
	 SCS Correlation Energy    =      -1.2742151862199582 [Eh]
	 SCS Total Energy          =    -307.2643492582573117 [Eh]
	-----------------------------------------------------------

  Dipole Moment: [D]
     X:     0.8751      Y:    -1.3825      Z:     0.5551     Total:     1.7278

*** Psi4 exiting successfully. Buy a developer a beer!
