                               Psi4 1.4a3.dev225

  ==> Input File <==

--------------------------------------------------------------------------
#psi4
#
memory 32 gb

molecule  {
0 1
  O       -1.6617030     0.7577680    -0.4073030
  O       -1.1227790    -1.2129920     0.5672640
  C        0.6404470     0.1718450    -0.3932210
  C        1.0928880     1.3538930     0.4742710
  C        1.5672530    -1.0291100    -0.2532030
  C       -0.7557520    -0.1991425    -0.0281106
  H        0.6138910     0.5049790    -1.4379290
  H        2.1115010     1.6456430     0.2036890
  H        1.0897110     1.0707860     1.5315760
  H        0.4361920     2.2162520     0.3415930
  H        1.5885520    -1.3743970     0.7830710
  H        2.5826960    -0.7552260    -0.5531760
  H        1.2333040    -1.8624340    -0.8759310
  H       -2.5365610     0.4411560    -0.1004010
units angstrom
no_reorient  #important for SAPT in psi4, default
symmetry c1  #important for SAPT in psi4, default
}

set PROPERTIES_ORIGIN ["COM"]
properties('MP2/aug-cc-pvtz', properties = ['dipole'])
--------------------------------------------------------------------------

    Molecular point group: c1
  Charge       = 0
  Multiplicity = 1
  Basis Set: AUG-CC-PVTZ
    Blend: AUG-CC-PVTZ
  Basis Set: (AUG-CC-PVTZ AUX)
    Blend: AUG-CC-PVTZ-JKFIT

    Orbital Energies [Eh]
    ---------------------

    Doubly Occupied:

       1A    -20.612365     2A    -20.549851     3A    -11.387782
       4A    -11.254872     5A    -11.233379     6A    -11.222272
       7A     -1.452362     8A     -1.347169     9A     -1.100598
      10A     -0.945164    11A     -0.900290    12A     -0.772947
      13A     -0.704195    14A     -0.690170    15A     -0.639806
      16A     -0.608893    17A     -0.599301    18A     -0.560990
      19A     -0.549760    20A     -0.526631    21A     -0.498805
      22A     -0.494077    23A     -0.474996    24A     -0.448286

  @DF-RHF Final Energy:  -305.99605528962786

   => Energetics <=

    Nuclear Repulsion Energy =            247.5081975393067069
    One-Electron Energy =                -907.8585882395577755
    Two-Electron Energy =                 354.3543354106232073
    Total Energy =                       -305.9960552896278614
  Basis Set: (AUG-CC-PVTZ AUX)
    Blend: AUG-CC-PVTZ-RI
    Molecular point group: c1

    Geometry (in Angstrom), charge = 0, multiplicity = 1:

       Center              X                  Y                   Z               Mass
    ------------   -----------------  -----------------  -----------------  -----------------
         O           -1.584197754020     0.778323026967    -0.407837341689    15.994914619570
         O           -1.045273754020    -1.192436973033     0.566729658311    15.994914619570
         C            0.717952245980     0.192400026967    -0.393755341689    12.000000000000
         C            1.170393245980     1.374448026967     0.473736658311    12.000000000000
         C            1.644758245980    -1.008554973033    -0.253737341689    12.000000000000
         C           -0.678246754020    -0.178587473033    -0.028644941689    12.000000000000
         H            0.691396245980     0.525534026967    -1.438463341689     1.007825032230
         H            2.189006245980     1.666198026967     0.203154658311     1.007825032230
         H            1.167216245980     1.091341026967     1.531041658311     1.007825032230
         H            0.513697245980     2.236807026967     0.341058658311     1.007825032230
         H            1.666057245980    -1.353841973033     0.782536658311     1.007825032230
         H            2.660201245980    -0.734670973033    -0.553710341689     1.007825032230
         H            1.310809245980    -1.841878973033    -0.876465341689     1.007825032230
         H           -2.459055754020     0.461711026967    -0.100935341689     1.007825032230

  Basis Set: AUG-CC-PVTZ
    Blend: AUG-CC-PVTZ
  Basis Set: (AUG-CC-PVTZ AUX)
    Blend: AUG-CC-PVTZ-JKFIT
	 Reference Energy          =    -305.9960552896278614 [Eh]
	 Singles Energy            =      -0.0000000000000000 [Eh]
	 Same-Spin Energy          =      -0.3020294635924252 [Eh]
	 Opposite-Spin Energy      =      -0.9812548821824627 [Eh]
	 Correlation Energy        =      -1.2832843457748879 [Eh]
	 Total Energy              =    -307.2793396354027209 [Eh]

	 ================> DF-SCS-MP2 Energies <==================
	-----------------------------------------------------------
	 SCS Same-Spin Scale       =       0.3333333333333333 [-]
	 SCS Opposite-Spin Scale   =       1.2000000000000000 [-]
	 SCS Same-Spin Energy      =      -0.1006764878641417 [Eh]
	 SCS Opposite-Spin Energy  =      -1.1775058586189553 [Eh]
	 SCS Correlation Energy    =      -1.2781823464830970 [Eh]
	 SCS Total Energy          =    -307.2742376361109677 [Eh]
	-----------------------------------------------------------

  Dipole Moment: [D]
     X:     0.6889      Y:     1.4003      Z:    -0.6922     Total:     1.7072

*** Psi4 exiting successfully. Buy a developer a beer!
