                               Psi4 1.3.2 release

  ==> Input File <==

--------------------------------------------------------------------------
#psi4
#
memory 32 gb

molecule  {
0 1
  O       -1.4983330    -0.9425366     0.3472331
  O       -1.1248250     1.1536050    -0.4487800
  C        0.7281200    -0.2114289     0.3765128
  C        1.2675140    -1.2018710    -0.6496400
  C        1.5623690     1.0900120     0.3921910
  C       -0.7032450     0.1210870     0.0433830
  H        0.7409090    -0.6606070     1.3569650
  H        2.3072410    -1.4506340    -0.4222570
  H        1.2308120    -0.7800070    -1.6583810
  H        0.6786320    -2.1214010    -0.6338280
  H        1.5507090     1.5673140    -0.5898900
  H        2.5972890     0.8640450     0.6623340
  H        1.1628250     1.8055600     1.1144870
  H       -2.4138720    -0.6456040     0.0659830
units angstrom
no_reorient  #important for SAPT in psi4, default
symmetry c1  #important for SAPT in psi4, default
}

set PROPERTIES_ORIGIN ["COM"]
properties('MP2/aug-cc-pvtz', properties = ['dipole'])
--------------------------------------------------------------------------

    Molecular point group: c1
  Charge       = 0
  Multiplicity = 1
  Basis Set: AUG-CC-PVTZ
    Blend: AUG-CC-PVTZ
  Basis Set: (AUG-CC-PVTZ AUX)
    Blend: AUG-CC-PVTZ-JKFIT

    Orbital Energies [Eh]
    ---------------------

    Doubly Occupied:

       1A    -20.616947     2A    -20.552287     3A    -11.385764
       4A    -11.251229     5A    -11.230738     6A    -11.220864
       7A     -1.456702     8A     -1.355280     9A     -1.095190
      10A     -0.941763    11A     -0.895236    12A     -0.770098
      13A     -0.704917    14A     -0.692867    15A     -0.641296
      16A     -0.610410    17A     -0.600470    18A     -0.559848
      19A     -0.548710    20A     -0.524854    21A     -0.497348
      22A     -0.492959    23A     -0.478634    24A     -0.447444

  @DF-RHF Final Energy:  -305.99504237741206

   => Energetics <=

    Nuclear Repulsion Energy =            247.7291669383388353
    One-Electron Energy =                -908.3047073053128315
    Two-Electron Energy =                 354.5804979895619340
    Total Energy =                       -305.9950423774120623
  Basis Set: (AUG-CC-PVTZ AUX)
    Blend: AUG-CC-PVTZ-RI
    Molecular point group: c1

    Geometry (in Angstrom), charge = 0, multiplicity = 1:

       Center              X                  Y                   Z               Mass
    ------------   -----------------  -----------------  -----------------  -----------------
         O           -1.500785116601    -0.937052983588     0.344737743435    15.994914619570
         O           -1.127277116601     1.159088616412    -0.451275356565    15.994914619570
         C            0.725667883399    -0.205945283588     0.374017443435    12.000000000000
         C            1.265061883399    -1.196387383588    -0.652135356565    12.000000000000
         C            1.559916883399     1.095495616412     0.389695643435    12.000000000000
         C           -0.705697116601     0.126570616412     0.040887643435    12.000000000000
         H            0.738456883399    -0.655123383588     1.354469643435     1.007825032230
         H            2.304788883399    -1.445150383588    -0.424752356565     1.007825032230
         H            1.228359883399    -0.774523383588    -1.660876356565     1.007825032230
         H            0.676179883399    -2.115917383588    -0.636323356565     1.007825032230
         H            1.548256883399     1.572797616412    -0.592385356565     1.007825032230
         H            2.594836883399     0.869528616412     0.659838643435     1.007825032230
         H            1.160372883399     1.811043616412     1.111991643435     1.007825032230
         H           -2.416324116601    -0.640120383588     0.063487643435     1.007825032230

  Basis Set: AUG-CC-PVTZ
    Blend: AUG-CC-PVTZ
  Basis Set: (AUG-CC-PVTZ AUX)
    Blend: AUG-CC-PVTZ-JKFIT
	 Reference Energy          =    -305.9950423774120623 [Eh]
	 Singles Energy            =      -0.0000000000000000 [Eh]
	 Same-Spin Energy          =      -0.3020846068215933 [Eh]
	 Opposite-Spin Energy      =      -0.9814092734694643 [Eh]
	 Correlation Energy        =      -1.2834938802910576 [Eh]
	 Total Energy              =    -307.2785362577031378 [Eh]

	 ================> DF-SCS-MP2 Energies <==================
	-----------------------------------------------------------
	 SCS Same-Spin Scale       =       0.3333333333333333 [-]
	 SCS Opposite-Spin Scale   =       1.2000000000000000 [-]
	 SCS Same-Spin Energy      =      -0.1006948689405311 [Eh]
	 SCS Opposite-Spin Energy  =      -1.1776911281633571 [Eh]
	 SCS Correlation Energy    =      -1.2783859971038882 [Eh]
	 SCS Total Energy          =    -307.2734283745159587 [Eh]
	-----------------------------------------------------------

  Dipole Moment: [D]
     X:     0.6099      Y:    -1.3877      Z:     0.5252     Total:     1.6043

*** Psi4 exiting successfully. Buy a developer a beer!
