                               Psi4 1.3.2 release

  ==> Input File <==

--------------------------------------------------------------------------
#psi4
#
memory 32 gb

molecule  {
0 1
  O       -1.5543794    -0.9047469     0.3244883
  O       -1.1248250     1.1536050    -0.4487800
  C        0.7485264    -0.1395384     0.3512502
  C        1.2675140    -1.2018710    -0.6496400
  C        1.5623690     1.0900120     0.3921910
  C       -0.7032450     0.1210870     0.0433830
  H        0.7409090    -0.6606070     1.3569650
  H        2.3072410    -1.4506340    -0.4222570
  H        1.2308120    -0.7800070    -1.6583810
  H        0.6786320    -2.1214010    -0.6338280
  H        1.5507090     1.5673140    -0.5898900
  H        2.5972890     0.8640450     0.6623340
  H        1.1628250     1.8055600     1.1144870
  H       -2.4138720    -0.6456040     0.0659830
units angstrom
no_reorient  #important for SAPT in psi4, default
symmetry c1  #important for SAPT in psi4, default
}

set PROPERTIES_ORIGIN ["COM"]
properties('MP2/aug-cc-pvtz', properties = ['dipole'])
--------------------------------------------------------------------------

    Molecular point group: c1
  Charge       = 0
  Multiplicity = 1
  Basis Set: AUG-CC-PVTZ
    Blend: AUG-CC-PVTZ
  Basis Set: (AUG-CC-PVTZ AUX)
    Blend: AUG-CC-PVTZ-JKFIT

    Orbital Energies [Eh]
    ---------------------

    Doubly Occupied:

       1A    -20.609070     2A    -20.546711     3A    -11.385221
       4A    -11.257387     5A    -11.233527     6A    -11.220608
       7A     -1.463550     8A     -1.355412     9A     -1.101859
      10A     -0.949328    11A     -0.901373    12A     -0.781320
      13A     -0.706166    14A     -0.690095    15A     -0.642455
      16A     -0.613409    17A     -0.601552    18A     -0.564269
      19A     -0.550586    20A     -0.531074    21A     -0.506396
      22A     -0.485003    23A     -0.473611    24A     -0.444297

  @DF-RHF Final Energy:  -305.99605097790692

   => Energetics <=

    Nuclear Repulsion Energy =            248.0545036486599884
    One-Electron Energy =                -908.8725505257101531
    Two-Electron Energy =                 354.8219958991432463
    Total Energy =                       -305.9960509779069184
  Basis Set: (AUG-CC-PVTZ AUX)
    Blend: AUG-CC-PVTZ-RI
    Molecular point group: c1

    Geometry (in Angstrom), charge = 0, multiplicity = 1:

       Center              X                  Y                   Z               Mass
    ------------   -----------------  -----------------  -----------------  -----------------
         O           -1.549431600591    -0.915925277282     0.329567434427    15.994914619570
         O           -1.119877200591     1.142426622718    -0.443700865573    15.994914619570
         C            0.753474199409    -0.150716777282     0.356329334427    12.000000000000
         C            1.272461799409    -1.213049377282    -0.644560865573    12.000000000000
         C            1.567316799409     1.078833622718     0.397270134427    12.000000000000
         C           -0.698297200591     0.109908622718     0.048462134427    12.000000000000
         H            0.745856799409    -0.671785377282     1.362044134427     1.007825032230
         H            2.312188799409    -1.461812377282    -0.417177865573     1.007825032230
         H            1.235759799409    -0.791185377282    -1.653301865573     1.007825032230
         H            0.683579799409    -2.132579377282    -0.628748865573     1.007825032230
         H            1.555656799409     1.556135622718    -0.584810865573     1.007825032230
         H            2.602236799409     0.852866622718     0.667413134427     1.007825032230
         H            1.167772799409     1.794381622718     1.119566134427     1.007825032230
         H           -2.408924200591    -0.656782377282     0.071062134427     1.007825032230

  Basis Set: AUG-CC-PVTZ
    Blend: AUG-CC-PVTZ
  Basis Set: (AUG-CC-PVTZ AUX)
    Blend: AUG-CC-PVTZ-JKFIT
	 Reference Energy          =    -305.9960509779069184 [Eh]
	 Singles Energy            =      -0.0000000000000000 [Eh]
	 Same-Spin Energy          =      -0.3010406806535582 [Eh]
	 Opposite-Spin Energy      =      -0.9787911719702933 [Eh]
	 Correlation Energy        =      -1.2798318526238515 [Eh]
	 Total Energy              =    -307.2758828305307475 [Eh]

	 ================> DF-SCS-MP2 Energies <==================
	-----------------------------------------------------------
	 SCS Same-Spin Scale       =       0.3333333333333333 [-]
	 SCS Opposite-Spin Scale   =       1.2000000000000000 [-]
	 SCS Same-Spin Energy      =      -0.1003468935511860 [Eh]
	 SCS Opposite-Spin Energy  =      -1.1745494063643520 [Eh]
	 SCS Correlation Energy    =      -1.2748962999155380 [Eh]
	 SCS Total Energy          =    -307.2709472778224722 [Eh]
	-----------------------------------------------------------

  Dipole Moment: [D]
     X:     0.8054      Y:    -1.3851      Z:     0.5490     Total:     1.6937

*** Psi4 exiting successfully. Buy a developer a beer!
