                               Psi4 1.3.2 release

  ==> Input File <==

--------------------------------------------------------------------------
#psi4
#
memory 32 gb

molecule  {
0 1
  O       -1.5172650    -0.9302590     0.3397410
  O       -1.1445487     1.1456564    -0.4481006
  C        0.7280319    -0.2111706     0.3771484
  C        1.2675140    -1.2018710    -0.6496400
  C        1.5623690     1.0900120     0.3921910
  C       -0.7032450     0.1210870     0.0433830
  H        0.7409090    -0.6606070     1.3569650
  H        2.3072410    -1.4506340    -0.4222570
  H        1.2308120    -0.7800070    -1.6583810
  H        0.6786320    -2.1214010    -0.6338280
  H        1.5507090     1.5673140    -0.5898900
  H        2.5972890     0.8640450     0.6623340
  H        1.1628250     1.8055600     1.1144870
  H       -2.4138720    -0.6456040     0.0659830
units angstrom
no_reorient  #important for SAPT in psi4, default
symmetry c1  #important for SAPT in psi4, default
}

set PROPERTIES_ORIGIN ["COM"]
properties('MP2/aug-cc-pvtz', properties = ['dipole'])
--------------------------------------------------------------------------

    Molecular point group: c1
  Charge       = 0
  Multiplicity = 1
  Basis Set: AUG-CC-PVTZ
    Blend: AUG-CC-PVTZ
  Basis Set: (AUG-CC-PVTZ AUX)
    Blend: AUG-CC-PVTZ-JKFIT

    Orbital Energies [Eh]
    ---------------------

    Doubly Occupied:

       1A    -20.612138     2A    -20.550798     3A    -11.385573
       4A    -11.253372     5A    -11.231745     6A    -11.222187
       7A     -1.458703     8A     -1.353640     9A     -1.096867
      10A     -0.942852    11A     -0.897777    12A     -0.774135
      13A     -0.705455    14A     -0.692878    15A     -0.640879
      16A     -0.610290    17A     -0.600933    18A     -0.560849
      19A     -0.549257    20A     -0.525854    21A     -0.498626
      22A     -0.493612    23A     -0.477616    24A     -0.447867

  @DF-RHF Final Energy:  -305.99767114718651

   => Energetics <=

    Nuclear Repulsion Energy =            247.6566552090753532
    One-Electron Energy =                -908.1408487695389340
    Two-Electron Energy =                 354.4865224132771004
    Total Energy =                       -305.9976711471865087
  Basis Set: (AUG-CC-PVTZ AUX)
    Blend: AUG-CC-PVTZ-RI
    Molecular point group: c1

    Geometry (in Angstrom), charge = 0, multiplicity = 1:

       Center              X                  Y                   Z               Mass
    ------------   -----------------  -----------------  -----------------  -----------------
         O           -1.512683218450    -0.925596957573     0.338396564034    15.994914619570
         O           -1.139966918450     1.150318442427    -0.449445035966    15.994914619570
         C            0.732613681550    -0.206508557573     0.375803964034    12.000000000000
         C            1.272095781550    -1.197208957573    -0.650984435966    12.000000000000
         C            1.566950781550     1.094674042427     0.390846564034    12.000000000000
         C           -0.698663218450     0.125749042427     0.042038564034    12.000000000000
         H            0.745490781550    -0.655944957573     1.355620564034     1.007825032230
         H            2.311822781550    -1.445971957573    -0.423601435966     1.007825032230
         H            1.235393781550    -0.775344957573    -1.659725435966     1.007825032230
         H            0.683213781550    -2.116738957573    -0.635172435966     1.007825032230
         H            1.555290781550     1.571976042427    -0.591234435966     1.007825032230
         H            2.601870781550     0.868707042427     0.660989564034     1.007825032230
         H            1.167406781550     1.810222042427     1.113142564034     1.007825032230
         H           -2.409290218450    -0.640941957573     0.064638564034     1.007825032230

  Basis Set: AUG-CC-PVTZ
    Blend: AUG-CC-PVTZ
  Basis Set: (AUG-CC-PVTZ AUX)
    Blend: AUG-CC-PVTZ-JKFIT
	 Reference Energy          =    -305.9976711471865087 [Eh]
	 Singles Energy            =      -0.0000000000000000 [Eh]
	 Same-Spin Energy          =      -0.3015558701236679 [Eh]
	 Opposite-Spin Energy      =      -0.9802841159854438 [Eh]
	 Correlation Energy        =      -1.2818399861091119 [Eh]
	 Total Energy              =    -307.2795111332956139 [Eh]

	 ================> DF-SCS-MP2 Energies <==================
	-----------------------------------------------------------
	 SCS Same-Spin Scale       =       0.3333333333333333 [-]
	 SCS Opposite-Spin Scale   =       1.2000000000000000 [-]
	 SCS Same-Spin Energy      =      -0.1005186233745560 [Eh]
	 SCS Opposite-Spin Energy  =      -1.1763409391825326 [Eh]
	 SCS Correlation Energy    =      -1.2768595625570884 [Eh]
	 SCS Total Energy          =    -307.2745307097436012 [Eh]
	-----------------------------------------------------------

  Dipole Moment: [D]
     X:     0.7259      Y:    -1.3806      Z:     0.5339     Total:     1.6487

*** Psi4 exiting successfully. Buy a developer a beer!
