                               Psi4 1.3.2 release

  ==> Input File <==

--------------------------------------------------------------------------
#psi4
#
memory 32 gb

molecule  {
0 1
  O       -1.5172650    -0.9302590     0.3397410
  O       -1.1248250     1.1536050    -0.4487800
  C        0.7353610    -0.1875570     0.3681900
  C        1.2706227    -1.2196714    -0.6299244
  C        1.5623690     1.0900120     0.3921910
  C       -0.7032450     0.1210870     0.0433830
  H        0.7479320    -0.6765710     1.3491030
  H        2.3072410    -1.4506340    -0.4222570
  H        1.2308120    -0.7800070    -1.6583810
  H        0.6786320    -2.1214010    -0.6338280
  H        1.5507090     1.5673140    -0.5898900
  H        2.5972890     0.8640450     0.6623340
  H        1.1628250     1.8055600     1.1144870
  H       -2.4138720    -0.6456040     0.0659830
units angstrom
no_reorient  #important for SAPT in psi4, default
symmetry c1  #important for SAPT in psi4, default
}

set PROPERTIES_ORIGIN ["COM"]
properties('MP2/aug-cc-pvtz', properties = ['dipole'])
--------------------------------------------------------------------------

    Molecular point group: c1
  Charge       = 0
  Multiplicity = 1
  Basis Set: AUG-CC-PVTZ
    Blend: AUG-CC-PVTZ
  Basis Set: (AUG-CC-PVTZ AUX)
    Blend: AUG-CC-PVTZ-JKFIT

    Orbital Energies [Eh]
    ---------------------

    Doubly Occupied:

       1A    -20.614567     2A    -20.550683     3A    -11.385825
       4A    -11.253083     5A    -11.231612     6A    -11.221203
       7A     -1.458855     8A     -1.355376     9A     -1.097062
      10A     -0.944650    11A     -0.896942    12A     -0.773045
      13A     -0.705914    14A     -0.692081    15A     -0.641819
      16A     -0.611618    17A     -0.602283    18A     -0.562890
      19A     -0.545676    20A     -0.526862    21A     -0.501174
      22A     -0.488089    23A     -0.478753    24A     -0.447479

  @DF-RHF Final Energy:  -305.99743310335128

   => Energetics <=

    Nuclear Repulsion Energy =            247.7493588485276064
    One-Electron Energy =                -908.3185000096782460
    Two-Electron Energy =                 354.5717080577992988
    Total Energy =                       -305.9974331033512840
  Basis Set: (AUG-CC-PVTZ AUX)
    Blend: AUG-CC-PVTZ-RI
    Molecular point group: c1

    Geometry (in Angstrom), charge = 0, multiplicity = 1:

       Center              X                  Y                   Z               Mass
    ------------   -----------------  -----------------  -----------------  -----------------
         O           -1.517768943571    -0.927650355311     0.337143947437    15.994914619570
         O           -1.125328943571     1.156213644689    -0.451377052563    15.994914619570
         C            0.734857056429    -0.184948355311     0.365592947437    12.000000000000
         C            1.270118756429    -1.217062755311    -0.632521452563    12.000000000000
         C            1.561865056429     1.092620644689     0.389593947437    12.000000000000
         C           -0.703748943571     0.123695644689     0.040785947437    12.000000000000
         H            0.747428056429    -0.673962355311     1.346505947437     1.007825032230
         H            2.306737056429    -1.448025355311    -0.424854052563     1.007825032230
         H            1.230308056429    -0.777398355311    -1.660978052563     1.007825032230
         H            0.678128056429    -2.118792355311    -0.636425052563     1.007825032230
         H            1.550205056429     1.569922644689    -0.592487052563     1.007825032230
         H            2.596785056429     0.866653644689     0.659736947437     1.007825032230
         H            1.162321056429     1.808168644689     1.111889947437     1.007825032230
         H           -2.414375943571    -0.642995355311     0.063385947437     1.007825032230

  Basis Set: AUG-CC-PVTZ
    Blend: AUG-CC-PVTZ
  Basis Set: (AUG-CC-PVTZ AUX)
    Blend: AUG-CC-PVTZ-JKFIT
	 Reference Energy          =    -305.9974331033512840 [Eh]
	 Singles Energy            =      -0.0000000000000000 [Eh]
	 Same-Spin Energy          =      -0.3016697569087958 [Eh]
	 Opposite-Spin Energy      =      -0.9803957465074695 [Eh]
	 Correlation Energy        =      -1.2820655034162654 [Eh]
	 Total Energy              =    -307.2794986067675609 [Eh]

	 ================> DF-SCS-MP2 Energies <==================
	-----------------------------------------------------------
	 SCS Same-Spin Scale       =       0.3333333333333333 [-]
	 SCS Opposite-Spin Scale   =       1.2000000000000000 [-]
	 SCS Same-Spin Energy      =      -0.1005565856362653 [Eh]
	 SCS Opposite-Spin Energy  =      -1.1764748958089635 [Eh]
	 SCS Correlation Energy    =      -1.2770314814452288 [Eh]
	 SCS Total Energy          =    -307.2744645847965330 [Eh]
	-----------------------------------------------------------

  Dipole Moment: [D]
     X:     0.6745      Y:    -1.3924      Z:     0.5448     Total:     1.6403

*** Psi4 exiting successfully. Buy a developer a beer!
