                               Psi4 1.3.2 release

  ==> Input File <==

--------------------------------------------------------------------------
#psi4
#
memory 32 gb

molecule  {
0 1
  O       -1.5172650    -0.9302590     0.3397410
  O       -1.1248250     1.1536050    -0.4487800
  C        0.7353610    -0.1875570     0.3681900
  C        1.2675140    -1.2018710    -0.6496400
  C        1.5623690     1.0900120     0.3921910
  C       -0.6846789     0.1087917     0.0517147
  H        0.7409090    -0.6606070     1.3569650
  H        2.3072410    -1.4506340    -0.4222570
  H        1.2308120    -0.7800070    -1.6583810
  H        0.6786320    -2.1214010    -0.6338280
  H        1.5507090     1.5673140    -0.5898900
  H        2.5972890     0.8640450     0.6623340
  H        1.1628250     1.8055600     1.1144870
  H       -2.4200768    -0.6606682     0.0711751
units angstrom
no_reorient  #important for SAPT in psi4, default
symmetry c1  #important for SAPT in psi4, default
}

set PROPERTIES_ORIGIN ["COM"]
properties('MP2/aug-cc-pvtz', properties = ['dipole'])
--------------------------------------------------------------------------

    Molecular point group: c1
  Charge       = 0
  Multiplicity = 1
  Basis Set: AUG-CC-PVTZ
    Blend: AUG-CC-PVTZ
  Basis Set: (AUG-CC-PVTZ AUX)
    Blend: AUG-CC-PVTZ-JKFIT

    Orbital Energies [Eh]
    ---------------------

    Doubly Occupied:

       1A    -20.614391     2A    -20.547272     3A    -11.387603
       4A    -11.253953     5A    -11.233315     6A    -11.221981
       7A     -1.453951     8A     -1.343597     9A     -1.101905
      10A     -0.945674    11A     -0.902495    12A     -0.775986
      13A     -0.704694    14A     -0.689902    15A     -0.639810
      16A     -0.610456    17A     -0.597643    18A     -0.561375
      19A     -0.549897    20A     -0.525759    21A     -0.499086
      22A     -0.494182    23A     -0.471930    24A     -0.447465

  @DF-RHF Final Energy:  -305.99542649389809

   => Energetics <=

    Nuclear Repulsion Energy =            247.7729794750698886
    One-Electron Energy =                -908.3881659977434992
    Two-Electron Energy =                 354.6197600287755449
    Total Energy =                       -305.9954264938980941
  Basis Set: (AUG-CC-PVTZ AUX)
    Blend: AUG-CC-PVTZ-RI
    Molecular point group: c1

    Geometry (in Angstrom), charge = 0, multiplicity = 1:

       Center              X                  Y                   Z               Mass
    ------------   -----------------  -----------------  -----------------  -----------------
         O           -1.519724113837    -0.928410902650     0.338545959305    15.994914619570
         O           -1.127284113837     1.155453097350    -0.449975040695    15.994914619570
         C            0.732901886163    -0.185708902650     0.366994959305    12.000000000000
         C            1.265054886163    -1.200022902650    -0.650835040695    12.000000000000
         C            1.559909886163     1.091860097350     0.390995959305    12.000000000000
         C           -0.687138013837     0.110639797350     0.050519659305    12.000000000000
         H            0.738449886163    -0.658758902650     1.355769959305     1.007825032230
         H            2.304781886163    -1.448785902650    -0.423452040695     1.007825032230
         H            1.228352886163    -0.778158902650    -1.659576040695     1.007825032230
         H            0.676172886163    -2.119552902650    -0.635023040695     1.007825032230
         H            1.548249886163     1.569162097350    -0.591085040695     1.007825032230
         H            2.594829886163     0.865893097350     0.661138959305     1.007825032230
         H            1.160365886163     1.807408097350     1.113291959305     1.007825032230
         H           -2.422535913837    -0.658820102650     0.069980059305     1.007825032230

  Basis Set: AUG-CC-PVTZ
    Blend: AUG-CC-PVTZ
  Basis Set: (AUG-CC-PVTZ AUX)
    Blend: AUG-CC-PVTZ-JKFIT
	 Reference Energy          =    -305.9954264938980941 [Eh]
	 Singles Energy            =      -0.0000000000000000 [Eh]
	 Same-Spin Energy          =      -0.3021729184239652 [Eh]
	 Opposite-Spin Energy      =      -0.9813398587274920 [Eh]
	 Correlation Energy        =      -1.2835127771514572 [Eh]
	 Total Energy              =    -307.2789392710495235 [Eh]

	 ================> DF-SCS-MP2 Energies <==================
	-----------------------------------------------------------
	 SCS Same-Spin Scale       =       0.3333333333333333 [-]
	 SCS Opposite-Spin Scale   =       1.2000000000000000 [-]
	 SCS Same-Spin Energy      =      -0.1007243061413217 [Eh]
	 SCS Opposite-Spin Energy  =      -1.1776078304729902 [Eh]
	 SCS Correlation Energy    =      -1.2783321366143119 [Eh]
	 SCS Total Energy          =    -307.2737586305124182 [Eh]
	-----------------------------------------------------------

  Dipole Moment: [D]
     X:     0.7608      Y:    -1.4873      Z:     0.5759     Total:     1.7671

*** Psi4 exiting successfully. Buy a developer a beer!
