                               Psi4 1.3.2 release

  ==> Input File <==

--------------------------------------------------------------------------
#psi4
#
memory 32 gb

molecule  {
0 1
  O       -1.5172650    -0.9302590     0.3397410
  O       -1.1248250     1.1536050    -0.4487800
  C        0.7353610    -0.1875570     0.3681900
  C        1.2912410    -1.2014446    -0.6373084
  C        1.5623690     1.0900120     0.3921910
  C       -0.7040811     0.1375948     0.0638369
  H        0.7409090    -0.6606070     1.3569650
  H        2.3072410    -1.4506340    -0.4222570
  H        1.2308120    -0.7800070    -1.6583810
  H        0.6786320    -2.1214010    -0.6338280
  H        1.5507090     1.5673140    -0.5898900
  H        2.5972890     0.8640450     0.6623340
  H        1.1628250     1.8055600     1.1144870
  H       -2.4138720    -0.6456040     0.0659830
units angstrom
no_reorient  #important for SAPT in psi4, default
symmetry c1  #important for SAPT in psi4, default
}

set PROPERTIES_ORIGIN ["COM"]
properties('MP2/aug-cc-pvtz', properties = ['dipole'])
--------------------------------------------------------------------------

    Molecular point group: c1
  Charge       = 0
  Multiplicity = 1
  Basis Set: AUG-CC-PVTZ
    Blend: AUG-CC-PVTZ
  Basis Set: (AUG-CC-PVTZ AUX)
    Blend: AUG-CC-PVTZ-JKFIT

    Orbital Energies [Eh]
    ---------------------

    Doubly Occupied:

       1A    -20.612364     2A    -20.552573     3A    -11.385839
       4A    -11.253112     5A    -11.231782     6A    -11.220616
       7A     -1.457298     8A     -1.357242     9A     -1.096996
      10A     -0.943674    11A     -0.897296    12A     -0.770933
      13A     -0.705699    14A     -0.691375    15A     -0.641879
      16A     -0.608439    17A     -0.602537    18A     -0.563515
      19A     -0.549810    20A     -0.527835    21A     -0.495591
      22A     -0.490853    23A     -0.479820    24A     -0.448561

  @DF-RHF Final Energy:  -305.99715172354621

   => Energetics <=

    Nuclear Repulsion Energy =            247.6803506486209301
    One-Electron Energy =                -908.1837158219721005
    Two-Electron Energy =                 354.5062134498049886
    Total Energy =                       -305.9971517235462102
  Basis Set: (AUG-CC-PVTZ AUX)
    Blend: AUG-CC-PVTZ-RI
    Molecular point group: c1

    Geometry (in Angstrom), charge = 0, multiplicity = 1:

       Center              X                  Y                   Z               Mass
    ------------   -----------------  -----------------  -----------------  -----------------
         O           -1.520384526652    -0.932566791136     0.335272763173    15.994914619570
         O           -1.127944526652     1.151297208864    -0.453248236827    15.994914619570
         C            0.732241473348    -0.189864791136     0.363721763173    12.000000000000
         C            1.288121473348    -1.203752391136    -0.641776636827    12.000000000000
         C            1.559249473348     1.087704208864     0.387722763173    12.000000000000
         C           -0.707200626652     0.135287008864     0.059368663173    12.000000000000
         H            0.737789473348    -0.662914791136     1.352496763173     1.007825032230
         H            2.304121473348    -1.452941791136    -0.426725236827     1.007825032230
         H            1.227692473348    -0.782314791136    -1.662849236827     1.007825032230
         H            0.675512473348    -2.123708791136    -0.638296236827     1.007825032230
         H            1.547589473348     1.565006208864    -0.594358236827     1.007825032230
         H            2.594169473348     0.861737208864     0.657865763173     1.007825032230
         H            1.159705473348     1.803252208864     1.110018763173     1.007825032230
         H           -2.416991526652    -0.647911791136     0.061514763173     1.007825032230

  Basis Set: AUG-CC-PVTZ
    Blend: AUG-CC-PVTZ
  Basis Set: (AUG-CC-PVTZ AUX)
    Blend: AUG-CC-PVTZ-JKFIT
	 Reference Energy          =    -305.9971517235462102 [Eh]
	 Singles Energy            =      -0.0000000000000000 [Eh]
	 Same-Spin Energy          =      -0.3016030460049198 [Eh]
	 Opposite-Spin Energy      =      -0.9804066596810691 [Eh]
	 Correlation Energy        =      -1.2820097056859889 [Eh]
	 Total Energy              =    -307.2791614292322038 [Eh]

	 ================> DF-SCS-MP2 Energies <==================
	-----------------------------------------------------------
	 SCS Same-Spin Scale       =       0.3333333333333333 [-]
	 SCS Opposite-Spin Scale   =       1.2000000000000000 [-]
	 SCS Same-Spin Energy      =      -0.1005343486683066 [Eh]
	 SCS Opposite-Spin Energy  =      -1.1764879916172828 [Eh]
	 SCS Correlation Energy    =      -1.2770223402855894 [Eh]
	 SCS Total Energy          =    -307.2741740638318220 [Eh]
	-----------------------------------------------------------

  Dipole Moment: [D]
     X:     0.6911      Y:    -1.3229      Z:     0.5337     Total:     1.5851

*** Psi4 exiting successfully. Buy a developer a beer!
