                               Psi4 1.3.2 release

  ==> Input File <==

--------------------------------------------------------------------------
#psi4
#
memory 32 gb

molecule  {
0 1
  O       -1.5172650    -0.9302590     0.3397410
  O       -1.1248250     1.1536050    -0.4487800
  C        0.7353610    -0.1875570     0.3681900
  C        1.2675140    -1.2018710    -0.6496400
  C        1.5623690     1.0900120     0.3921910
  C       -0.8227542    -0.0332648     0.0868924
  H        0.7409090    -0.6606070     1.3569650
  H        2.3072410    -1.4506340    -0.4222570
  H        1.2308120    -0.7800070    -1.6583810
  H        0.6786320    -2.1214010    -0.6338280
  H        1.5507090     1.5673140    -0.5898900
  H        2.5972890     0.8640450     0.6623340
  H        1.1628250     1.8055600     1.1144870
  H       -2.4138720    -0.6456040     0.0659830
units angstrom
no_reorient  #important for SAPT in psi4, default
symmetry c1  #important for SAPT in psi4, default
}

set PROPERTIES_ORIGIN ["COM"]
properties('MP2/aug-cc-pvtz', properties = ['dipole'])
--------------------------------------------------------------------------

    Molecular point group: c1
  Charge       = 0
  Multiplicity = 1
  Basis Set: AUG-CC-PVTZ
    Blend: AUG-CC-PVTZ
  Basis Set: (AUG-CC-PVTZ AUX)
    Blend: AUG-CC-PVTZ-JKFIT

    Orbital Energies [Eh]
    ---------------------

    Doubly Occupied:

       1A    -20.670946     2A    -20.515535     3A    -11.387357
       4A    -11.251996     5A    -11.227130     6A    -11.214101
       7A     -1.580844     8A     -1.285701     9A     -1.081446
      10A     -0.942030    11A     -0.931187    12A     -0.814939
      13A     -0.753009    14A     -0.706505    15A     -0.671530
      16A     -0.614879    17A     -0.578692    18A     -0.560973
      19A     -0.542056    20A     -0.499655    21A     -0.487349
      22A     -0.484696    23A     -0.436052    24A     -0.411344

  @DF-RHF Final Energy:  -305.93675414609538

   => Energetics <=

    Nuclear Repulsion Energy =            247.9184002758134397
    One-Electron Energy =                -908.4104048384187990
    Two-Electron Energy =                 354.5552504165100345
    Total Energy =                       -305.9367541460953817
  Basis Set: (AUG-CC-PVTZ AUX)
    Blend: AUG-CC-PVTZ-RI
    Molecular point group: c1

    Geometry (in Angstrom), charge = 0, multiplicity = 1:

       Center              X                  Y                   Z               Mass
    ------------   -----------------  -----------------  -----------------  -----------------
         O           -1.500977893470    -0.909223517001     0.333811283908    15.994914619570
         O           -1.108537893470     1.174640482999    -0.454709716092    15.994914619570
         C            0.751648106530    -0.166521517001     0.362260283908    12.000000000000
         C            1.283801106530    -1.180835517001    -0.655569716092    12.000000000000
         C            1.578656106530     1.111047482999     0.386261283908    12.000000000000
         C           -0.806467093470    -0.012229317001     0.080962683908    12.000000000000
         H            0.757196106530    -0.639571517001     1.351035283908     1.007825032230
         H            2.323528106530    -1.429598517001    -0.428186716092     1.007825032230
         H            1.247099106530    -0.758971517001    -1.664310716092     1.007825032230
         H            0.694919106530    -2.100365517001    -0.639757716092     1.007825032230
         H            1.566996106530     1.588349482999    -0.595819716092     1.007825032230
         H            2.613576106530     0.885080482999     0.656404283908     1.007825032230
         H            1.179112106530     1.826595482999     1.108557283908     1.007825032230
         H           -2.397584893470    -0.624568517001     0.060053283908     1.007825032230

  Basis Set: AUG-CC-PVTZ
    Blend: AUG-CC-PVTZ
  Basis Set: (AUG-CC-PVTZ AUX)
    Blend: AUG-CC-PVTZ-JKFIT
	 Reference Energy          =    -305.9367541460953817 [Eh]
	 Singles Energy            =      -0.0000000000000000 [Eh]
	 Same-Spin Energy          =      -0.3027844166998723 [Eh]
	 Opposite-Spin Energy      =      -0.9813526989551180 [Eh]
	 Correlation Energy        =      -1.2841371156549903 [Eh]
	 Total Energy              =    -307.2208912617503529 [Eh]

	 ================> DF-SCS-MP2 Energies <==================
	-----------------------------------------------------------
	 SCS Same-Spin Scale       =       0.3333333333333333 [-]
	 SCS Opposite-Spin Scale   =       1.2000000000000000 [-]
	 SCS Same-Spin Energy      =      -0.1009281388999574 [Eh]
	 SCS Opposite-Spin Energy  =      -1.1776232387461416 [Eh]
	 SCS Correlation Energy    =      -1.2785513776460991 [Eh]
	 SCS Total Energy          =    -307.2153055237415060 [Eh]
	-----------------------------------------------------------

  Dipole Moment: [D]
     X:    -0.1465      Y:    -2.6652      Z:     0.9803     Total:     2.8435

*** Psi4 exiting successfully. Buy a developer a beer!
