                               Psi4 1.3.2 release

  ==> Input File <==

--------------------------------------------------------------------------
#psi4
#
memory 32 gb

molecule  {
0 1
  O       -1.4793270    -0.9540506     0.3557303
  O       -1.0851677     1.1690248    -0.4485612
  C        0.7353610    -0.1875570     0.3681900
  C        1.2675140    -1.2018710    -0.6496400
  C        1.5623690     1.0900120     0.3921910
  C       -0.7032450     0.1210870     0.0433830
  H        0.7409090    -0.6606070     1.3569650
  H        2.3072410    -1.4506340    -0.4222570
  H        1.2308120    -0.7800070    -1.6583810
  H        0.6786320    -2.1214010    -0.6338280
  H        1.5507090     1.5673140    -0.5898900
  H        2.5972890     0.8640450     0.6623340
  H        1.1628250     1.8055600     1.1144870
  H       -2.4138720    -0.6456040     0.0659830
units angstrom
no_reorient  #important for SAPT in psi4, default
symmetry c1  #important for SAPT in psi4, default
}

set PROPERTIES_ORIGIN ["COM"]
properties('MP2/aug-cc-pvtz', properties = ['dipole'])
--------------------------------------------------------------------------

    Molecular point group: c1
  Charge       = 0
  Multiplicity = 1
  Basis Set: AUG-CC-PVTZ
    Blend: AUG-CC-PVTZ
  Basis Set: (AUG-CC-PVTZ AUX)
    Blend: AUG-CC-PVTZ-JKFIT

    Orbital Energies [Eh]
    ---------------------

    Doubly Occupied:

       1A    -20.623750     2A    -20.553265     3A    -11.385902
       4A    -11.248707     5A    -11.229604     6A    -11.218185
       7A     -1.454899     8A     -1.358370     9A     -1.093719
      10A     -0.941951    11A     -0.892055    12A     -0.765236
      13A     -0.705019    14A     -0.691671    15A     -0.642246
      16A     -0.611035    17A     -0.600470    18A     -0.558665
      19A     -0.548157    20A     -0.524052    21A     -0.496877
      22A     -0.490022    23A     -0.480757    24A     -0.445146

  @DF-RHF Final Energy:  -305.99111692643118

   => Energetics <=

    Nuclear Repulsion Energy =            247.9901708534973466
    One-Electron Energy =                -908.8430526977691670
    Two-Electron Energy =                 354.8617649178406168
    Total Energy =                       -305.9911169264311752
  Basis Set: (AUG-CC-PVTZ AUX)
    Blend: AUG-CC-PVTZ-RI
    Molecular point group: c1

    Geometry (in Angstrom), charge = 0, multiplicity = 1:

       Center              X                  Y                   Z               Mass
    ------------   -----------------  -----------------  -----------------  -----------------
         O           -1.493422253317    -0.952529801418     0.352785914646    15.994914619570
         O           -1.099262953317     1.170545598582    -0.451505585354    15.994914619570
         C            0.721265746683    -0.186036201418     0.365245614646    12.000000000000
         C            1.253418746683    -1.200350201418    -0.652584385354    12.000000000000
         C            1.548273746683     1.091532798582     0.389246614646    12.000000000000
         C           -0.717340253317     0.122607798582     0.040438614646    12.000000000000
         H            0.726813746683    -0.659086201418     1.354020614646     1.007825032230
         H            2.293145746683    -1.449113201418    -0.425201385354     1.007825032230
         H            1.216716746683    -0.778486201418    -1.661325385354     1.007825032230
         H            0.664536746683    -2.119880201418    -0.636772385354     1.007825032230
         H            1.536613746683     1.568834798582    -0.592834385354     1.007825032230
         H            2.583193746683     0.865565798582     0.659389614646     1.007825032230
         H            1.148729746683     1.807080798582     1.111542614646     1.007825032230
         H           -2.427967253317    -0.644083201418     0.063038614646     1.007825032230

  Basis Set: AUG-CC-PVTZ
    Blend: AUG-CC-PVTZ
  Basis Set: (AUG-CC-PVTZ AUX)
    Blend: AUG-CC-PVTZ-JKFIT
	 Reference Energy          =    -305.9911169264311752 [Eh]
	 Singles Energy            =      -0.0000000000000000 [Eh]
	 Same-Spin Energy          =      -0.3027513975330210 [Eh]
	 Opposite-Spin Energy      =      -0.9827120999407775 [Eh]
	 Correlation Energy        =      -1.2854634974737984 [Eh]
	 Total Energy              =    -307.2765804239049885 [Eh]

	 ================> DF-SCS-MP2 Energies <==================
	-----------------------------------------------------------
	 SCS Same-Spin Scale       =       0.3333333333333333 [-]
	 SCS Opposite-Spin Scale   =       1.2000000000000000 [-]
	 SCS Same-Spin Energy      =      -0.1009171325110070 [Eh]
	 SCS Opposite-Spin Energy  =      -1.1792545199289328 [Eh]
	 SCS Correlation Energy    =      -1.2801716524399398 [Eh]
	 SCS Total Energy          =    -307.2712885788711219 [Eh]
	-----------------------------------------------------------

  Dipole Moment: [D]
     X:     0.4433      Y:    -1.3997      Z:     0.5130     Total:     1.5553

*** Psi4 exiting successfully. Buy a developer a beer!
