                               Psi4 1.3.2 release

  ==> Input File <==

--------------------------------------------------------------------------
#psi4
#
memory 32 gb

molecule  {
0 1
  O       -1.5172650    -0.9302590     0.3397410
  O       -1.1835867     1.1288255    -0.4462929
  C        0.7120681    -0.2580870     0.3947574
  C        1.2675140    -1.2018710    -0.6496400
  C        1.5623690     1.0900120     0.3921910
  C       -0.7032450     0.1210870     0.0433830
  H        0.7409090    -0.6606070     1.3569650
  H        2.3072410    -1.4506340    -0.4222570
  H        1.2308120    -0.7800070    -1.6583810
  H        0.6786320    -2.1214010    -0.6338280
  H        1.5507090     1.5673140    -0.5898900
  H        2.5972890     0.8640450     0.6623340
  H        1.1628250     1.8055600     1.1144870
  H       -2.4138720    -0.6456040     0.0659830
units angstrom
no_reorient  #important for SAPT in psi4, default
symmetry c1  #important for SAPT in psi4, default
}

set PROPERTIES_ORIGIN ["COM"]
properties('MP2/aug-cc-pvtz', properties = ['dipole'])
--------------------------------------------------------------------------

    Molecular point group: c1
  Charge       = 0
  Multiplicity = 1
  Basis Set: AUG-CC-PVTZ
    Blend: AUG-CC-PVTZ
  Basis Set: (AUG-CC-PVTZ AUX)
    Blend: AUG-CC-PVTZ-JKFIT

    Orbital Energies [Eh]
    ---------------------

    Doubly Occupied:

       1A    -20.607565     2A    -20.551586     3A    -11.386125
       4A    -11.254479     5A    -11.232344     6A    -11.224750
       7A     -1.458972     8A     -1.350615     9A     -1.096757
      10A     -0.940384    11A     -0.899259    12A     -0.777129
      13A     -0.704633    14A     -0.694750    15A     -0.640031
      16A     -0.609446    17A     -0.599777    18A     -0.561899
      19A     -0.549268    20A     -0.526754    21A     -0.509951
      22A     -0.485214    23A     -0.472224    24A     -0.449211

  @DF-RHF Final Energy:  -305.99107221654924

   => Energetics <=

    Nuclear Repulsion Energy =            247.3583166488399456
    One-Electron Energy =                -907.5325324014607986
    Two-Electron Energy =                 354.1831435360716114
    Total Energy =                       -305.9910722165492416
  Basis Set: (AUG-CC-PVTZ AUX)
    Blend: AUG-CC-PVTZ-RI
    Molecular point group: c1

    Geometry (in Angstrom), charge = 0, multiplicity = 1:

       Center              X                  Y                   Z               Mass
    ------------   -----------------  -----------------  -----------------  -----------------
         O           -1.503416295531    -0.916145706617     0.335668393913    15.994914619570
         O           -1.169737995531     1.142938793383    -0.450365506087    15.994914619570
         C            0.725916804469    -0.243973706617     0.390684793913    12.000000000000
         C            1.281362704469    -1.187757706617    -0.653712606087    12.000000000000
         C            1.576217704469     1.104125293383     0.388118393913    12.000000000000
         C           -0.689396295531     0.135200293383     0.039310393913    12.000000000000
         H            0.754757704469    -0.646493706617     1.352892393913     1.007825032230
         H            2.321089704469    -1.436520706617    -0.426329606087     1.007825032230
         H            1.244660704469    -0.765893706617    -1.662453606087     1.007825032230
         H            0.692480704469    -2.107287706617    -0.637900606087     1.007825032230
         H            1.564557704469     1.581427293383    -0.593962606087     1.007825032230
         H            2.611137704469     0.878158293383     0.658261393913     1.007825032230
         H            1.176673704469     1.819673293383     1.110414393913     1.007825032230
         H           -2.400023295531    -0.631490706617     0.061910393913     1.007825032230

  Basis Set: AUG-CC-PVTZ
    Blend: AUG-CC-PVTZ
  Basis Set: (AUG-CC-PVTZ AUX)
    Blend: AUG-CC-PVTZ-JKFIT
	 Reference Energy          =    -305.9910722165492416 [Eh]
	 Singles Energy            =      -0.0000000000000000 [Eh]
	 Same-Spin Energy          =      -0.3015412442319672 [Eh]
	 Opposite-Spin Energy      =      -0.9805228471707804 [Eh]
	 Correlation Energy        =      -1.2820640914027477 [Eh]
	 Total Energy              =    -307.2731363079519724 [Eh]

	 ================> DF-SCS-MP2 Energies <==================
	-----------------------------------------------------------
	 SCS Same-Spin Scale       =       0.3333333333333333 [-]
	 SCS Opposite-Spin Scale   =       1.2000000000000000 [-]
	 SCS Same-Spin Energy      =      -0.1005137480773224 [Eh]
	 SCS Opposite-Spin Energy  =      -1.1766274166049364 [Eh]
	 SCS Correlation Energy    =      -1.2771411646822588 [Eh]
	 SCS Total Energy          =    -307.2682133812314760 [Eh]
	-----------------------------------------------------------

  Dipole Moment: [D]
     X:     0.8312      Y:    -1.3629      Z:     0.5290     Total:     1.6818

*** Psi4 exiting successfully. Buy a developer a beer!
