                               Psi4 1.3.2 release

  ==> Input File <==

--------------------------------------------------------------------------
#psi4
#
memory 32 gb

molecule  {
0 1
  O       -1.4791589    -0.9544902     0.3546326
  O       -1.1248250     1.1536050    -0.4487800
  C        0.7204429    -0.2351996     0.3847340
  C        1.2675140    -1.2018710    -0.6496400
  C        1.5623690     1.0900120     0.3921910
  C       -0.7032450     0.1210870     0.0433830
  H        0.7409090    -0.6606070     1.3569650
  H        2.3072410    -1.4506340    -0.4222570
  H        1.2308120    -0.7800070    -1.6583810
  H        0.6786320    -2.1214010    -0.6338280
  H        1.5507090     1.5673140    -0.5898900
  H        2.5972890     0.8640450     0.6623340
  H        1.1628250     1.8055600     1.1144870
  H       -2.4138720    -0.6456040     0.0659830
units angstrom
no_reorient  #important for SAPT in psi4, default
symmetry c1  #important for SAPT in psi4, default
}

set PROPERTIES_ORIGIN ["COM"]
properties('MP2/aug-cc-pvtz', properties = ['dipole'])
--------------------------------------------------------------------------

    Molecular point group: c1
  Charge       = 0
  Multiplicity = 1
  Basis Set: AUG-CC-PVTZ
    Blend: AUG-CC-PVTZ
  Basis Set: (AUG-CC-PVTZ AUX)
    Blend: AUG-CC-PVTZ-JKFIT

    Orbital Energies [Eh]
    ---------------------

    Doubly Occupied:

       1A    -20.619379     2A    -20.554209     3A    -11.386247
       4A    -11.249603     5A    -11.230012     6A    -11.220832
       7A     -1.454984     8A     -1.355542     9A     -1.093402
      10A     -0.939425    11A     -0.893623    12A     -0.768052
      13A     -0.703488    14A     -0.693829    15A     -0.641339
      16A     -0.610501    17A     -0.598803    18A     -0.559302
      19A     -0.548227    20A     -0.524029    21A     -0.501928
      22A     -0.489300    23A     -0.476016    24A     -0.447928

  @DF-RHF Final Energy:  -305.98903714335529

   => Energetics <=

    Nuclear Repulsion Energy =            247.6524278396126988
    One-Electron Energy =                -908.1629278268245571
    Two-Electron Energy =                 354.5214628438566251
    Total Energy =                       -305.9890371433552900
  Basis Set: (AUG-CC-PVTZ AUX)
    Blend: AUG-CC-PVTZ-RI
    Molecular point group: c1

    Geometry (in Angstrom), charge = 0, multiplicity = 1:

       Center              X                  Y                   Z               Mass
    ------------   -----------------  -----------------  -----------------  -----------------
         O           -1.484047779489    -0.943595657233     0.349672703025    15.994914619570
         O           -1.129713879489     1.164499542767    -0.453739896975    15.994914619570
         C            0.715554020511    -0.224305057233     0.379774103025    12.000000000000
         C            1.262625120511    -1.190976457233    -0.654599896975    12.000000000000
         C            1.557480120511     1.100906542767     0.387231103025    12.000000000000
         C           -0.708133879489     0.131981542767     0.038423103025    12.000000000000
         H            0.736020120511    -0.649712457233     1.352005103025     1.007825032230
         H            2.302352120511    -1.439739457233    -0.427216896975     1.007825032230
         H            1.225923120511    -0.769112457233    -1.663340896975     1.007825032230
         H            0.673743120511    -2.110506457233    -0.638787896975     1.007825032230
         H            1.545820120511     1.578208542767    -0.594849896975     1.007825032230
         H            2.592400120511     0.874939542767     0.657374103025     1.007825032230
         H            1.157936120511     1.816454542767     1.109527103025     1.007825032230
         H           -2.418760879489    -0.634709457233     0.061023103025     1.007825032230

  Basis Set: AUG-CC-PVTZ
    Blend: AUG-CC-PVTZ
  Basis Set: (AUG-CC-PVTZ AUX)
    Blend: AUG-CC-PVTZ-JKFIT
	 Reference Energy          =    -305.9890371433552900 [Eh]
	 Singles Energy            =      -0.0000000000000000 [Eh]
	 Same-Spin Energy          =      -0.3025943593098127 [Eh]
	 Opposite-Spin Energy      =      -0.9826382967722047 [Eh]
	 Correlation Energy        =      -1.2852326560820173 [Eh]
	 Total Energy              =    -307.2742697994373202 [Eh]

	 ================> DF-SCS-MP2 Energies <==================
	-----------------------------------------------------------
	 SCS Same-Spin Scale       =       0.3333333333333333 [-]
	 SCS Opposite-Spin Scale   =       1.2000000000000000 [-]
	 SCS Same-Spin Energy      =      -0.1008647864366042 [Eh]
	 SCS Opposite-Spin Energy  =      -1.1791659561266457 [Eh]
	 SCS Correlation Energy    =      -1.2800307425632498 [Eh]
	 SCS Total Energy          =    -307.2690678859185596 [Eh]
	-----------------------------------------------------------

  Dipole Moment: [D]
     X:     0.5495      Y:    -1.3878      Z:     0.5155     Total:     1.5792

*** Psi4 exiting successfully. Buy a developer a beer!
