                               Psi4 1.3.2 release

  ==> Input File <==

--------------------------------------------------------------------------
#psi4
#
memory 32 gb

molecule  {
0 1
  O       -1.5172650    -0.9302590     0.3397410
  O       -1.1248250     1.1536050    -0.4487800
  C        0.7353610    -0.1875570     0.3681900
  C        1.2658988    -1.1928546    -0.6593819
  C        1.5623690     1.0900120     0.3921910
  C       -0.7032450     0.1210870     0.0433830
  H        0.7373967    -0.6525706     1.3607832
  H        2.3072410    -1.4506340    -0.4222570
  H        1.2308120    -0.7800070    -1.6583810
  H        0.6786320    -2.1214010    -0.6338280
  H        1.5507090     1.5673140    -0.5898900
  H        2.5972890     0.8640450     0.6623340
  H        1.1628250     1.8055600     1.1144870
  H       -2.4138720    -0.6456040     0.0659830
units angstrom
no_reorient  #important for SAPT in psi4, default
symmetry c1  #important for SAPT in psi4, default
}

set PROPERTIES_ORIGIN ["COM"]
properties('MP2/aug-cc-pvtz', properties = ['dipole'])
--------------------------------------------------------------------------

    Molecular point group: c1
  Charge       = 0
  Multiplicity = 1
  Basis Set: AUG-CC-PVTZ
    Blend: AUG-CC-PVTZ
  Basis Set: (AUG-CC-PVTZ AUX)
    Blend: AUG-CC-PVTZ-JKFIT

    Orbital Energies [Eh]
    ---------------------

    Doubly Occupied:

       1A    -20.614360     2A    -20.550262     3A    -11.385243
       4A    -11.253121     5A    -11.231656     6A    -11.220655
       7A     -1.458630     8A     -1.355081     9A     -1.097282
      10A     -0.944035    11A     -0.897161    12A     -0.773121
      13A     -0.705812    14A     -0.691849    15A     -0.641281
      16A     -0.610757    17A     -0.601011    18A     -0.560677
      19A     -0.550310    20A     -0.525769    21A     -0.496784
      22A     -0.494581    23A     -0.478335    24A     -0.446171

  @DF-RHF Final Energy:  -305.99811223016957

   => Energetics <=

    Nuclear Repulsion Energy =            247.8591133305725691
    One-Electron Energy =                -908.5465626442934308
    Two-Electron Energy =                 354.6893370835513224
    Total Energy =                       -305.9981122301695677
  Basis Set: (AUG-CC-PVTZ AUX)
    Blend: AUG-CC-PVTZ-RI
    Molecular point group: c1

    Geometry (in Angstrom), charge = 0, multiplicity = 1:

       Center              X                  Y                   Z               Mass
    ------------   -----------------  -----------------  -----------------  -----------------
         O           -1.517004574667    -0.931579716555     0.341024798925    15.994914619570
         O           -1.124564574667     1.152284283445    -0.447496201075    15.994914619570
         C            0.735621425333    -0.188877716555     0.369473798925    12.000000000000
         C            1.266159225333    -1.194175316555    -0.658098101075    12.000000000000
         C            1.562629425333     1.088691283445     0.393474798925    12.000000000000
         C           -0.702984574667     0.119766283445     0.044666798925    12.000000000000
         H            0.737657125333    -0.653891316555     1.362066998925     1.007825032230
         H            2.307501425333    -1.451954716555    -0.420973201075     1.007825032230
         H            1.231072425333    -0.781327716555    -1.657097201075     1.007825032230
         H            0.678892425333    -2.122721716555    -0.632544201075     1.007825032230
         H            1.550969425333     1.565993283445    -0.588606201075     1.007825032230
         H            2.597549425333     0.862724283445     0.663617798925     1.007825032230
         H            1.163085425333     1.804239283445     1.115770798925     1.007825032230
         H           -2.413611574667    -0.646924716555     0.067266798925     1.007825032230

  Basis Set: AUG-CC-PVTZ
    Blend: AUG-CC-PVTZ
  Basis Set: (AUG-CC-PVTZ AUX)
    Blend: AUG-CC-PVTZ-JKFIT
	 Reference Energy          =    -305.9981122301695677 [Eh]
	 Singles Energy            =      -0.0000000000000000 [Eh]
	 Same-Spin Energy          =      -0.3016615312468076 [Eh]
	 Opposite-Spin Energy      =      -0.9803732126137964 [Eh]
	 Correlation Energy        =      -1.2820347438606041 [Eh]
	 Total Energy              =    -307.2801469740301741 [Eh]

	 ================> DF-SCS-MP2 Energies <==================
	-----------------------------------------------------------
	 SCS Same-Spin Scale       =       0.3333333333333333 [-]
	 SCS Opposite-Spin Scale   =       1.2000000000000000 [-]
	 SCS Same-Spin Energy      =      -0.1005538437489359 [Eh]
	 SCS Opposite-Spin Energy  =      -1.1764478551365556 [Eh]
	 SCS Correlation Energy    =      -1.2770016988854915 [Eh]
	 SCS Total Energy          =    -307.2751139290550668 [Eh]
	-----------------------------------------------------------

  Dipole Moment: [D]
     X:     0.6716      Y:    -1.3847      Z:     0.5298     Total:     1.6276

*** Psi4 exiting successfully. Buy a developer a beer!
