                               Psi4 1.3.2 release

  ==> Input File <==

--------------------------------------------------------------------------
#psi4
#
memory 32 gb

molecule  {
-1 1
  O        0.5632720    -1.1719080    -0.3765930
  O       -2.2370500    -0.5589400     1.0879600
  O       -2.5032960     0.1554020    -1.0563790
  C        1.9927080     0.6815170     0.1510220
  C        0.6200537     0.0556387    -0.0267343
  C       -0.5777410     0.8814240     0.1686100
  C        3.2057538    -0.2225552    -0.0228644
  C       -1.9010600     0.0931950     0.0560670
  H        2.0429660     1.5133360    -0.5640360
  H        2.0060190     1.1470430     1.1438410
  H       -0.4967450     1.3515110     1.1569670
  H       -0.5352790     1.6874700    -0.5756840
  H        3.1399490    -1.0742180     0.6982180
  H        3.1613950    -0.7098910    -1.0291440
  H        4.1160350     0.2752530     0.0934100
units angstrom
no_reorient  #important for SAPT in psi4, default
symmetry c1  #important for SAPT in psi4, default
}

set PROPERTIES_ORIGIN ["COM"]
properties('MP2/aug-cc-pvtz', properties = ['dipole'])
--------------------------------------------------------------------------

    Molecular point group: c1
  Charge       = -1
  Multiplicity = 1
  Basis Set: AUG-CC-PVTZ
    Blend: AUG-CC-PVTZ
  Basis Set: (AUG-CC-PVTZ AUX)
    Blend: AUG-CC-PVTZ-JKFIT

    Orbital Energies [Eh]
    ---------------------

    Doubly Occupied:

       1A    -20.405733     2A    -20.298421     3A    -20.296500
       4A    -11.204874     5A    -11.149277     6A    -11.132263
       7A    -11.121297     8A    -11.085629     9A     -1.210155
      10A     -1.165380    11A     -1.065896    12A     -0.950778
      13A     -0.881460    14A     -0.770394    15A     -0.612821
      16A     -0.541227    17A     -0.528817    18A     -0.522882
      19A     -0.463807    20A     -0.456830    21A     -0.451724
      22A     -0.415436    23A     -0.397899    24A     -0.395723
      25A     -0.376194    26A     -0.338249    27A     -0.328021
      28A     -0.285459    29A     -0.212300    30A     -0.210183
      31A     -0.193942

  @DF-RHF Final Energy:  -418.18267590149190

   => Energetics <=

    Nuclear Repulsion Energy =            356.1978784264765636
    One-Electron Energy =               -1289.8219661434095542
    Two-Electron Energy =                 515.4414118154411426
    Total Energy =                       -418.1826759014918480
  Basis Set: (AUG-CC-PVTZ AUX)
    Blend: AUG-CC-PVTZ-RI
    Molecular point group: c1

    Geometry (in Angstrom), charge = -1, multiplicity = 1:

       Center              X                  Y                   Z               Mass
    ------------   -----------------  -----------------  -----------------  -----------------
         O            0.677979571373    -1.144915576409    -0.370730363339    15.994914619570
         O           -2.122342428627    -0.531947576409     1.093822636661    15.994914619570
         O           -2.388588428627     0.182394423591    -1.050516363339    15.994914619570
         C            2.107415571373     0.708509423591     0.156884636661    12.000000000000
         C            0.734761271373     0.082631123591    -0.020871663339    12.000000000000
         C           -0.463033428627     0.908416423591     0.174472636661    12.000000000000
         C            3.320461371373    -0.195562776409    -0.017001763339    12.000000000000
         C           -1.786352428627     0.120187423591     0.061929636661    12.000000000000
         H            2.157673571373     1.540328423591    -0.558173363339     1.007825032230
         H            2.120726571373     1.174035423591     1.149703636661     1.007825032230
         H           -0.382037428627     1.378503423591     1.162829636661     1.007825032230
         H           -0.420571428627     1.714462423591    -0.569821363339     1.007825032230
         H            3.254656571373    -1.047225576409     0.704080636661     1.007825032230
         H            3.276102571373    -0.682898576409    -1.023281363339     1.007825032230
         H            4.230742571373     0.302245423591     0.099272636661     1.007825032230

  Basis Set: AUG-CC-PVTZ
    Blend: AUG-CC-PVTZ
  Basis Set: (AUG-CC-PVTZ AUX)
    Blend: AUG-CC-PVTZ-JKFIT
	 Reference Energy          =    -418.1826759014919048 [Eh]
	 Singles Energy            =      -0.0000000000000000 [Eh]
	 Same-Spin Energy          =      -0.4178739920924546 [Eh]
	 Opposite-Spin Energy      =      -1.2958772920700361 [Eh]
	 Correlation Energy        =      -1.7137512841624907 [Eh]
	 Total Energy              =    -419.8964271856543746 [Eh]

	 ================> DF-SCS-MP2 Energies <==================
	-----------------------------------------------------------
	 SCS Same-Spin Scale       =       0.3333333333333333 [-]
	 SCS Opposite-Spin Scale   =       1.2000000000000000 [-]
	 SCS Same-Spin Energy      =      -0.1392913306974848 [Eh]
	 SCS Opposite-Spin Energy  =      -1.5550527504840432 [Eh]
	 SCS Correlation Energy    =      -1.6943440811815280 [Eh]
	 SCS Total Energy          =    -419.8770199826734597 [Eh]
	-----------------------------------------------------------

  Dipole Moment: [D]
     X:     9.8451      Y:     3.6895      Z:     0.6930     Total:    10.5366

*** Psi4 exiting successfully. Buy a developer a beer!
