                               Psi4 1.3.2 release

  ==> Input File <==

--------------------------------------------------------------------------
#psi4
#
memory 32 gb

molecule  {
-1 1
  O        0.5632720    -1.1719080    -0.3765930
  O       -2.2370500    -0.5589400     1.0879600
  O       -2.5032960     0.1554020    -1.0563790
  C        1.9927080     0.6815170     0.1510220
  C        0.6435570     0.0091630    -0.0366810
  C       -0.5777410     0.8814240     0.1686100
  C        3.1729130    -0.2631210    -0.0329300
  C       -2.0724310    -0.0088813     0.0414926
  H        2.0429660     1.5133360    -0.5640360
  H        2.0060190     1.1470430     1.1438410
  H       -0.4967450     1.3515110     1.1569670
  H       -0.5352790     1.6874700    -0.5756840
  H        3.1399490    -1.0742180     0.6982180
  H        3.1613950    -0.7098910    -1.0291440
  H        4.1160350     0.2752530     0.0934100
units angstrom
no_reorient  #important for SAPT in psi4, default
symmetry c1  #important for SAPT in psi4, default
}

set PROPERTIES_ORIGIN ["COM"]
properties('MP2/aug-cc-pvtz', properties = ['dipole'])
--------------------------------------------------------------------------

    Molecular point group: c1
  Charge       = -1
  Multiplicity = 1
  Basis Set: AUG-CC-PVTZ
    Blend: AUG-CC-PVTZ
  Basis Set: (AUG-CC-PVTZ AUX)
    Blend: AUG-CC-PVTZ-JKFIT

    Orbital Energies [Eh]
    ---------------------

    Doubly Occupied:

       1A    -20.394425     2A    -20.315996     3A    -20.314101
       4A    -11.181753     5A    -11.157619     6A    -11.115984
       7A    -11.110799     8A    -11.046319     9A     -1.226201
      10A     -1.216642    11A     -1.138861    12A     -0.935976
      13A     -0.833831    14A     -0.742516    15A     -0.588521
      16A     -0.522457    17A     -0.513076    18A     -0.511289
      19A     -0.469566    20A     -0.442963    21A     -0.438134
      22A     -0.421691    23A     -0.411836    24A     -0.398748
      25A     -0.381726    26A     -0.377310    27A     -0.332540
      28A     -0.263180    29A     -0.247086    30A     -0.229592
      31A     -0.162883

  @DF-RHF Final Energy:  -418.17923935106887

   => Energetics <=

    Nuclear Repulsion Energy =            356.3224139101832293
    One-Electron Energy =               -1290.1160627388212561
    Two-Electron Energy =                 515.6144094775690974
    Total Energy =                       -418.1792393510688726
  Basis Set: (AUG-CC-PVTZ AUX)
    Blend: AUG-CC-PVTZ-RI
    Molecular point group: c1

    Geometry (in Angstrom), charge = -1, multiplicity = 1:

       Center              X                  Y                   Z               Mass
    ------------   -----------------  -----------------  -----------------  -----------------
         O            0.696829632789    -1.125188324260    -0.367122556184    15.994914619570
         O           -2.103492367211    -0.512220324260     1.097430443816    15.994914619570
         O           -2.369738367211     0.202121675740    -1.046908556184    15.994914619570
         C            2.126265632789     0.728236675740     0.160492443816    12.000000000000
         C            0.777114632789     0.055882675740    -0.027210556184    12.000000000000
         C           -0.444183367211     0.928143675740     0.178080443816    12.000000000000
         C            3.306470632789    -0.216401324260    -0.023459556184    12.000000000000
         C           -1.938873367211     0.037838375740     0.050963043816    12.000000000000
         H            2.176523632789     1.560055675740    -0.554565556184     1.007825032230
         H            2.139576632789     1.193762675740     1.153311443816     1.007825032230
         H           -0.363187367211     1.398230675740     1.166437443816     1.007825032230
         H           -0.401721367211     1.734189675740    -0.566213556184     1.007825032230
         H            3.273506632789    -1.027498324260     0.707688443816     1.007825032230
         H            3.294952632789    -0.663171324260    -1.019673556184     1.007825032230
         H            4.249592632789     0.321972675740     0.102880443816     1.007825032230

  Basis Set: AUG-CC-PVTZ
    Blend: AUG-CC-PVTZ
  Basis Set: (AUG-CC-PVTZ AUX)
    Blend: AUG-CC-PVTZ-JKFIT
	 Reference Energy          =    -418.1792393510688726 [Eh]
	 Singles Energy            =      -0.0000000000000000 [Eh]
	 Same-Spin Energy          =      -0.4150277305911885 [Eh]
	 Opposite-Spin Energy      =      -1.2880512527094810 [Eh]
	 Correlation Energy        =      -1.7030789833006694 [Eh]
	 Total Energy              =    -419.8823183343695291 [Eh]

	 ================> DF-SCS-MP2 Energies <==================
	-----------------------------------------------------------
	 SCS Same-Spin Scale       =       0.3333333333333333 [-]
	 SCS Opposite-Spin Scale   =       1.2000000000000000 [-]
	 SCS Same-Spin Energy      =      -0.1383425768637295 [Eh]
	 SCS Opposite-Spin Energy  =      -1.5456615032513772 [Eh]
	 SCS Correlation Energy    =      -1.6840040801151066 [Eh]
	 SCS Total Energy          =    -419.8632434311840029 [Eh]
	-----------------------------------------------------------

  Dipole Moment: [D]
     X:     8.1579      Y:     2.7128      Z:     0.5286     Total:     8.6134

*** Psi4 exiting successfully. Buy a developer a beer!
