                               Psi4 1.3.2 release

  ==> Input File <==

--------------------------------------------------------------------------
#psi4
#
memory 32 gb

molecule  {
-1 1
  O        0.5632720    -1.1719080    -0.3765930
  O       -2.2280881    -0.5551650     1.0932046
  O       -2.4954547     0.1621958    -1.0601892
  C        1.9927080     0.6815170     0.1510220
  C        0.6435570     0.0091630    -0.0366810
  C       -0.5777410     0.8814240     0.1686100
  C        3.1729130    -0.2631210    -0.0329300
  C       -1.9010600     0.0931950     0.0560670
  H        2.0429660     1.5133360    -0.5640360
  H        2.0060190     1.1470430     1.1438410
  H       -0.4967450     1.3515110     1.1569670
  H       -0.5352790     1.6874700    -0.5756840
  H        3.1399490    -1.0742180     0.6982180
  H        3.1613950    -0.7098910    -1.0291440
  H        4.1160350     0.2752530     0.0934100
units angstrom
no_reorient  #important for SAPT in psi4, default
symmetry c1  #important for SAPT in psi4, default
}

set PROPERTIES_ORIGIN ["COM"]
properties('MP2/aug-cc-pvtz', properties = ['dipole'])
--------------------------------------------------------------------------

    Molecular point group: c1
  Charge       = -1
  Multiplicity = 1
  Basis Set: AUG-CC-PVTZ
    Blend: AUG-CC-PVTZ
  Basis Set: (AUG-CC-PVTZ AUX)
    Blend: AUG-CC-PVTZ-JKFIT

    Orbital Energies [Eh]
    ---------------------

    Doubly Occupied:

       1A    -20.409673     2A    -20.297468     3A    -20.295671
       4A    -11.199478     5A    -11.146703     6A    -11.129812
       7A    -11.120548     8A    -11.081596     9A     -1.238997
      10A     -1.164095    11A     -1.065893    12A     -0.949390
      13A     -0.867220    14A     -0.766380    15A     -0.611195
      16A     -0.538062    17A     -0.529488    18A     -0.525881
      19A     -0.470959    20A     -0.454180    21A     -0.439345
      22A     -0.410551    23A     -0.407419    24A     -0.403431
      25A     -0.377673    26A     -0.346546    27A     -0.336258
      28A     -0.279755    29A     -0.212016    30A     -0.206247
      31A     -0.193766

  @DF-RHF Final Energy:  -418.19573216483332

   => Energetics <=

    Nuclear Repulsion Energy =            356.8211951110923792
    One-Electron Energy =               -1291.0824639990462401
    Two-Electron Energy =                 516.0655367231205446
    Total Energy =                       -418.1957321648333163
  Basis Set: (AUG-CC-PVTZ AUX)
    Blend: AUG-CC-PVTZ-RI
    Molecular point group: c1

    Geometry (in Angstrom), charge = -1, multiplicity = 1:

       Center              X                  Y                   Z               Mass
    ------------   -----------------  -----------------  -----------------  -----------------
         O            0.676617293866    -1.137305574617    -0.368842277434    15.994914619570
         O           -2.114742806134    -0.520562574617     1.100955322566    15.994914619570
         O           -2.382109406134     0.196798225383    -1.052438477434    15.994914619570
         C            2.106053293866     0.716119425383     0.158772722566    12.000000000000
         C            0.756902293866     0.043765425383    -0.028930277434    12.000000000000
         C           -0.464395706134     0.916026425383     0.176360722566    12.000000000000
         C            3.286258293866    -0.228518574617    -0.025179277434    12.000000000000
         C           -1.787714706134     0.127797425383     0.063817722566    12.000000000000
         H            2.156311293866     1.547938425383    -0.556285277434     1.007825032230
         H            2.119364293866     1.181645425383     1.151591722566     1.007825032230
         H           -0.383399706134     1.386113425383     1.164717722566     1.007825032230
         H           -0.421933706134     1.722072425383    -0.567933277434     1.007825032230
         H            3.253294293866    -1.039615574617     0.705968722566     1.007825032230
         H            3.274740293866    -0.675288574617    -1.021393277434     1.007825032230
         H            4.229380293866     0.309855425383     0.101160722566     1.007825032230

  Basis Set: AUG-CC-PVTZ
    Blend: AUG-CC-PVTZ
  Basis Set: (AUG-CC-PVTZ AUX)
    Blend: AUG-CC-PVTZ-JKFIT
	 Reference Energy          =    -418.1957321648333163 [Eh]
	 Singles Energy            =      -0.0000000000000000 [Eh]
	 Same-Spin Energy          =      -0.4162171914148023 [Eh]
	 Opposite-Spin Energy      =      -1.2925642406091167 [Eh]
	 Correlation Energy        =      -1.7087814320239190 [Eh]
	 Total Energy              =    -419.9045135968572140 [Eh]

	 ================> DF-SCS-MP2 Energies <==================
	-----------------------------------------------------------
	 SCS Same-Spin Scale       =       0.3333333333333333 [-]
	 SCS Opposite-Spin Scale   =       1.2000000000000000 [-]
	 SCS Same-Spin Energy      =      -0.1387390638049341 [Eh]
	 SCS Opposite-Spin Energy  =      -1.5510770887309400 [Eh]
	 SCS Correlation Energy    =      -1.6898161525358741 [Eh]
	 SCS Total Energy          =    -419.8855483173691709 [Eh]
	-----------------------------------------------------------

  Dipole Moment: [D]
     X:     9.9324      Y:     3.4328      Z:     0.6303     Total:    10.5278

*** Psi4 exiting successfully. Buy a developer a beer!
