                               Psi4 1.3.2 release

  ==> Input File <==

--------------------------------------------------------------------------
#psi4
#
memory 32 gb

molecule  {
-1 1
  O        0.5632720    -1.1719080    -0.3765930
  O       -2.2370500    -0.5589400     1.0879600
  O       -2.5032960     0.1554020    -1.0563790
  C        1.9927080     0.6815170     0.1510220
  C        0.6500756     0.1050579    -0.0090825
  C       -0.5777410     0.8814240     0.1686100
  C        3.1729130    -0.2631210    -0.0329300
  C       -1.9010600     0.0931950     0.0560670
  H        2.0429660     1.5133360    -0.5640360
  H        2.0060190     1.1470430     1.1438410
  H       -0.4967450     1.3515110     1.1569670
  H       -0.5352790     1.6874700    -0.5756840
  H        3.1399490    -1.0742180     0.6982180
  H        3.1613950    -0.7098910    -1.0291440
  H        4.1160350     0.2752530     0.0934100
units angstrom
no_reorient  #important for SAPT in psi4, default
symmetry c1  #important for SAPT in psi4, default
}

set PROPERTIES_ORIGIN ["COM"]
properties('MP2/aug-cc-pvtz', properties = ['dipole'])
--------------------------------------------------------------------------

    Molecular point group: c1
  Charge       = -1
  Multiplicity = 1
  Basis Set: AUG-CC-PVTZ
    Blend: AUG-CC-PVTZ
  Basis Set: (AUG-CC-PVTZ AUX)
    Blend: AUG-CC-PVTZ-JKFIT

    Orbital Energies [Eh]
    ---------------------

    Doubly Occupied:

       1A    -20.400379     2A    -20.298257     3A    -20.296062
       4A    -11.207692     5A    -11.150024     6A    -11.135481
       7A    -11.123542     8A    -11.087573     9A     -1.181599
      10A     -1.162795    11A     -1.065514    12A     -0.959876
      13A     -0.883856    14A     -0.779224    15A     -0.615186
      16A     -0.542412    17A     -0.531859    18A     -0.521709
      19A     -0.461588    20A     -0.458774    21A     -0.436774
      22A     -0.417751    23A     -0.406146    24A     -0.392245
      25A     -0.378416    26A     -0.335714    27A     -0.309398
      28A     -0.286521    29A     -0.212404    30A     -0.210855
      31A     -0.193251

  @DF-RHF Final Energy:  -418.16883570042836

   => Energetics <=

    Nuclear Repulsion Energy =            356.1036870556518465
    One-Electron Energy =               -1289.6592914093673699
    Two-Electron Energy =                 515.3867686532872767
    Total Energy =                       -418.1688357004283034
  Basis Set: (AUG-CC-PVTZ AUX)
    Blend: AUG-CC-PVTZ-RI
    Molecular point group: c1

    Geometry (in Angstrom), charge = -1, multiplicity = 1:

       Center              X                  Y                   Z               Mass
    ------------   -----------------  -----------------  -----------------  -----------------
         O            0.678273616414    -1.145839092091    -0.371521694881    15.994914619570
         O           -2.122048383586    -0.532871092091     1.093031305119    15.994914619570
         O           -2.388294383586     0.181470907909    -1.051307694881    15.994914619570
         C            2.107709616414     0.707585907909     0.156093305119    12.000000000000
         C            0.765077216414     0.131126807909    -0.004011194881    12.000000000000
         C           -0.462739383586     0.907492907909     0.173681305119    12.000000000000
         C            3.287914616414    -0.237052092091    -0.027858694881    12.000000000000
         C           -1.786058383586     0.119263907909     0.061138305119    12.000000000000
         H            2.157967616414     1.539404907909    -0.558964694881     1.007825032230
         H            2.121020616414     1.173111907909     1.148912305119     1.007825032230
         H           -0.381743383586     1.377579907909     1.162038305119     1.007825032230
         H           -0.420277383586     1.713538907909    -0.570612694881     1.007825032230
         H            3.254950616414    -1.048149092091     0.703289305119     1.007825032230
         H            3.276396616414    -0.683822092091    -1.024072694881     1.007825032230
         H            4.231036616414     0.301321907909     0.098481305119     1.007825032230

  Basis Set: AUG-CC-PVTZ
    Blend: AUG-CC-PVTZ
  Basis Set: (AUG-CC-PVTZ AUX)
    Blend: AUG-CC-PVTZ-JKFIT
	 Reference Energy          =    -418.1688357004283603 [Eh]
	 Singles Energy            =      -0.0000000000000000 [Eh]
	 Same-Spin Energy          =      -0.4197347421727835 [Eh]
	 Opposite-Spin Energy      =      -1.2994949781792449 [Eh]
	 Correlation Energy        =      -1.7192297203520284 [Eh]
	 Total Energy              =    -419.8880654207803786 [Eh]

	 ================> DF-SCS-MP2 Energies <==================
	-----------------------------------------------------------
	 SCS Same-Spin Scale       =       0.3333333333333333 [-]
	 SCS Opposite-Spin Scale   =       1.2000000000000000 [-]
	 SCS Same-Spin Energy      =      -0.1399115807242612 [Eh]
	 SCS Opposite-Spin Energy  =      -1.5593939738150937 [Eh]
	 SCS Correlation Energy    =      -1.6993055545393549 [Eh]
	 SCS Total Energy          =    -419.8681412549677248 [Eh]
	-----------------------------------------------------------

  Dipole Moment: [D]
     X:     9.9671      Y:     3.8130      Z:     0.7314     Total:    10.6966

*** Psi4 exiting successfully. Buy a developer a beer!
