                               Psi4 1.4a3.dev225

  ==> Input File <==

--------------------------------------------------------------------------
#psi4
#
memory 32 gb

molecule  {
-1 1
  O        1.0745520     1.3418620    -0.8745480
  O       -1.1230780    -1.1034960    -0.8170800
  O       -2.9206860    -0.1812610     0.2330210
  C        1.4738630    -0.3704550     0.7611780
  C        0.6398582     0.6569067     0.0697788
  C       -0.7798250     0.8397660     0.5534010
  C        2.7202340    -0.7612590    -0.0182770
  C       -1.7002430    -0.2566580    -0.0711330
  H        1.7414500     0.0432240     1.7443780
  H        0.8355880    -1.2371210     0.9565080
  H       -0.8294850     0.7587360     1.6458800
  H       -1.1523820     1.8284630     0.2671350
  H        2.4446610    -1.1885100    -0.9860420
  H        3.3521650     0.1095510    -0.2043800
  H        3.3054110    -1.5035610     0.5312540
units angstrom
no_reorient  #important for SAPT in psi4, default
symmetry c1  #important for SAPT in psi4, default
}

set PROPERTIES_ORIGIN ["COM"]
properties('MP2/aug-cc-pvtz', properties = ['dipole'])
--------------------------------------------------------------------------

    Molecular point group: c1
  Charge       = -1
  Multiplicity = 1
  Basis Set: AUG-CC-PVTZ
    Blend: AUG-CC-PVTZ
  Basis Set: (AUG-CC-PVTZ AUX)
    Blend: AUG-CC-PVTZ-JKFIT

    Orbital Energies [Eh]
    ---------------------

    Doubly Occupied:

       1A    -20.399229     2A    -20.313553     3A    -20.311051
       4A    -11.190606     5A    -11.163915     6A    -11.108861
       7A    -11.103211     8A    -11.080970     9A     -1.223582
      10A     -1.182656    11A     -1.084039    12A     -0.936339
      13A     -0.861143    14A     -0.755907    15A     -0.601385
      16A     -0.546481    17A     -0.513685    18A     -0.504752
      19A     -0.480064    20A     -0.448583    21A     -0.439812
      22A     -0.408617    23A     -0.398970    24A     -0.391041
      25A     -0.378975    26A     -0.346195    27A     -0.335959
      28A     -0.277787    29A     -0.229128    30A     -0.216185
      31A     -0.211394

  @DF-RHF Final Energy:  -418.20765630080945

   => Energetics <=

    Nuclear Repulsion Energy =            362.5348087679782907
    One-Electron Energy =               -1302.5967766344517713
    Two-Electron Energy =                 521.8543115656639202
    Total Energy =                       -418.2076563008095036
  Basis Set: (AUG-CC-PVTZ AUX)
    Blend: AUG-CC-PVTZ-RI
    Molecular point group: c1

    Geometry (in Angstrom), charge = -1, multiplicity = 1:

       Center              X                  Y                   Z               Mass
    ------------   -----------------  -----------------  -----------------  -----------------
         O            1.156892013003     1.333043514507    -0.841470306825    15.994914619570
         O           -1.040737986997    -1.112314485493    -0.784002306825    15.994914619570
         O           -2.838345986997    -0.190079485493     0.266098693175    15.994914619570
         C            1.556203013003    -0.379273485493     0.794255693175    12.000000000000
         C            0.722198213003     0.648088214507     0.102856493175    12.000000000000
         C           -0.697484986997     0.830947514507     0.586478693175    12.000000000000
         C            2.802574013003    -0.770077485493     0.014800693175    12.000000000000
         C           -1.617902986997    -0.265476485493    -0.038055306825    12.000000000000
         H            1.823790013003     0.034405514507     1.777455693175     1.007825032230
         H            0.917928013003    -1.245939485493     0.989585693175     1.007825032230
         H           -0.747144986997     0.749917514507     1.678957693175     1.007825032230
         H           -1.070041986997     1.819644514507     0.300212693175     1.007825032230
         H            2.527001013003    -1.197328485493    -0.952964306825     1.007825032230
         H            3.434505013003     0.100732514507    -0.171302306825     1.007825032230
         H            3.387751013003    -1.512379485493     0.564331693175     1.007825032230

  Basis Set: AUG-CC-PVTZ
    Blend: AUG-CC-PVTZ
  Basis Set: (AUG-CC-PVTZ AUX)
    Blend: AUG-CC-PVTZ-JKFIT
	 Reference Energy          =    -418.2076563008094467 [Eh]
	 Singles Energy            =      -0.0000000000000000 [Eh]
	 Same-Spin Energy          =      -0.4170013480167889 [Eh]
	 Opposite-Spin Energy      =      -1.2928115412102059 [Eh]
	 Correlation Energy        =      -1.7098128892269948 [Eh]
	 Total Energy              =    -419.9174691900364564 [Eh]

	 ================> DF-SCS-MP2 Energies <==================
	-----------------------------------------------------------
	 SCS Same-Spin Scale       =       0.3333333333333333 [-]
	 SCS Opposite-Spin Scale   =       1.2000000000000000 [-]
	 SCS Same-Spin Energy      =      -0.1390004493389296 [Eh]
	 SCS Opposite-Spin Energy  =      -1.5513738494522471 [Eh]
	 SCS Correlation Energy    =      -1.6903742987911767 [Eh]
	 SCS Total Energy          =    -419.8980305996006450 [Eh]
	-----------------------------------------------------------

  Dipole Moment: [D]
     X:     6.8023      Y:     1.1931      Z:     3.2402     Total:     7.6285

*** Psi4 exiting successfully. Buy a developer a beer!
