                               Psi4 1.3.2 release

  ==> Input File <==

--------------------------------------------------------------------------
#psi4
#
memory 32 gb

molecule  {
-1 1
  O        0.5632720    -1.1719080    -0.3765930
  O       -2.2370500    -0.5589400     1.0879600
  O       -2.4872817     0.1685412    -1.0640942
  C        1.9927080     0.6815170     0.1510220
  C        0.6435570     0.0091630    -0.0366810
  C       -0.5807445     0.8896455     0.1431164
  C        3.1729130    -0.2631210    -0.0329300
  C       -1.9010600     0.0931950     0.0560670
  H        2.0429660     1.5133360    -0.5640360
  H        2.0060190     1.1470430     1.1438410
  H       -0.4967450     1.3515110     1.1569670
  H       -0.5352790     1.6874700    -0.5756840
  H        3.1399490    -1.0742180     0.6982180
  H        3.1613950    -0.7098910    -1.0291440
  H        4.1160350     0.2752530     0.0934100
units angstrom
no_reorient  #important for SAPT in psi4, default
symmetry c1  #important for SAPT in psi4, default
}

set PROPERTIES_ORIGIN ["COM"]
properties('MP2/aug-cc-pvtz', properties = ['dipole'])
--------------------------------------------------------------------------

    Molecular point group: c1
  Charge       = -1
  Multiplicity = 1
  Basis Set: AUG-CC-PVTZ
    Blend: AUG-CC-PVTZ
  Basis Set: (AUG-CC-PVTZ AUX)
    Blend: AUG-CC-PVTZ-JKFIT

    Orbital Energies [Eh]
    ---------------------

    Doubly Occupied:

       1A    -20.409840     2A    -20.296563     3A    -20.296502
       4A    -11.199657     5A    -11.146703     6A    -11.129888
       7A    -11.120580     8A    -11.081525     9A     -1.239034
      10A     -1.164076    11A     -1.065873    12A     -0.949322
      13A     -0.866810    14A     -0.766501    15A     -0.610982
      16A     -0.538382    17A     -0.529521    18A     -0.525608
      19A     -0.471809    20A     -0.453962    21A     -0.439107
      22A     -0.410619    23A     -0.407311    24A     -0.403463
      25A     -0.377673    26A     -0.347788    27A     -0.335357
      28A     -0.279357    29A     -0.212182    30A     -0.205987
      31A     -0.193767

  @DF-RHF Final Energy:  -418.19488523839362

   => Energetics <=

    Nuclear Repulsion Energy =            356.7584919763206130
    One-Electron Energy =               -1290.9552591365859371
    Two-Electron Energy =                 516.0018819218716999
    Total Energy =                       -418.1948852383936810
  Basis Set: (AUG-CC-PVTZ AUX)
    Blend: AUG-CC-PVTZ-RI
    Molecular point group: c1

    Geometry (in Angstrom), charge = -1, multiplicity = 1:

       Center              X                  Y                   Z               Mass
    ------------   -----------------  -----------------  -----------------  -----------------
         O            0.677040282318    -1.138520559951    -0.364910843485    15.994914619570
         O           -2.123281717682    -0.525552559951     1.099642156515    15.994914619570
         O           -2.373513417682     0.201928640049    -1.052412043485    15.994914619570
         C            2.106476282318     0.714904440049     0.162704156515    12.000000000000
         C            0.757325282318     0.042550440049    -0.024998843485    12.000000000000
         C           -0.466976217682     0.923032940049     0.154798556515    12.000000000000
         C            3.286681282318    -0.229733559951    -0.021247843485    12.000000000000
         C           -1.787291717682     0.126582440049     0.067749156515    12.000000000000
         H            2.156734282318     1.546723440049    -0.552353843485     1.007825032230
         H            2.119787282318     1.180430440049     1.155523156515     1.007825032230
         H           -0.382976717682     1.384898440049     1.168649156515     1.007825032230
         H           -0.421510717682     1.720857440049    -0.564001843485     1.007825032230
         H            3.253717282318    -1.040830559951     0.709900156515     1.007825032230
         H            3.275163282318    -0.676503559951    -1.017461843485     1.007825032230
         H            4.229803282318     0.308640440049     0.105092156515     1.007825032230

  Basis Set: AUG-CC-PVTZ
    Blend: AUG-CC-PVTZ
  Basis Set: (AUG-CC-PVTZ AUX)
    Blend: AUG-CC-PVTZ-JKFIT
	 Reference Energy          =    -418.1948852383936241 [Eh]
	 Singles Energy            =      -0.0000000000000000 [Eh]
	 Same-Spin Energy          =      -0.4161980968730190 [Eh]
	 Opposite-Spin Energy      =      -1.2925765080421856 [Eh]
	 Correlation Energy        =      -1.7087746049152046 [Eh]
	 Total Energy              =    -419.9036598433088443 [Eh]

	 ================> DF-SCS-MP2 Energies <==================
	-----------------------------------------------------------
	 SCS Same-Spin Scale       =       0.3333333333333333 [-]
	 SCS Opposite-Spin Scale   =       1.2000000000000000 [-]
	 SCS Same-Spin Energy      =      -0.1387326989576730 [Eh]
	 SCS Opposite-Spin Energy  =      -1.5510918096506228 [Eh]
	 SCS Correlation Energy    =      -1.6898245086082957 [Eh]
	 SCS Total Energy          =    -419.8847097470019207 [Eh]
	-----------------------------------------------------------

  Dipole Moment: [D]
     X:     9.9420      Y:     3.4307      Z:     0.6121     Total:    10.5351

*** Psi4 exiting successfully. Buy a developer a beer!
