                               Psi4 1.3.2 release

  ==> Input File <==

--------------------------------------------------------------------------
#psi4
#
memory 32 gb

molecule  {
-1 1
  O        0.5632720    -1.1719080    -0.3765930
  O       -2.2370500    -0.5589400     1.0879600
  O       -2.5032960     0.1554020    -1.0563790
  C        1.9987461     0.6700591     0.1481966
  C        0.6435570     0.0091630    -0.0366810
  C       -0.5855126     0.8710827     0.1658899
  C        3.1729130    -0.2631210    -0.0329300
  C       -1.9010600     0.0931950     0.0560670
  H        2.0429660     1.5133360    -0.5640360
  H        2.0060190     1.1470430     1.1438410
  H       -0.4967450     1.3515110     1.1569670
  H       -0.5352790     1.6874700    -0.5756840
  H        3.1399490    -1.0742180     0.6982180
  H        3.1613950    -0.7098910    -1.0291440
  H        4.1160350     0.2752530     0.0934100
units angstrom
no_reorient  #important for SAPT in psi4, default
symmetry c1  #important for SAPT in psi4, default
}

set PROPERTIES_ORIGIN ["COM"]
properties('MP2/aug-cc-pvtz', properties = ['dipole'])
--------------------------------------------------------------------------

    Molecular point group: c1
  Charge       = -1
  Multiplicity = 1
  Basis Set: AUG-CC-PVTZ
    Blend: AUG-CC-PVTZ
  Basis Set: (AUG-CC-PVTZ AUX)
    Blend: AUG-CC-PVTZ-JKFIT

    Orbital Energies [Eh]
    ---------------------

    Doubly Occupied:

       1A    -20.409449     2A    -20.296346     3A    -20.294516
       4A    -11.200001     5A    -11.145507     6A    -11.131355
       7A    -11.120768     8A    -11.084232     9A     -1.239427
      10A     -1.164259    11A     -1.064072    12A     -0.951194
      13A     -0.868697    14A     -0.767093    15A     -0.611747
      16A     -0.540154    17A     -0.530396    18A     -0.525467
      19A     -0.470902    20A     -0.453483    21A     -0.441050
      22A     -0.414014    23A     -0.407303    24A     -0.402098
      25A     -0.375434    26A     -0.345512    27A     -0.335513
      28A     -0.279957    29A     -0.210150    30A     -0.208517
      31A     -0.192377

  @DF-RHF Final Energy:  -418.19500348875323

   => Energetics <=

    Nuclear Repulsion Energy =            356.9305210055819089
    One-Electron Energy =               -1291.2890712727266873
    Two-Electron Energy =                 516.1635467783916056
    Total Energy =                       -418.1950034887531729
  Basis Set: (AUG-CC-PVTZ AUX)
    Blend: AUG-CC-PVTZ-RI
    Molecular point group: c1

    Geometry (in Angstrom), charge = -1, multiplicity = 1:

       Center              X                  Y                   Z               Mass
    ------------   -----------------  -----------------  -----------------  -----------------
         O            0.679134409303    -1.133562187500    -0.368064378620    15.994914619570
         O           -2.121187590697    -0.520594187500     1.096488621380    15.994914619570
         O           -2.387433590697     0.193747812500    -1.047850378620    15.994914619570
         C            2.114608509303     0.708404912500     0.156725221380    12.000000000000
         C            0.759419409303     0.047508812500    -0.028152378620    12.000000000000
         C           -0.469650190697     0.909428512500     0.174418521380    12.000000000000
         C            3.288775409303    -0.224775187500    -0.024401378620    12.000000000000
         C           -1.785197590697     0.131540812500     0.064595621380    12.000000000000
         H            2.158828409303     1.551681812500    -0.555507378620     1.007825032230
         H            2.121881409303     1.185388812500     1.152369621380     1.007825032230
         H           -0.380882590697     1.389856812500     1.165495621380     1.007825032230
         H           -0.419416590697     1.725815812500    -0.567155378620     1.007825032230
         H            3.255811409303    -1.035872187500     0.706746621380     1.007825032230
         H            3.277257409303    -0.671545187500    -1.020615378620     1.007825032230
         H            4.231897409303     0.313598812500     0.101938621380     1.007825032230

  Basis Set: AUG-CC-PVTZ
    Blend: AUG-CC-PVTZ
  Basis Set: (AUG-CC-PVTZ AUX)
    Blend: AUG-CC-PVTZ-JKFIT
	 Reference Energy          =    -418.1950034887532297 [Eh]
	 Singles Energy            =      -0.0000000000000000 [Eh]
	 Same-Spin Energy          =      -0.4163026351067763 [Eh]
	 Opposite-Spin Energy      =      -1.2926646819177210 [Eh]
	 Correlation Energy        =      -1.7089673170244972 [Eh]
	 Total Energy              =    -419.9039708057777034 [Eh]

	 ================> DF-SCS-MP2 Energies <==================
	-----------------------------------------------------------
	 SCS Same-Spin Scale       =       0.3333333333333333 [-]
	 SCS Opposite-Spin Scale   =       1.2000000000000000 [-]
	 SCS Same-Spin Energy      =      -0.1387675450355921 [Eh]
	 SCS Opposite-Spin Energy  =      -1.5511976183012652 [Eh]
	 SCS Correlation Energy    =      -1.6899651633368573 [Eh]
	 SCS Total Energy          =    -419.8849686520900946 [Eh]
	-----------------------------------------------------------

  Dipole Moment: [D]
     X:    10.0155      Y:     3.4515      Z:     0.6301     Total:    10.6123

*** Psi4 exiting successfully. Buy a developer a beer!
