                               Psi4 1.3.2 release

  ==> Input File <==

--------------------------------------------------------------------------
#psi4
#
memory 32 gb

molecule  {
-1 1
  O        0.5632720    -1.1719080    -0.3765930
  O       -2.2370500    -0.5589400     1.0879600
  O       -2.5032960     0.1554020    -1.0563790
  C        1.9927080     0.6815170     0.1510220
  C        0.6399313     0.0131917    -0.0245835
  C       -0.5777410     0.8814240     0.1686100
  C        3.1729130    -0.2631210    -0.0329300
  C       -1.9010600     0.0931950     0.0560670
  H        2.0429660     1.5133360    -0.5640360
  H        1.9971150     1.1438964     1.1453897
  H       -0.4967450     1.3515110     1.1569670
  H       -0.5352790     1.6874700    -0.5756840
  H        3.1399490    -1.0742180     0.6982180
  H        3.1613950    -0.7098910    -1.0291440
  H        4.1160350     0.2752530     0.0934100
units angstrom
no_reorient  #important for SAPT in psi4, default
symmetry c1  #important for SAPT in psi4, default
}

set PROPERTIES_ORIGIN ["COM"]
properties('MP2/aug-cc-pvtz', properties = ['dipole'])
--------------------------------------------------------------------------

    Molecular point group: c1
  Charge       = -1
  Multiplicity = 1
  Basis Set: AUG-CC-PVTZ
    Blend: AUG-CC-PVTZ
  Basis Set: (AUG-CC-PVTZ AUX)
    Blend: AUG-CC-PVTZ-JKFIT

    Orbital Energies [Eh]
    ---------------------

    Doubly Occupied:

       1A    -20.409411     2A    -20.296756     3A    -20.294891
       4A    -11.200525     5A    -11.146602     6A    -11.130535
       7A    -11.120969     8A    -11.083289     9A     -1.234724
      10A     -1.164117    11A     -1.064255    12A     -0.949914
      13A     -0.869937    14A     -0.767400    15A     -0.611488
      16A     -0.538489    17A     -0.528996    18A     -0.526562
      19A     -0.470132    20A     -0.455235    21A     -0.439552
      22A     -0.411108    23A     -0.406802    24A     -0.403496
      25A     -0.377312    26A     -0.344715    27A     -0.335509
      28A     -0.281092    29A     -0.210575    30A     -0.207548
      31A     -0.192707

  @DF-RHF Final Energy:  -418.19452028670560

   => Energetics <=

    Nuclear Repulsion Energy =            356.6892541485661354
    One-Electron Energy =               -1290.8182644646426525
    Two-Electron Energy =                 515.9344900293709770
    Total Energy =                       -418.1945202867055968
  Basis Set: (AUG-CC-PVTZ AUX)
    Blend: AUG-CC-PVTZ-RI
    Molecular point group: c1

    Geometry (in Angstrom), charge = -1, multiplicity = 1:

       Center              X                  Y                   Z               Mass
    ------------   -----------------  -----------------  -----------------  -----------------
         O            0.679409793574    -1.136228780513    -0.369918322554    15.994914619570
         O           -2.120912206426    -0.523260780513     1.094634677446    15.994914619570
         O           -2.387158206426     0.191081219487    -1.049704322554    15.994914619570
         C            2.108845793574     0.717196219487     0.157696677446    12.000000000000
         C            0.756069093574     0.048870919487    -0.017908822554    12.000000000000
         C           -0.461603206426     0.917103219487     0.175284677446    12.000000000000
         C            3.289050793574    -0.227441780513    -0.026255322554    12.000000000000
         C           -1.784922206426     0.128874219487     0.062741677446    12.000000000000
         H            2.159103793574     1.549015219487    -0.557361322554     1.007825032230
         H            2.113252793574     1.179575619487     1.152064377446     1.007825032230
         H           -0.380607206426     1.387190219487     1.163641677446     1.007825032230
         H           -0.419141206426     1.723149219487    -0.569009322554     1.007825032230
         H            3.256086793574    -1.038538780513     0.704892677446     1.007825032230
         H            3.277532793574    -0.674211780513    -1.022469322554     1.007825032230
         H            4.232172793574     0.310932219487     0.100084677446     1.007825032230

  Basis Set: AUG-CC-PVTZ
    Blend: AUG-CC-PVTZ
  Basis Set: (AUG-CC-PVTZ AUX)
    Blend: AUG-CC-PVTZ-JKFIT
	 Reference Energy          =    -418.1945202867055968 [Eh]
	 Singles Energy            =      -0.0000000000000000 [Eh]
	 Same-Spin Energy          =      -0.4164217935243146 [Eh]
	 Opposite-Spin Energy      =      -1.2929963770420718 [Eh]
	 Correlation Energy        =      -1.7094181705663865 [Eh]
	 Total Energy              =    -419.9039384572719769 [Eh]

	 ================> DF-SCS-MP2 Energies <==================
	-----------------------------------------------------------
	 SCS Same-Spin Scale       =       0.3333333333333333 [-]
	 SCS Opposite-Spin Scale   =       1.2000000000000000 [-]
	 SCS Same-Spin Energy      =      -0.1388072645081048 [Eh]
	 SCS Opposite-Spin Energy  =      -1.5515956524504861 [Eh]
	 SCS Correlation Energy    =      -1.6904029169585910 [Eh]
	 SCS Total Energy          =    -419.8849232036641865 [Eh]
	-----------------------------------------------------------

  Dipole Moment: [D]
     X:     9.9646      Y:     3.4843      Z:     0.6472     Total:    10.5761

*** Psi4 exiting successfully. Buy a developer a beer!
