                               Psi4 1.4a3.dev225

  ==> Input File <==

--------------------------------------------------------------------------
#psi4
#
memory 32 gb

molecule  {
-1 1
  O        1.0745520     1.3418620    -0.8745480
  O       -1.1230780    -1.1034960    -0.8170800
  O       -2.9206860    -0.1812610     0.2330210
  C        1.4738630    -0.3704550     0.7611780
  C        0.6286860     0.6706690     0.0605170
  C       -0.7798250     0.8397660     0.5534010
  C        2.7202340    -0.7612590    -0.0182770
  C       -1.7002430    -0.2566580    -0.0711330
  H        1.7414500     0.0432240     1.7443780
  H        0.8355880    -1.2371210     0.9565080
  H       -0.8272207     0.7624306     1.5960681
  H       -1.1523820     1.8284630     0.2671350
  H        2.4446610    -1.1885100    -0.9860420
  H        3.3521650     0.1095510    -0.2043800
  H        3.3054110    -1.5035610     0.5312540
units angstrom
no_reorient  #important for SAPT in psi4, default
symmetry c1  #important for SAPT in psi4, default
}

set PROPERTIES_ORIGIN ["COM"]
properties('MP2/aug-cc-pvtz', properties = ['dipole'])
--------------------------------------------------------------------------

    Molecular point group: c1
  Charge       = -1
  Multiplicity = 1
  Basis Set: AUG-CC-PVTZ
    Blend: AUG-CC-PVTZ
  Basis Set: (AUG-CC-PVTZ AUX)
    Blend: AUG-CC-PVTZ-JKFIT

    Orbital Energies [Eh]
    ---------------------

    Doubly Occupied:

       1A    -20.399744     2A    -20.313364     3A    -20.311326
       4A    -11.189201     5A    -11.163969     6A    -11.107951
       7A    -11.102275     8A    -11.074281     9A     -1.230012
      10A     -1.182862    11A     -1.084105    12A     -0.932935
      13A     -0.866188    14A     -0.753098    15A     -0.601804
      16A     -0.547072    17A     -0.517182    18A     -0.504793
      19A     -0.480263    20A     -0.452214    21A     -0.441943
      22A     -0.408936    23A     -0.398613    24A     -0.390458
      25A     -0.378547    26A     -0.349870    27A     -0.337767
      28A     -0.276143    29A     -0.229232    30A     -0.216186
      31A     -0.211443

  @DF-RHF Final Energy:  -418.20852289242458

   => Energetics <=

    Nuclear Repulsion Energy =            362.8317142669526447
    One-Electron Energy =               -1303.1729228892334049
    Two-Electron Energy =                 522.1326857298562345
    Total Energy =                       -418.2085228924245257
  Basis Set: (AUG-CC-PVTZ AUX)
    Blend: AUG-CC-PVTZ-RI
    Molecular point group: c1

    Geometry (in Angstrom), charge = -1, multiplicity = 1:

       Center              X                  Y                   Z               Mass
    ------------   -----------------  -----------------  -----------------  -----------------
         O            1.158037570485     1.331575574518    -0.840067803746    15.994914619570
         O           -1.039592429515    -1.113782425482    -0.782599803746    15.994914619570
         O           -2.837200429515    -0.191547425482     0.267501196254    15.994914619570
         C            1.557348570485    -0.380741425482     0.795658196254    12.000000000000
         C            0.712171570485     0.660382574518     0.094997196254    12.000000000000
         C           -0.696339429515     0.829479574518     0.587881196254    12.000000000000
         C            2.803719570485    -0.771545425482     0.016203196254    12.000000000000
         C           -1.616757429515    -0.266944425482    -0.036652803746    12.000000000000
         H            1.824935570485     0.032937574518     1.778858196254     1.007825032230
         H            0.919073570485    -1.247407425482     0.990988196254     1.007825032230
         H           -0.743735129515     0.752144174518     1.630548296254     1.007825032230
         H           -1.068896429515     1.818176574518     0.301615196254     1.007825032230
         H            2.528146570485    -1.198796425482    -0.951561803746     1.007825032230
         H            3.435650570485     0.099264574518    -0.169899803746     1.007825032230
         H            3.388896570485    -1.513847425482     0.565734196254     1.007825032230

  Basis Set: AUG-CC-PVTZ
    Blend: AUG-CC-PVTZ
  Basis Set: (AUG-CC-PVTZ AUX)
    Blend: AUG-CC-PVTZ-JKFIT
	 Reference Energy          =    -418.2085228924245826 [Eh]
	 Singles Energy            =      -0.0000000000000000 [Eh]
	 Same-Spin Energy          =      -0.4167033888504798 [Eh]
	 Opposite-Spin Energy      =      -1.2919581838969290 [Eh]
	 Correlation Energy        =      -1.7086615727474088 [Eh]
	 Total Energy              =    -419.9171844651719994 [Eh]

	 ================> DF-SCS-MP2 Energies <==================
	-----------------------------------------------------------
	 SCS Same-Spin Scale       =       0.3333333333333333 [-]
	 SCS Opposite-Spin Scale   =       1.2000000000000000 [-]
	 SCS Same-Spin Energy      =      -0.1389011296168266 [Eh]
	 SCS Opposite-Spin Energy  =      -1.5503498206763147 [Eh]
	 SCS Correlation Energy    =      -1.6892509502931412 [Eh]
	 SCS Total Energy          =    -419.8977738427176973 [Eh]
	-----------------------------------------------------------

  Dipole Moment: [D]
     X:     6.7370      Y:     1.2641      Z:     3.2216     Total:     7.5739

*** Psi4 exiting successfully. Buy a developer a beer!
