                               Psi4 1.3.2 release

  ==> Input File <==

--------------------------------------------------------------------------
#psi4
#
memory 32 gb

molecule  {
-1 1
  O        0.5632720    -1.1719080    -0.3765930
  O       -2.2370500    -0.5589400     1.0879600
  O       -2.5032960     0.1554020    -1.0563790
  C        1.9927080     0.6815170     0.1510220
  C        0.6435570     0.0091630    -0.0366810
  C       -0.5777410     0.8814240     0.1686100
  C        3.1729130    -0.2631210    -0.0329300
  C       -1.9486101     0.0981066    -0.0317673
  H        2.0429660     1.5133360    -0.5640360
  H        2.0060190     1.1470430     1.1438410
  H       -0.4967450     1.3515110     1.1569670
  H       -0.5352790     1.6874700    -0.5756840
  H        3.1399490    -1.0742180     0.6982180
  H        3.1613950    -0.7098910    -1.0291440
  H        4.1160350     0.2752530     0.0934100
units angstrom
no_reorient  #important for SAPT in psi4, default
symmetry c1  #important for SAPT in psi4, default
}

set PROPERTIES_ORIGIN ["COM"]
properties('MP2/aug-cc-pvtz', properties = ['dipole'])
--------------------------------------------------------------------------

    Molecular point group: c1
  Charge       = -1
  Multiplicity = 1
  Basis Set: AUG-CC-PVTZ
    Blend: AUG-CC-PVTZ
  Basis Set: (AUG-CC-PVTZ AUX)
    Blend: AUG-CC-PVTZ-JKFIT

    Orbital Energies [Eh]
    ---------------------

    Doubly Occupied:

       1A    -20.406356     2A    -20.320410     3A    -20.276037
       4A    -11.196013     5A    -11.145028     6A    -11.127224
       7A    -11.118621     8A    -11.077058     9A     -1.236026
      10A     -1.212614    11A     -1.049687    12A     -0.946674
      13A     -0.859291    14A     -0.761362    15A     -0.606275
      16A     -0.534790    17A     -0.525573    18A     -0.523028
      19A     -0.474219    20A     -0.448967    21A     -0.444837
      22A     -0.415702    23A     -0.405387    24A     -0.403902
      25A     -0.380788    26A     -0.360695    27A     -0.342640
      28A     -0.276751    29A     -0.216680    30A     -0.191656
      31A     -0.188619

  @DF-RHF Final Energy:  -418.18406833584675

   => Energetics <=

    Nuclear Repulsion Energy =            356.6922881909961802
    One-Electron Energy =               -1290.8068911966208816
    Two-Electron Energy =                 515.9305346697780124
    Total Energy =                       -418.1840683358467459
  Basis Set: (AUG-CC-PVTZ AUX)
    Blend: AUG-CC-PVTZ-RI
    Molecular point group: c1

    Geometry (in Angstrom), charge = -1, multiplicity = 1:

       Center              X                  Y                   Z               Mass
    ------------   -----------------  -----------------  -----------------  -----------------
         O            0.683913629560    -1.136348443932    -0.359480670970    15.994914619570
         O           -2.116408370440    -0.523380443932     1.105072329030    15.994914619570
         O           -2.382654370440     0.190961556068    -1.039266670970    15.994914619570
         C            2.113349629560     0.717076556068     0.168134329030    12.000000000000
         C            0.764198629560     0.044722556068    -0.019568670970    12.000000000000
         C           -0.457099370440     0.916983556068     0.185722329030    12.000000000000
         C            3.293554629560    -0.227561443932    -0.015817670970    12.000000000000
         C           -1.827968470440     0.133666156068    -0.014654970970    12.000000000000
         H            2.163607629560     1.548895556068    -0.546923670970     1.007825032230
         H            2.126660629560     1.182602556068     1.160953329030     1.007825032230
         H           -0.376103370440     1.387070556068     1.174079329030     1.007825032230
         H           -0.414637370440     1.723029556068    -0.558571670970     1.007825032230
         H            3.260590629560    -1.038658443932     0.715330329030     1.007825032230
         H            3.282036629560    -0.674331443932    -1.012031670970     1.007825032230
         H            4.236676629560     0.310812556068     0.110522329030     1.007825032230

  Basis Set: AUG-CC-PVTZ
    Blend: AUG-CC-PVTZ
  Basis Set: (AUG-CC-PVTZ AUX)
    Blend: AUG-CC-PVTZ-JKFIT
	 Reference Energy          =    -418.1840683358467459 [Eh]
	 Singles Energy            =      -0.0000000000000000 [Eh]
	 Same-Spin Energy          =      -0.4154150442639363 [Eh]
	 Opposite-Spin Energy      =      -1.2906977947521403 [Eh]
	 Correlation Energy        =      -1.7061128390160767 [Eh]
	 Total Energy              =    -419.8901811748628461 [Eh]

	 ================> DF-SCS-MP2 Energies <==================
	-----------------------------------------------------------
	 SCS Same-Spin Scale       =       0.3333333333333333 [-]
	 SCS Opposite-Spin Scale   =       1.2000000000000000 [-]
	 SCS Same-Spin Energy      =      -0.1384716814213121 [Eh]
	 SCS Opposite-Spin Energy  =      -1.5488373537025684 [Eh]
	 SCS Correlation Energy    =      -1.6873090351238804 [Eh]
	 SCS Total Energy          =    -419.8713773709706061 [Eh]
	-----------------------------------------------------------

  Dipole Moment: [D]
     X:     9.5480      Y:     3.6273      Z:    -0.3176     Total:    10.2187

*** Psi4 exiting successfully. Buy a developer a beer!
