                               Psi4 1.3.2 release

  ==> Input File <==

--------------------------------------------------------------------------
#psi4
#
memory 32 gb

molecule  {
-1 1
  O        0.5632720    -1.1719080    -0.3765930
  O       -2.2370500    -0.5589400     1.0879600
  O       -2.5032960     0.1554020    -1.0563790
  C        1.9927080     0.6815170     0.1510220
  C        0.6688179     0.0312236     0.0351830
  C       -0.5777410     0.8814240     0.1686100
  C        3.1729130    -0.2631210    -0.0329300
  C       -1.9010600     0.0931950     0.0560670
  H        2.0429660     1.5133360    -0.5640360
  H        2.0060190     1.1470430     1.1438410
  H       -0.4467834     1.3240881     1.1642456
  H       -0.5352790     1.6874700    -0.5756840
  H        3.1399490    -1.0742180     0.6982180
  H        3.1613950    -0.7098910    -1.0291440
  H        4.1160350     0.2752530     0.0934100
units angstrom
no_reorient  #important for SAPT in psi4, default
symmetry c1  #important for SAPT in psi4, default
}

set PROPERTIES_ORIGIN ["COM"]
properties('MP2/aug-cc-pvtz', properties = ['dipole'])
--------------------------------------------------------------------------

    Molecular point group: c1
  Charge       = -1
  Multiplicity = 1
  Basis Set: AUG-CC-PVTZ
    Blend: AUG-CC-PVTZ
  Basis Set: (AUG-CC-PVTZ AUX)
    Blend: AUG-CC-PVTZ-JKFIT

    Orbital Energies [Eh]
    ---------------------

    Doubly Occupied:

       1A    -20.406618     2A    -20.296983     3A    -20.294328
       4A    -11.203114     5A    -11.147333     6A    -11.133302
       7A    -11.122868     8A    -11.085332     9A     -1.211540
      10A     -1.163496    11A     -1.064014    12A     -0.957797
      13A     -0.870582    14A     -0.773921    15A     -0.613155
      16A     -0.540355    17A     -0.530831    18A     -0.523515
      19A     -0.465917    20A     -0.455079    21A     -0.436985
      22A     -0.413737    23A     -0.405667    24A     -0.403128
      25A     -0.377255    26A     -0.337293    27A     -0.327935
      28A     -0.282081    29A     -0.211025    30A     -0.208427
      31A     -0.192246

  @DF-RHF Final Energy:  -418.18284683750869

   => Energetics <=

    Nuclear Repulsion Energy =            356.3573838092580672
    One-Electron Energy =               -1290.1687463188209222
    Two-Electron Energy =                 515.6285156720541636
    Total Energy =                       -418.1828468375086914
  Basis Set: (AUG-CC-PVTZ AUX)
    Blend: AUG-CC-PVTZ-RI
    Molecular point group: c1

    Geometry (in Angstrom), charge = -1, multiplicity = 1:

       Center              X                  Y                   Z               Mass
    ------------   -----------------  -----------------  -----------------  -----------------
         O            0.675880872135    -1.137897046676    -0.376202882351    15.994914619570
         O           -2.124441127865    -0.524929046676     1.088350117649    15.994914619570
         O           -2.390687127865     0.189412953324    -1.055988882351    15.994914619570
         C            2.105316872135     0.715527953324     0.151412117649    12.000000000000
         C            0.781426772135     0.065234553324     0.035573117649    12.000000000000
         C           -0.465132127865     0.915434953324     0.169000117649    12.000000000000
         C            3.285521872135    -0.229110046676    -0.032539882351    12.000000000000
         C           -1.788451127865     0.127205953324     0.056457117649    12.000000000000
         H            2.155574872135     1.547346953324    -0.563645882351     1.007825032230
         H            2.118627872135     1.181053953324     1.144231117649     1.007825032230
         H           -0.334174527865     1.358099053324     1.164635717649     1.007825032230
         H           -0.422670127865     1.721480953324    -0.575293882351     1.007825032230
         H            3.252557872135    -1.040207046676     0.698608117649     1.007825032230
         H            3.274003872135    -0.675880046676    -1.028753882351     1.007825032230
         H            4.228643872135     0.309263953324     0.093800117649     1.007825032230

  Basis Set: AUG-CC-PVTZ
    Blend: AUG-CC-PVTZ
  Basis Set: (AUG-CC-PVTZ AUX)
    Blend: AUG-CC-PVTZ-JKFIT
	 Reference Energy          =    -418.1828468375086914 [Eh]
	 Singles Energy            =      -0.0000000000000000 [Eh]
	 Same-Spin Energy          =      -0.4177689808934805 [Eh]
	 Opposite-Spin Energy      =      -1.2958731103958818 [Eh]
	 Correlation Energy        =      -1.7136420912893624 [Eh]
	 Total Energy              =    -419.8964889287980782 [Eh]

	 ================> DF-SCS-MP2 Energies <==================
	-----------------------------------------------------------
	 SCS Same-Spin Scale       =       0.3333333333333333 [-]
	 SCS Opposite-Spin Scale   =       1.2000000000000000 [-]
	 SCS Same-Spin Energy      =      -0.1392563269644935 [Eh]
	 SCS Opposite-Spin Energy  =      -1.5550477324750582 [Eh]
	 SCS Correlation Energy    =      -1.6943040594395518 [Eh]
	 SCS Total Energy          =    -419.8771508969482511 [Eh]
	-----------------------------------------------------------

  Dipole Moment: [D]
     X:    10.1272      Y:     3.5802      Z:     0.7045     Total:    10.7645

*** Psi4 exiting successfully. Buy a developer a beer!
