                               Psi4 1.3.2 release

  ==> Input File <==

--------------------------------------------------------------------------
#psi4
#
memory 32 gb

molecule  {
-1 1
  O        0.5632720    -1.1719080    -0.3765930
  O       -2.2370500    -0.5589400     1.0879600
  O       -2.5347695     0.1290707    -1.0399345
  C        1.9927080     0.6815170     0.1510220
  C        0.6435570     0.0091630    -0.0366810
  C       -0.5729441     0.8642633     0.2194866
  C        3.1729130    -0.2631210    -0.0329300
  C       -1.9010600     0.0931950     0.0560670
  H        2.0429660     1.5133360    -0.5640360
  H        2.0060190     1.1470430     1.1438410
  H       -0.4967450     1.3515110     1.1569670
  H       -0.5352790     1.6874700    -0.5756840
  H        3.1399490    -1.0742180     0.6982180
  H        3.1613950    -0.7098910    -1.0291440
  H        4.1160350     0.2752530     0.0934100
units angstrom
no_reorient  #important for SAPT in psi4, default
symmetry c1  #important for SAPT in psi4, default
}

set PROPERTIES_ORIGIN ["COM"]
properties('MP2/aug-cc-pvtz', properties = ['dipole'])
--------------------------------------------------------------------------

    Molecular point group: c1
  Charge       = -1
  Multiplicity = 1
  Basis Set: AUG-CC-PVTZ
    Blend: AUG-CC-PVTZ
  Basis Set: (AUG-CC-PVTZ AUX)
    Blend: AUG-CC-PVTZ-JKFIT

    Orbital Energies [Eh]
    ---------------------

    Doubly Occupied:

       1A    -20.410874     2A    -20.296436     3A    -20.291205
       4A    -11.201116     5A    -11.145511     6A    -11.130999
       7A    -11.121427     8A    -11.086245     9A     -1.240382
      10A     -1.163910    11A     -1.060526    12A     -0.950804
      13A     -0.870599    14A     -0.767833    15A     -0.613248
      16A     -0.539844    17A     -0.532612    18A     -0.526442
      19A     -0.473705    20A     -0.452710    21A     -0.439948
      22A     -0.411522    23A     -0.408927    24A     -0.402969
      25A     -0.375480    26A     -0.344549    27A     -0.336602
      28A     -0.281769    29A     -0.210498    30A     -0.204911
      31A     -0.190153

  @DF-RHF Final Energy:  -418.19145981506057

   => Energetics <=

    Nuclear Repulsion Energy =            356.6273140397711359
    One-Electron Energy =               -1290.6700382490275842
    Two-Electron Energy =                 515.8512643941958231
    Total Energy =                       -418.1914598150606253
  Basis Set: (AUG-CC-PVTZ AUX)
    Blend: AUG-CC-PVTZ-RI
    Molecular point group: c1

    Geometry (in Angstrom), charge = -1, multiplicity = 1:

       Center              X                  Y                   Z               Mass
    ------------   -----------------  -----------------  -----------------  -----------------
         O            0.682829236512    -1.130384975893    -0.376236297113    15.994914619570
         O           -2.117492763488    -0.517416975893     1.088316702887    15.994914619570
         O           -2.415212263488     0.170593724107    -1.039577797113    15.994914619570
         C            2.112265236512     0.723040024107     0.151378702887    12.000000000000
         C            0.763114236512     0.050686024107    -0.036324297113    12.000000000000
         C           -0.453386863488     0.905786324107     0.219843302887    12.000000000000
         C            3.292470236512    -0.221597975893    -0.032573297113    12.000000000000
         C           -1.781502763488     0.134718024107     0.056423702887    12.000000000000
         H            2.162523236512     1.554859024107    -0.563679297113     1.007825032230
         H            2.125576236512     1.188566024107     1.144197702887     1.007825032230
         H           -0.377187763488     1.393034024107     1.157323702887     1.007825032230
         H           -0.415721763488     1.728993024107    -0.575327297113     1.007825032230
         H            3.259506236512    -1.032694975893     0.698574702887     1.007825032230
         H            3.280952236512    -0.668367975893    -1.028787297113     1.007825032230
         H            4.235592236512     0.316776024107     0.093766702887     1.007825032230

  Basis Set: AUG-CC-PVTZ
    Blend: AUG-CC-PVTZ
  Basis Set: (AUG-CC-PVTZ AUX)
    Blend: AUG-CC-PVTZ-JKFIT
	 Reference Energy          =    -418.1914598150605684 [Eh]
	 Singles Energy            =      -0.0000000000000000 [Eh]
	 Same-Spin Energy          =      -0.4163053786188541 [Eh]
	 Opposite-Spin Energy      =      -1.2927789403466092 [Eh]
	 Correlation Energy        =      -1.7090843189654632 [Eh]
	 Total Energy              =    -419.9005441340260063 [Eh]

	 ================> DF-SCS-MP2 Energies <==================
	-----------------------------------------------------------
	 SCS Same-Spin Scale       =       0.3333333333333333 [-]
	 SCS Opposite-Spin Scale   =       1.2000000000000000 [-]
	 SCS Same-Spin Energy      =      -0.1387684595396180 [Eh]
	 SCS Opposite-Spin Energy  =      -1.5513347284159311 [Eh]
	 SCS Correlation Energy    =      -1.6901031879555490 [Eh]
	 SCS Total Energy          =    -419.8815630030161401 [Eh]
	-----------------------------------------------------------

  Dipole Moment: [D]
     X:    10.0756      Y:     3.5037      Z:     0.6705     Total:    10.6885

*** Psi4 exiting successfully. Buy a developer a beer!
