                               Psi4 1.3.2 release

  ==> Input File <==

--------------------------------------------------------------------------
#psi4
#
memory 32 gb

molecule  {
-1 1
  O        0.5632720    -1.1719080    -0.3765930
  O       -2.2370500    -0.5589400     1.0879600
  O       -2.5032960     0.1554020    -1.0563790
  C        1.9927080     0.6815170     0.1510220
  C        0.6435570     0.0091630    -0.0366810
  C       -0.5777410     0.8814240     0.1686100
  C        3.1729130    -0.2631210    -0.0329300
  C       -1.9010600     0.0931950     0.0560670
  H        2.0429660     1.5133360    -0.5640360
  H        2.0060190     1.1470430     1.1438410
  H       -0.4893646     1.3943456     1.2470266
  H       -0.5352790     1.6874700    -0.5756840
  H        3.1399490    -1.0742180     0.6982180
  H        3.1613950    -0.7098910    -1.0291440
  H        4.1160350     0.2752530     0.0934100
units angstrom
no_reorient  #important for SAPT in psi4, default
symmetry c1  #important for SAPT in psi4, default
}

set PROPERTIES_ORIGIN ["COM"]
properties('MP2/aug-cc-pvtz', properties = ['dipole'])
--------------------------------------------------------------------------

    Molecular point group: c1
  Charge       = -1
  Multiplicity = 1
  Basis Set: AUG-CC-PVTZ
    Blend: AUG-CC-PVTZ
  Basis Set: (AUG-CC-PVTZ AUX)
    Blend: AUG-CC-PVTZ-JKFIT

    Orbital Energies [Eh]
    ---------------------

    Doubly Occupied:

       1A    -20.411142     2A    -20.297922     3A    -20.294941
       4A    -11.201155     5A    -11.147560     6A    -11.130048
       7A    -11.120784     8A    -11.095063     9A     -1.240358
      10A     -1.164707    11A     -1.064803    12A     -0.949418
      13A     -0.863429    14A     -0.765401    15A     -0.611627
      16A     -0.538093    17A     -0.528738    18A     -0.524620
      19A     -0.470785    20A     -0.447747    21A     -0.438387
      22A     -0.410075    23A     -0.407365    24A     -0.402638
      25A     -0.375514    26A     -0.345910    27A     -0.334556
      28A     -0.280831    29A     -0.210714    30A     -0.208270
      31A     -0.193185

  @DF-RHF Final Energy:  -418.18914561615878

   => Energetics <=

    Nuclear Repulsion Energy =            356.2396616204465545
    One-Electron Energy =               -1289.9060458830210791
    Two-Electron Energy =                 515.4772386464157989
    Total Energy =                       -418.1891456161587257
  Basis Set: (AUG-CC-PVTZ AUX)
    Blend: AUG-CC-PVTZ-RI
    Molecular point group: c1

    Geometry (in Angstrom), charge = -1, multiplicity = 1:

       Center              X                  Y                   Z               Mass
    ------------   -----------------  -----------------  -----------------  -----------------
         O            0.678888927123    -1.136211365666    -0.369431824524    15.994914619570
         O           -2.121433072877    -0.523243365666     1.095121175476    15.994914619570
         O           -2.387679072877     0.191098634334    -1.049217824524    15.994914619570
         C            2.108324927123     0.717213634334     0.158183175476    12.000000000000
         C            0.759173927123     0.044859634334    -0.029519824524    12.000000000000
         C           -0.462124072877     0.917120634334     0.175771175476    12.000000000000
         C            3.288529927123    -0.227424365666    -0.025768824524    12.000000000000
         C           -1.785443072877     0.128891634334     0.063228175476    12.000000000000
         H            2.158582927123     1.549032634334    -0.556874824524     1.007825032230
         H            2.121635927123     1.182739634334     1.151002175476     1.007825032230
         H           -0.373747672877     1.430042234334     1.254187775476     1.007825032230
         H           -0.419662072877     1.723166634334    -0.568522824524     1.007825032230
         H            3.255565927123    -1.038521365666     0.705379175476     1.007825032230
         H            3.277011927123    -0.674194365666    -1.021982824524     1.007825032230
         H            4.231651927123     0.310949634334     0.100571175476     1.007825032230

  Basis Set: AUG-CC-PVTZ
    Blend: AUG-CC-PVTZ
  Basis Set: (AUG-CC-PVTZ AUX)
    Blend: AUG-CC-PVTZ-JKFIT
	 Reference Energy          =    -418.1891456161587826 [Eh]
	 Singles Energy            =      -0.0000000000000000 [Eh]
	 Same-Spin Energy          =      -0.4162818572124902 [Eh]
	 Opposite-Spin Energy      =      -1.2933353881220866 [Eh]
	 Correlation Energy        =      -1.7096172453345768 [Eh]
	 Total Energy              =    -419.8987628614933669 [Eh]

	 ================> DF-SCS-MP2 Energies <==================
	-----------------------------------------------------------
	 SCS Same-Spin Scale       =       0.3333333333333333 [-]
	 SCS Opposite-Spin Scale   =       1.2000000000000000 [-]
	 SCS Same-Spin Energy      =      -0.1387606190708301 [Eh]
	 SCS Opposite-Spin Energy  =      -1.5520024657465039 [Eh]
	 SCS Correlation Energy    =      -1.6907630848173341 [Eh]
	 SCS Total Energy          =    -419.8799087009761024 [Eh]
	-----------------------------------------------------------

  Dipole Moment: [D]
     X:     9.9498      Y:     3.4082      Z:     0.5826     Total:    10.5335

*** Psi4 exiting successfully. Buy a developer a beer!
