                               Psi4 1.3.2 release

  ==> Input File <==

--------------------------------------------------------------------------
#psi4
#
memory 32 gb

molecule  {
-1 1
  O        0.5632720    -1.1719080    -0.3765930
  O       -2.2370500    -0.5589400     1.0879600
  O       -2.5032960     0.1554020    -1.0563790
  C        1.9927080     0.6815170     0.1510220
  C        0.6356038    -0.0062653    -0.0167396
  C       -0.5777410     0.8814240     0.1686100
  C        3.1729130    -0.2631210    -0.0329300
  C       -1.9010600     0.0931950     0.0560670
  H        2.0429660     1.5133360    -0.5640360
  H        2.0060190     1.1470430     1.1438410
  H       -0.4967450     1.3515110     1.1569670
  H       -0.5517119     1.6944939    -0.5687682
  H        3.1399490    -1.0742180     0.6982180
  H        3.1613950    -0.7098910    -1.0291440
  H        4.1160350     0.2752530     0.0934100
units angstrom
no_reorient  #important for SAPT in psi4, default
symmetry c1  #important for SAPT in psi4, default
}

set PROPERTIES_ORIGIN ["COM"]
properties('MP2/aug-cc-pvtz', properties = ['dipole'])
--------------------------------------------------------------------------

    Molecular point group: c1
  Charge       = -1
  Multiplicity = 1
  Basis Set: AUG-CC-PVTZ
    Blend: AUG-CC-PVTZ
  Basis Set: (AUG-CC-PVTZ AUX)
    Blend: AUG-CC-PVTZ-JKFIT

    Orbital Energies [Eh]
    ---------------------

    Doubly Occupied:

       1A    -20.411377     2A    -20.296579     3A    -20.294591
       4A    -11.199754     5A    -11.145887     6A    -11.129463
       7A    -11.120284     8A    -11.082380     9A     -1.246155
      10A     -1.164010    11A     -1.064052    12A     -0.947631
      13A     -0.867515    14A     -0.764935    15A     -0.611565
      16A     -0.537941    17A     -0.531229    18A     -0.525122
      19A     -0.473268    20A     -0.454256    21A     -0.439852
      22A     -0.410079    23A     -0.408311    24A     -0.402870
      25A     -0.377417    26A     -0.350192    27A     -0.336236
      28A     -0.279509    29A     -0.210337    30A     -0.206576
      31A     -0.192642

  @DF-RHF Final Energy:  -418.19623843101397

   => Energetics <=

    Nuclear Repulsion Energy =            356.7884222284734506
    One-Electron Energy =               -1291.0052925481818420
    Two-Electron Energy =                 516.0206318886944246
    Total Energy =                       -418.1962384310139669
  Basis Set: (AUG-CC-PVTZ AUX)
    Blend: AUG-CC-PVTZ-RI
    Molecular point group: c1

    Geometry (in Angstrom), charge = -1, multiplicity = 1:

       Center              X                  Y                   Z               Mass
    ------------   -----------------  -----------------  -----------------  -----------------
         O            0.679927161991    -1.134288282871    -0.370783554767    15.994914619570
         O           -2.120394838009    -0.521320282871     1.093769445233    15.994914619570
         O           -2.386640838009     0.193021717129    -1.050569554767    15.994914619570
         C            2.109363161991     0.719136717129     0.156831445233    12.000000000000
         C            0.752258961991     0.031354417129    -0.010930154767    12.000000000000
         C           -0.461085838009     0.919043717129     0.174419445233    12.000000000000
         C            3.289568161991    -0.225501282871    -0.027120554767    12.000000000000
         C           -1.784404838009     0.130814717129     0.061876445233    12.000000000000
         H            2.159621161991     1.550955717129    -0.558226554767     1.007825032230
         H            2.122674161991     1.184662717129     1.149650445233     1.007825032230
         H           -0.380089838009     1.389130717129     1.162776445233     1.007825032230
         H           -0.435056738009     1.732113617129    -0.562958754767     1.007825032230
         H            3.256604161991    -1.036598282871     0.704027445233     1.007825032230
         H            3.278050161991    -0.672271282871    -1.023334554767     1.007825032230
         H            4.232690161991     0.312872717129     0.099219445233     1.007825032230

  Basis Set: AUG-CC-PVTZ
    Blend: AUG-CC-PVTZ
  Basis Set: (AUG-CC-PVTZ AUX)
    Blend: AUG-CC-PVTZ-JKFIT
	 Reference Energy          =    -418.1962384310139669 [Eh]
	 Singles Energy            =      -0.0000000000000000 [Eh]
	 Same-Spin Energy          =      -0.4159141701174231 [Eh]
	 Opposite-Spin Energy      =      -1.2920079895668377 [Eh]
	 Correlation Energy        =      -1.7079221596842609 [Eh]
	 Total Energy              =    -419.9041605906982113 [Eh]

	 ================> DF-SCS-MP2 Energies <==================
	-----------------------------------------------------------
	 SCS Same-Spin Scale       =       0.3333333333333333 [-]
	 SCS Opposite-Spin Scale   =       1.2000000000000000 [-]
	 SCS Same-Spin Energy      =      -0.1386380567058077 [Eh]
	 SCS Opposite-Spin Energy  =      -1.5504095874802053 [Eh]
	 SCS Correlation Energy    =      -1.6890476441860129 [Eh]
	 SCS Total Energy          =    -419.8852860751999856 [Eh]
	-----------------------------------------------------------

  Dipole Moment: [D]
     X:     9.9453      Y:     3.4153      Z:     0.6372     Total:    10.5347

*** Psi4 exiting successfully. Buy a developer a beer!
