                               Psi4 1.3.2 release

  ==> Input File <==

--------------------------------------------------------------------------
#psi4
#
memory 32 gb

molecule  {
-1 1
  O        0.5632720    -1.1719080    -0.3765930
  O       -2.2370500    -0.5589400     1.0879600
  O       -2.5032960     0.1554020    -1.0563790
  C        1.9927080     0.6815170     0.1510220
  C        0.6435570     0.0091630    -0.0366810
  C       -0.6583665     0.9390074     0.1821625
  C        3.1729130    -0.2631210    -0.0329300
  C       -1.9010600     0.0931950     0.0560670
  H        2.0429660     1.5133360    -0.5640360
  H        2.0060190     1.1470430     1.1438410
  H       -0.4967450     1.3515110     1.1569670
  H       -0.5352790     1.6874700    -0.5756840
  H        3.1399490    -1.0742180     0.6982180
  H        3.1613950    -0.7098910    -1.0291440
  H        4.1160350     0.2752530     0.0934100
units angstrom
no_reorient  #important for SAPT in psi4, default
symmetry c1  #important for SAPT in psi4, default
}

set PROPERTIES_ORIGIN ["COM"]
properties('MP2/aug-cc-pvtz', properties = ['dipole'])
--------------------------------------------------------------------------

    Molecular point group: c1
  Charge       = -1
  Multiplicity = 1
  Basis Set: AUG-CC-PVTZ
    Blend: AUG-CC-PVTZ
  Basis Set: (AUG-CC-PVTZ AUX)
    Blend: AUG-CC-PVTZ-JKFIT

    Orbital Energies [Eh]
    ---------------------

    Doubly Occupied:

       1A    -20.412348     2A    -20.294418     3A    -20.293215
       4A    -11.204117     5A    -11.142692     6A    -11.132124
       7A    -11.121953     8A    -11.083431     9A     -1.238950
      10A     -1.163801    11A     -1.062993    12A     -0.948926
      13A     -0.859422    14A     -0.770164    15A     -0.608892
      16A     -0.543805    17A     -0.526673    18A     -0.523736
      19A     -0.468273    20A     -0.460994    21A     -0.438037
      22A     -0.416186    23A     -0.406998    24A     -0.405470
      25A     -0.377209    26A     -0.352080    27A     -0.335057
      28A     -0.268532    29A     -0.209359    30A     -0.208788
      31A     -0.191272

  @DF-RHF Final Energy:  -418.18829015838543

   => Energetics <=

    Nuclear Repulsion Energy =            355.8214443613270532
    One-Electron Energy =               -1289.0796366154731913
    Two-Electron Energy =                 515.0699020957606535
    Total Energy =                       -418.1882901583854846
  Basis Set: (AUG-CC-PVTZ AUX)
    Blend: AUG-CC-PVTZ-RI
    Molecular point group: c1

    Geometry (in Angstrom), charge = -1, multiplicity = 1:

       Center              X                  Y                   Z               Mass
    ------------   -----------------  -----------------  -----------------  -----------------
         O            0.687363790019    -1.141842743674    -0.370056528811    15.994914619570
         O           -2.112958209981    -0.528874743674     1.094496471189    15.994914619570
         O           -2.379204209981     0.185467256326    -1.049842528811    15.994914619570
         C            2.116799790019     0.711582256326     0.157558471189    12.000000000000
         C            0.767648790019     0.039228256326    -0.030144528811    12.000000000000
         C           -0.534274709981     0.969072656326     0.188698971189    12.000000000000
         C            3.297004790019    -0.233055743674    -0.026393528811    12.000000000000
         C           -1.776968209981     0.123260256326     0.062603471189    12.000000000000
         H            2.167057790019     1.543401256326    -0.557499528811     1.007825032230
         H            2.130110790019     1.177108256326     1.150377471189     1.007825032230
         H           -0.372653209981     1.381576256326     1.163503471189     1.007825032230
         H           -0.411187209981     1.717535256326    -0.569147528811     1.007825032230
         H            3.264040790019    -1.044152743674     0.704754471189     1.007825032230
         H            3.285486790019    -0.679825743674    -1.022607528811     1.007825032230
         H            4.240126790019     0.305318256326     0.099946471189     1.007825032230

  Basis Set: AUG-CC-PVTZ
    Blend: AUG-CC-PVTZ
  Basis Set: (AUG-CC-PVTZ AUX)
    Blend: AUG-CC-PVTZ-JKFIT
	 Reference Energy          =    -418.1882901583854277 [Eh]
	 Singles Energy            =      -0.0000000000000000 [Eh]
	 Same-Spin Energy          =      -0.4161148408210230 [Eh]
	 Opposite-Spin Energy      =      -1.2928604880505796 [Eh]
	 Correlation Energy        =      -1.7089753288716025 [Eh]
	 Total Energy              =    -419.8972654872570160 [Eh]

	 ================> DF-SCS-MP2 Energies <==================
	-----------------------------------------------------------
	 SCS Same-Spin Scale       =       0.3333333333333333 [-]
	 SCS Opposite-Spin Scale   =       1.2000000000000000 [-]
	 SCS Same-Spin Energy      =      -0.1387049469403410 [Eh]
	 SCS Opposite-Spin Energy  =      -1.5514325856606954 [Eh]
	 SCS Correlation Energy    =      -1.6901375326010364 [Eh]
	 SCS Total Energy          =    -419.8784276909864843 [Eh]
	-----------------------------------------------------------

  Dipole Moment: [D]
     X:    10.1581      Y:     3.4621      Z:     0.6354     Total:    10.7507

*** Psi4 exiting successfully. Buy a developer a beer!
