                               Psi4 1.3.2 release

  ==> Input File <==

--------------------------------------------------------------------------
#psi4
#
memory 32 gb

molecule  {
-1 1
  O        0.5632720    -1.1719080    -0.3765930
  O       -2.2370500    -0.5589400     1.0879600
  O       -2.5032960     0.1554020    -1.0563790
  C        1.9927080     0.6815170     0.1510220
  C        0.6435570     0.0091630    -0.0366810
  C       -0.5777410     0.8814240     0.1686100
  C        3.1729130    -0.2631210    -0.0329300
  C       -1.8745223     0.1447030    -0.0254356
  H        2.0429660     1.5133360    -0.5640360
  H        2.0060190     1.1470430     1.1438410
  H       -0.4967450     1.3515110     1.1569670
  H       -0.5352790     1.6874700    -0.5756840
  H        3.1399490    -1.0742180     0.6982180
  H        3.1613950    -0.7098910    -1.0291440
  H        4.1160350     0.2752530     0.0934100
units angstrom
no_reorient  #important for SAPT in psi4, default
symmetry c1  #important for SAPT in psi4, default
}

set PROPERTIES_ORIGIN ["COM"]
properties('MP2/aug-cc-pvtz', properties = ['dipole'])
--------------------------------------------------------------------------

    Molecular point group: c1
  Charge       = -1
  Multiplicity = 1
  Basis Set: AUG-CC-PVTZ
    Blend: AUG-CC-PVTZ
  Basis Set: (AUG-CC-PVTZ AUX)
    Blend: AUG-CC-PVTZ-JKFIT

    Orbital Energies [Eh]
    ---------------------

    Doubly Occupied:

       1A    -20.412305     2A    -20.316183     3A    -20.272177
       4A    -11.203066     5A    -11.145586     6A    -11.132369
       7A    -11.122202     8A    -11.087754     9A     -1.241541
      10A     -1.183492    11A     -1.025654    12A     -0.951862
      13A     -0.875382    14A     -0.771500    15A     -0.617286
      16A     -0.545697    17A     -0.533089    18A     -0.528081
      19A     -0.474581    20A     -0.458860    21A     -0.444906
      22A     -0.416562    23A     -0.409700    24A     -0.403657
      25A     -0.370590    26A     -0.345686    27A     -0.339210
      28A     -0.282414    29A     -0.213858    30A     -0.190081
      31A     -0.179288

  @DF-RHF Final Energy:  -418.17856070582832

   => Energetics <=

    Nuclear Repulsion Energy =            356.7937968184805300
    One-Electron Energy =               -1290.9554826863313792
    Two-Electron Energy =                 515.9831251620224748
    Total Energy =                       -418.1785607058283176
  Basis Set: (AUG-CC-PVTZ AUX)
    Blend: AUG-CC-PVTZ-RI
    Molecular point group: c1

    Geometry (in Angstrom), charge = -1, multiplicity = 1:

       Center              X                  Y                   Z               Mass
    ------------   -----------------  -----------------  -----------------  -----------------
         O            0.676185384457    -1.141209006672    -0.360141143133    15.994914619570
         O           -2.124136615543    -0.528241006672     1.104411856867    15.994914619570
         O           -2.390382615543     0.186100993328    -1.039927143133    15.994914619570
         C            2.105621384457     0.712215993328     0.167473856867    12.000000000000
         C            0.756470384457     0.039861993328    -0.020229143133    12.000000000000
         C           -0.464827615543     0.912122993328     0.185061856867    12.000000000000
         C            3.285826384457    -0.232422006672    -0.016478143133    12.000000000000
         C           -1.761608915543     0.175401993328    -0.008983743133    12.000000000000
         H            2.155879384457     1.544034993328    -0.547584143133     1.007825032230
         H            2.118932384457     1.177741993328     1.160292856867     1.007825032230
         H           -0.383831615543     1.382209993328     1.173418856867     1.007825032230
         H           -0.422365615543     1.718168993328    -0.559232143133     1.007825032230
         H            3.252862384457    -1.043519006672     0.714669856867     1.007825032230
         H            3.274308384457    -0.679192006672    -1.012692143133     1.007825032230
         H            4.228948384457     0.305951993328     0.109861856867     1.007825032230

  Basis Set: AUG-CC-PVTZ
    Blend: AUG-CC-PVTZ
  Basis Set: (AUG-CC-PVTZ AUX)
    Blend: AUG-CC-PVTZ-JKFIT
	 Reference Energy          =    -418.1785607058283176 [Eh]
	 Singles Energy            =      -0.0000000000000000 [Eh]
	 Same-Spin Energy          =      -0.4170518981385752 [Eh]
	 Opposite-Spin Energy      =      -1.2946682999278987 [Eh]
	 Correlation Energy        =      -1.7117201980664740 [Eh]
	 Total Energy              =    -419.8902809038947908 [Eh]

	 ================> DF-SCS-MP2 Energies <==================
	-----------------------------------------------------------
	 SCS Same-Spin Scale       =       0.3333333333333333 [-]
	 SCS Opposite-Spin Scale   =       1.2000000000000000 [-]
	 SCS Same-Spin Energy      =      -0.1390172993795251 [Eh]
	 SCS Opposite-Spin Energy  =      -1.5536019599134783 [Eh]
	 SCS Correlation Energy    =      -1.6926192592930034 [Eh]
	 SCS Total Energy          =    -419.8711799651213141 [Eh]
	-----------------------------------------------------------

  Dipole Moment: [D]
     X:    10.1687      Y:     3.8503      Z:    -0.2461     Total:    10.8760

*** Psi4 exiting successfully. Buy a developer a beer!
