                               Psi4 1.3.2 release

  ==> Input File <==

--------------------------------------------------------------------------
#psi4
#
memory 32 gb

molecule  {
-1 1
  O        0.5632720    -1.1719080    -0.3765930
  O       -2.2370500    -0.5589400     1.0879600
  O       -2.5032960     0.1554020    -1.0563790
  C        1.9927080     0.6815170     0.1510220
  C        0.6248521    -0.0042193    -0.0842898
  C       -0.5777410     0.8814240     0.1686100
  C        3.1729130    -0.2631210    -0.0329300
  C       -1.9010600     0.0931950     0.0560670
  H        2.0429660     1.5133360    -0.5640360
  H        2.0060190     1.1470430     1.1438410
  H       -0.5301845     1.3690816     1.1506080
  H       -0.5352790     1.6874700    -0.5756840
  H        3.1399490    -1.0742180     0.6982180
  H        3.1613950    -0.7098910    -1.0291440
  H        4.1160350     0.2752530     0.0934100
units angstrom
no_reorient  #important for SAPT in psi4, default
symmetry c1  #important for SAPT in psi4, default
}

set PROPERTIES_ORIGIN ["COM"]
properties('MP2/aug-cc-pvtz', properties = ['dipole'])
--------------------------------------------------------------------------

    Molecular point group: c1
  Charge       = -1
  Multiplicity = 1
  Basis Set: AUG-CC-PVTZ
    Blend: AUG-CC-PVTZ
  Basis Set: (AUG-CC-PVTZ AUX)
    Blend: AUG-CC-PVTZ-JKFIT

    Orbital Energies [Eh]
    ---------------------

    Doubly Occupied:

       1A    -20.413011     2A    -20.296279     3A    -20.295041
       4A    -11.198914     5A    -11.145582     6A    -11.127922
       7A    -11.119402     8A    -11.081729     9A     -1.257939
      10A     -1.164191    11A     -1.064130    12A     -0.944397
      13A     -0.866887    14A     -0.762030    15A     -0.611241
      16A     -0.538475    17A     -0.533193    18A     -0.523231
      19A     -0.476660    20A     -0.454257    21A     -0.440268
      22A     -0.409972    23A     -0.408539    24A     -0.402279
      25A     -0.378144    26A     -0.354366    27A     -0.337561
      28A     -0.277521    29A     -0.210233    30A     -0.205805
      31A     -0.192818

  @DF-RHF Final Energy:  -418.19669574317550

   => Energetics <=

    Nuclear Repulsion Energy =            356.9112607419311303
    One-Electron Energy =               -1291.2318772700327827
    Two-Electron Energy =                 516.1239207849262129
    Total Energy =                       -418.1966957431754963
  Basis Set: (AUG-CC-PVTZ AUX)
    Blend: AUG-CC-PVTZ-RI
    Molecular point group: c1

    Geometry (in Angstrom), charge = -1, multiplicity = 1:

       Center              X                  Y                   Z               Mass
    ------------   -----------------  -----------------  -----------------  -----------------
         O            0.681197682577    -1.134594101502    -0.363620963318    15.994914619570
         O           -2.119124317423    -0.521626101502     1.100932036682    15.994914619570
         O           -2.385370317423     0.192715898498    -1.043406963318    15.994914619570
         C            2.110633682577     0.718830898498     0.163994036682    12.000000000000
         C            0.742777782577     0.033094598498    -0.071317763318    12.000000000000
         C           -0.459815317423     0.918737898498     0.181582036682    12.000000000000
         C            3.290838682577    -0.225807101502    -0.019957963318    12.000000000000
         C           -1.783134317423     0.130508898498     0.069039036682    12.000000000000
         H            2.160891682577     1.550649898498    -0.551063963318     1.007825032230
         H            2.123944682577     1.184356898498     1.156813036682     1.007825032230
         H           -0.412258817423     1.406395498498     1.163580036682     1.007825032230
         H           -0.417353317423     1.724783898498    -0.562711963318     1.007825032230
         H            3.257874682577    -1.036904101502     0.711190036682     1.007825032230
         H            3.279320682577    -0.672577101502    -1.016171963318     1.007825032230
         H            4.233960682577     0.312566898498     0.106382036682     1.007825032230

  Basis Set: AUG-CC-PVTZ
    Blend: AUG-CC-PVTZ
  Basis Set: (AUG-CC-PVTZ AUX)
    Blend: AUG-CC-PVTZ-JKFIT
	 Reference Energy          =    -418.1966957431754963 [Eh]
	 Singles Energy            =      -0.0000000000000000 [Eh]
	 Same-Spin Energy          =      -0.4155034332910464 [Eh]
	 Opposite-Spin Energy      =      -1.2911081736837917 [Eh]
	 Correlation Energy        =      -1.7066116069748380 [Eh]
	 Total Energy              =    -419.9033073501503281 [Eh]

	 ================> DF-SCS-MP2 Energies <==================
	-----------------------------------------------------------
	 SCS Same-Spin Scale       =       0.3333333333333333 [-]
	 SCS Opposite-Spin Scale   =       1.2000000000000000 [-]
	 SCS Same-Spin Energy      =      -0.1385011444303488 [Eh]
	 SCS Opposite-Spin Energy  =      -1.5493298084205500 [Eh]
	 SCS Correlation Energy    =      -1.6878309528508988 [Eh]
	 SCS Total Energy          =    -419.8845266960263984 [Eh]
	-----------------------------------------------------------

  Dipole Moment: [D]
     X:     9.8725      Y:     3.3626      Z:     0.5727     Total:    10.4452

*** Psi4 exiting successfully. Buy a developer a beer!
