                               Psi4 1.3.2 release

  ==> Input File <==

--------------------------------------------------------------------------
#psi4
#
memory 32 gb

molecule  {
-1 1
  O        0.5632720    -1.1719080    -0.3765930
  O       -2.2370500    -0.5589400     1.0879600
  O       -2.5032960     0.1554020    -1.0563790
  C        1.9927080     0.6815170     0.1510220
  C        0.6435570     0.0091630    -0.0366810
  C       -0.5777410     0.8814240     0.1686100
  C        3.1729130    -0.2631210    -0.0329300
  C       -1.9961603     0.1030182    -0.1196016
  H        2.0429660     1.5133360    -0.5640360
  H        2.0060190     1.1470430     1.1438410
  H       -0.4967450     1.3515110     1.1569670
  H       -0.5352790     1.6874700    -0.5756840
  H        3.1399490    -1.0742180     0.6982180
  H        3.1613950    -0.7098910    -1.0291440
  H        4.1160350     0.2752530     0.0934100
units angstrom
no_reorient  #important for SAPT in psi4, default
symmetry c1  #important for SAPT in psi4, default
}

set PROPERTIES_ORIGIN ["COM"]
properties('MP2/aug-cc-pvtz', properties = ['dipole'])
--------------------------------------------------------------------------

    Molecular point group: c1
  Charge       = -1
  Multiplicity = 1
  Basis Set: AUG-CC-PVTZ
    Blend: AUG-CC-PVTZ
  Basis Set: (AUG-CC-PVTZ AUX)
    Blend: AUG-CC-PVTZ-JKFIT

    Orbital Energies [Eh]
    ---------------------

    Doubly Occupied:

       1A    -20.401928     2A    -20.345705     3A    -20.259523
       4A    -11.191281     5A    -11.141720     6A    -11.123445
       7A    -11.115838     8A    -11.069210     9A     -1.301012
      10A     -1.230758    11A     -1.012956    12A     -0.942871
      13A     -0.850170    14A     -0.755287    15A     -0.601118
      16A     -0.542942    17A     -0.521339    18A     -0.519458
      19A     -0.492279    20A     -0.456972    21A     -0.440889
      22A     -0.423966    23A     -0.411541    24A     -0.405193
      25A     -0.395598    26A     -0.382375    27A     -0.338845
      28A     -0.272041    29A     -0.207415    30A     -0.180837
      31A     -0.164069

  @DF-RHF Final Energy:  -418.12885037019458

   => Energetics <=

    Nuclear Repulsion Energy =            357.0023814972196305
    One-Electron Energy =               -1291.2653075742214241
    Two-Electron Energy =                 516.1340757068072662
    Total Energy =                       -418.1288503701945274
  Basis Set: (AUG-CC-PVTZ AUX)
    Blend: AUG-CC-PVTZ-RI
    Molecular point group: c1

    Geometry (in Angstrom), charge = -1, multiplicity = 1:

       Center              X                  Y                   Z               Mass
    ------------   -----------------  -----------------  -----------------  -----------------
         O            0.688873685066    -1.136860782653    -0.350318501235    15.994914619570
         O           -2.111448314934    -0.523892782653     1.114234498765    15.994914619570
         O           -2.377694314934     0.190449217347    -1.030104501235    15.994914619570
         C            2.118309685066     0.716564217347     0.177296498765    12.000000000000
         C            0.769158685066     0.044210217347    -0.010406501235    12.000000000000
         C           -0.452139314934     0.916471217347     0.194884498765    12.000000000000
         C            3.298514685066    -0.228073782653    -0.006655501235    12.000000000000
         C           -1.870558614934     0.138065417347    -0.093327101235    12.000000000000
         H            2.168567685066     1.548383217347    -0.537761501235     1.007825032230
         H            2.131620685066     1.182090217347     1.170115498765     1.007825032230
         H           -0.371143314934     1.386558217347     1.183241498765     1.007825032230
         H           -0.409677314934     1.722517217347    -0.549409501235     1.007825032230
         H            3.265550685066    -1.039170782653     0.724492498765     1.007825032230
         H            3.286996685066    -0.674843782653    -1.002869501235     1.007825032230
         H            4.241636685066     0.310300217347     0.119684498765     1.007825032230

  Basis Set: AUG-CC-PVTZ
    Blend: AUG-CC-PVTZ
  Basis Set: (AUG-CC-PVTZ AUX)
    Blend: AUG-CC-PVTZ-JKFIT
	 Reference Energy          =    -418.1288503701945842 [Eh]
	 Singles Energy            =      -0.0000000000000000 [Eh]
	 Same-Spin Energy          =      -0.4147588262654026 [Eh]
	 Opposite-Spin Energy      =      -1.2891738492916676 [Eh]
	 Correlation Energy        =      -1.7039326755570701 [Eh]
	 Total Energy              =    -419.8327830457516825 [Eh]

	 ================> DF-SCS-MP2 Energies <==================
	-----------------------------------------------------------
	 SCS Same-Spin Scale       =       0.3333333333333333 [-]
	 SCS Opposite-Spin Scale   =       1.2000000000000000 [-]
	 SCS Same-Spin Energy      =      -0.1382529420884675 [Eh]
	 SCS Opposite-Spin Energy  =      -1.5470086191500010 [Eh]
	 SCS Correlation Energy    =      -1.6852615612384685 [Eh]
	 SCS Total Energy          =    -419.8141119314330467 [Eh]
	-----------------------------------------------------------

  Dipole Moment: [D]
     X:     9.0539      Y:     3.7839      Z:    -1.3449     Total:     9.9045

*** Psi4 exiting successfully. Buy a developer a beer!
