                               Psi4 1.3.2 release

  ==> Input File <==

--------------------------------------------------------------------------
#psi4
#
memory 32 gb

molecule  {
-1 1
  O        0.5632720    -1.1719080    -0.3765930
  O       -2.2370500    -0.5589400     1.0879600
  O       -2.5032960     0.1554020    -1.0563790
  C        1.9927080     0.6815170     0.1510220
  C        0.6435570     0.0091630    -0.0366810
  C       -0.5777410     0.8814240     0.1686100
  C        3.1729130    -0.2631210    -0.0329300
  C       -1.8931079     0.0774009     0.0764103
  H        2.0429660     1.5133360    -0.5640360
  H        2.0060190     1.1470430     1.1438410
  H       -0.4967450     1.3515110     1.1569670
  H       -0.5179825     1.6924221    -0.5690876
  H        3.1399490    -1.0742180     0.6982180
  H        3.1613950    -0.7098910    -1.0291440
  H        4.1160350     0.2752530     0.0934100
units angstrom
no_reorient  #important for SAPT in psi4, default
symmetry c1  #important for SAPT in psi4, default
}

set PROPERTIES_ORIGIN ["COM"]
properties('MP2/aug-cc-pvtz', properties = ['dipole'])
--------------------------------------------------------------------------

    Molecular point group: c1
  Charge       = -1
  Multiplicity = 1
  Basis Set: AUG-CC-PVTZ
    Blend: AUG-CC-PVTZ
  Basis Set: (AUG-CC-PVTZ AUX)
    Blend: AUG-CC-PVTZ-JKFIT

    Orbital Energies [Eh]
    ---------------------

    Doubly Occupied:

       1A    -20.410319     2A    -20.300735     3A    -20.290431
       4A    -11.199961     5A    -11.146303     6A    -11.130263
       7A    -11.120925     8A    -11.083079     9A     -1.239748
      10A     -1.167144    11A     -1.061343    12A     -0.949954
      13A     -0.868481    14A     -0.766873    15A     -0.611402
      16A     -0.539197    17A     -0.530189    18A     -0.526379
      19A     -0.471579    20A     -0.454217    21A     -0.440205
      22A     -0.411760    23A     -0.407955    24A     -0.403202
      25A     -0.376967    26A     -0.347547    27A     -0.336241
      28A     -0.280539    29A     -0.211990    30A     -0.204711
      31A     -0.192011

  @DF-RHF Final Energy:  -418.19459652810974

   => Energetics <=

    Nuclear Repulsion Energy =            356.7916740713696413
    One-Electron Energy =               -1291.0092349420474420
    Two-Electron Energy =                 516.0229643425680024
    Total Energy =                       -418.1945965281097415
  Basis Set: (AUG-CC-PVTZ AUX)
    Blend: AUG-CC-PVTZ-RI
    Molecular point group: c1

    Geometry (in Angstrom), charge = -1, multiplicity = 1:

       Center              X                  Y                   Z               Mass
    ------------   -----------------  -----------------  -----------------  -----------------
         O            0.677972555996    -1.134231975161    -0.370822679589    15.994914619570
         O           -2.122349444004    -0.521263975161     1.093730320411    15.994914619570
         O           -2.388595444004     0.193078024839    -1.050608679589    15.994914619570
         C            2.107408555996     0.719193024839     0.156792320411    12.000000000000
         C            0.758257555996     0.046839024839    -0.030910679589    12.000000000000
         C           -0.463040444004     0.919100024839     0.174380320411    12.000000000000
         C            3.287613555996    -0.225444975161    -0.027159679589    12.000000000000
         C           -1.778407344004     0.115076924839     0.082180620411    12.000000000000
         H            2.157666555996     1.551012024839    -0.558265679589     1.007825032230
         H            2.120719555996     1.184719024839     1.149611320411     1.007825032230
         H           -0.382044444004     1.389187024839     1.162737320411     1.007825032230
         H           -0.403281944004     1.730098124839    -0.563317279589     1.007825032230
         H            3.254649555996    -1.036541975161     0.703988320411     1.007825032230
         H            3.276095555996    -0.672214975161    -1.023373679589     1.007825032230
         H            4.230735555996     0.312929024839     0.099180320411     1.007825032230

  Basis Set: AUG-CC-PVTZ
    Blend: AUG-CC-PVTZ
  Basis Set: (AUG-CC-PVTZ AUX)
    Blend: AUG-CC-PVTZ-JKFIT
	 Reference Energy          =    -418.1945965281097415 [Eh]
	 Singles Energy            =      -0.0000000000000000 [Eh]
	 Same-Spin Energy          =      -0.4161923988754221 [Eh]
	 Opposite-Spin Energy      =      -1.2924994698381069 [Eh]
	 Correlation Energy        =      -1.7086918687135291 [Eh]
	 Total Energy              =    -419.9032883968232568 [Eh]

	 ================> DF-SCS-MP2 Energies <==================
	-----------------------------------------------------------
	 SCS Same-Spin Scale       =       0.3333333333333333 [-]
	 SCS Opposite-Spin Scale   =       1.2000000000000000 [-]
	 SCS Same-Spin Energy      =      -0.1387307996251407 [Eh]
	 SCS Opposite-Spin Energy  =      -1.5509993638057282 [Eh]
	 SCS Correlation Energy    =      -1.6897301634308690 [Eh]
	 SCS Total Energy          =    -419.8843266915405934 [Eh]
	-----------------------------------------------------------

  Dipole Moment: [D]
     X:    10.0299      Y:     3.3775      Z:     0.8889     Total:    10.6206

*** Psi4 exiting successfully. Buy a developer a beer!
