                               Psi4 1.3.2 release

  ==> Input File <==

--------------------------------------------------------------------------
#psi4
#
memory 32 gb

molecule  {
-1 1
  O        0.6062124    -1.1738302    -0.3773379
  O       -2.2370500    -0.5589400     1.0879600
  O       -2.5032960     0.1554020    -1.0563790
  C        2.0162471     0.6358914     0.1377724
  C        0.6435570     0.0091630    -0.0366810
  C       -0.5777410     0.8814240     0.1686100
  C        3.1729130    -0.2631210    -0.0329300
  C       -1.9010600     0.0931950     0.0560670
  H        2.0429660     1.5133360    -0.5640360
  H        2.0060190     1.1470430     1.1438410
  H       -0.4967450     1.3515110     1.1569670
  H       -0.5352790     1.6874700    -0.5756840
  H        3.1399490    -1.0742180     0.6982180
  H        3.1613950    -0.7098910    -1.0291440
  H        4.1160350     0.2752530     0.0934100
units angstrom
no_reorient  #important for SAPT in psi4, default
symmetry c1  #important for SAPT in psi4, default
}

set PROPERTIES_ORIGIN ["COM"]
properties('MP2/aug-cc-pvtz', properties = ['dipole'])
--------------------------------------------------------------------------

    Molecular point group: c1
  Charge       = -1
  Multiplicity = 1
  Basis Set: AUG-CC-PVTZ
    Blend: AUG-CC-PVTZ
  Basis Set: (AUG-CC-PVTZ AUX)
    Blend: AUG-CC-PVTZ-JKFIT

    Orbital Energies [Eh]
    ---------------------

    Doubly Occupied:

       1A    -20.408712     2A    -20.298114     3A    -20.296351
       4A    -11.200217     5A    -11.148168     6A    -11.130955
       7A    -11.117835     8A    -11.086224     9A     -1.239950
      10A     -1.165626    11A     -1.065633    12A     -0.953727
      13A     -0.871592    14A     -0.764197    15A     -0.608429
      16A     -0.540889    17A     -0.531847    18A     -0.522468
      19A     -0.473246    20A     -0.456235    21A     -0.444921
      22A     -0.419063    23A     -0.403397    24A     -0.398036
      25A     -0.372506    26A     -0.345771    27A     -0.337520
      28A     -0.280174    29A     -0.211871    30A     -0.209070
      31A     -0.193968

  @DF-RHF Final Energy:  -418.19216648447133

   => Energetics <=

    Nuclear Repulsion Energy =            356.8468499375971419
    One-Electron Energy =               -1291.0846092059182411
    Two-Electron Energy =                 516.0455927838497701
    Total Energy =                       -418.1921664844712723
  Basis Set: (AUG-CC-PVTZ AUX)
    Blend: AUG-CC-PVTZ-RI
    Molecular point group: c1

    Geometry (in Angstrom), charge = -1, multiplicity = 1:

       Center              X                  Y                   Z               Mass
    ------------   -----------------  -----------------  -----------------  -----------------
         O            0.713468208375    -1.132731748864    -0.367902078966    15.994914619570
         O           -2.129794191625    -0.517841548864     1.097395821034    15.994914619570
         O           -2.396040191625     0.196500451136    -1.046943178966    15.994914619570
         C            2.123502908375     0.676989851136     0.147208221034    12.000000000000
         C            0.750812808375     0.050261451136    -0.027245178966    12.000000000000
         C           -0.470485191625     0.922522451136     0.178045821034    12.000000000000
         C            3.280168808375    -0.222022548864    -0.023494178966    12.000000000000
         C           -1.793804191625     0.134293451136     0.065502821034    12.000000000000
         H            2.150221808375     1.554434451136    -0.554600178966     1.007825032230
         H            2.113274808375     1.188141451136     1.153276821034     1.007825032230
         H           -0.389489191625     1.392609451136     1.166402821034     1.007825032230
         H           -0.428023191625     1.728568451136    -0.566248178966     1.007825032230
         H            3.247204808375    -1.033119548864     0.707653821034     1.007825032230
         H            3.268650808375    -0.668792548864    -1.019708178966     1.007825032230
         H            4.223290808375     0.316351451136     0.102845821034     1.007825032230

  Basis Set: AUG-CC-PVTZ
    Blend: AUG-CC-PVTZ
  Basis Set: (AUG-CC-PVTZ AUX)
    Blend: AUG-CC-PVTZ-JKFIT
	 Reference Energy          =    -418.1921664844713291 [Eh]
	 Singles Energy            =      -0.0000000000000000 [Eh]
	 Same-Spin Energy          =      -0.4165786784508944 [Eh]
	 Opposite-Spin Energy      =      -1.2929343119552157 [Eh]
	 Correlation Energy        =      -1.7095129904061102 [Eh]
	 Total Energy              =    -419.9016794748774259 [Eh]

	 ================> DF-SCS-MP2 Energies <==================
	-----------------------------------------------------------
	 SCS Same-Spin Scale       =       0.3333333333333333 [-]
	 SCS Opposite-Spin Scale   =       1.2000000000000000 [-]
	 SCS Same-Spin Energy      =      -0.1388595594836314 [Eh]
	 SCS Opposite-Spin Energy  =      -1.5515211743462587 [Eh]
	 SCS Correlation Energy    =      -1.6903807338298902 [Eh]
	 SCS Total Energy          =    -419.8825472183012266 [Eh]
	-----------------------------------------------------------

  Dipole Moment: [D]
     X:     9.9010      Y:     3.4275      Z:     0.6239     Total:    10.4960

*** Psi4 exiting successfully. Buy a developer a beer!
