                               Psi4 1.3.2 release

  ==> Input File <==

--------------------------------------------------------------------------
#psi4
#
memory 32 gb

molecule  {
-1 1
  O        0.5632720    -1.1719080    -0.3765930
  O       -2.2191012    -0.5513407     1.0983702
  O       -2.4875682     0.1689843    -1.0639143
  C        1.9927080     0.6815170     0.1510220
  C        0.6435570     0.0091630    -0.0366810
  C       -0.5777410     0.8814240     0.1686100
  C        3.1729130    -0.2631210    -0.0329300
  C       -1.9010600     0.0931950     0.0560670
  H        2.0429660     1.5133360    -0.5640360
  H        2.0060190     1.1470430     1.1438410
  H       -0.4967450     1.3515110     1.1569670
  H       -0.5352790     1.6874700    -0.5756840
  H        3.1399490    -1.0742180     0.6982180
  H        3.1613950    -0.7098910    -1.0291440
  H        4.1160350     0.2752530     0.0934100
units angstrom
no_reorient  #important for SAPT in psi4, default
symmetry c1  #important for SAPT in psi4, default
}

set PROPERTIES_ORIGIN ["COM"]
properties('MP2/aug-cc-pvtz', properties = ['dipole'])
--------------------------------------------------------------------------

    Molecular point group: c1
  Charge       = -1
  Multiplicity = 1
  Basis Set: AUG-CC-PVTZ
    Blend: AUG-CC-PVTZ
  Basis Set: (AUG-CC-PVTZ AUX)
    Blend: AUG-CC-PVTZ-JKFIT

    Orbital Energies [Eh]
    ---------------------

    Doubly Occupied:

       1A    -20.409154     2A    -20.298457     3A    -20.296661
       4A    -11.198901     5A    -11.147226     6A    -11.129361
       7A    -11.120225     8A    -11.080317     9A     -1.238514
      10A     -1.164323    11A     -1.067766    12A     -0.948942
      13A     -0.866348    14A     -0.765846    15A     -0.610679
      16A     -0.537895    17A     -0.528983    18A     -0.525448
      19A     -0.470732    20A     -0.453659    21A     -0.439192
      22A     -0.410325    23A     -0.407036    24A     -0.403497
      25A     -0.378117    26A     -0.346259    27A     -0.336555
      28A     -0.279210    29A     -0.213704    30A     -0.205334
      31A     -0.195012

  @DF-RHF Final Energy:  -418.19574166778222

   => Energetics <=

    Nuclear Repulsion Energy =            356.9343990909668491
    One-Electron Energy =               -1291.3129275015207895
    Two-Electron Energy =                 516.1827867427717820
    Total Energy =                       -418.1957416677821584
  Basis Set: (AUG-CC-PVTZ AUX)
    Blend: AUG-CC-PVTZ-RI
    Molecular point group: c1

    Geometry (in Angstrom), charge = -1, multiplicity = 1:

       Center              X                  Y                   Z               Mass
    ------------   -----------------  -----------------  -----------------  -----------------
         O            0.674271242748    -1.138781161713    -0.369042562299    15.994914619570
         O           -2.108101957252    -0.518213861713     1.105920637701    15.994914619570
         O           -2.376568957252     0.202111138287    -1.056363862299    15.994914619570
         C            2.103707242748     0.714643838287     0.158572437701    12.000000000000
         C            0.754556242748     0.042289838287    -0.029130562299    12.000000000000
         C           -0.466741757252     0.914550838287     0.176160437701    12.000000000000
         C            3.283912242748    -0.229994161713    -0.025379562299    12.000000000000
         C           -1.790060757252     0.126321838287     0.063617437701    12.000000000000
         H            2.153965242748     1.546462838287    -0.556485562299     1.007825032230
         H            2.117018242748     1.180169838287     1.151391437701     1.007825032230
         H           -0.385745757252     1.384637838287     1.164517437701     1.007825032230
         H           -0.424279757252     1.720596838287    -0.568133562299     1.007825032230
         H            3.250948242748    -1.041091161713     0.705768437701     1.007825032230
         H            3.272394242748    -0.676764161713    -1.021593562299     1.007825032230
         H            4.227034242748     0.308379838287     0.100960437701     1.007825032230

  Basis Set: AUG-CC-PVTZ
    Blend: AUG-CC-PVTZ
  Basis Set: (AUG-CC-PVTZ AUX)
    Blend: AUG-CC-PVTZ-JKFIT
	 Reference Energy          =    -418.1957416677822152 [Eh]
	 Singles Energy            =      -0.0000000000000000 [Eh]
	 Same-Spin Energy          =      -0.4162481508040247 [Eh]
	 Opposite-Spin Energy      =      -1.2926041938206332 [Eh]
	 Correlation Energy        =      -1.7088523446246580 [Eh]
	 Total Energy              =    -419.9045940124068466 [Eh]

	 ================> DF-SCS-MP2 Energies <==================
	-----------------------------------------------------------
	 SCS Same-Spin Scale       =       0.3333333333333333 [-]
	 SCS Opposite-Spin Scale   =       1.2000000000000000 [-]
	 SCS Same-Spin Energy      =      -0.1387493836013416 [Eh]
	 SCS Opposite-Spin Energy  =      -1.5511250325847599 [Eh]
	 SCS Correlation Energy    =      -1.6898744161861015 [Eh]
	 SCS Total Energy          =    -419.8856160839683298 [Eh]
	-----------------------------------------------------------

  Dipole Moment: [D]
     X:     9.8737      Y:     3.4065      Z:     0.6276     Total:    10.4636

*** Psi4 exiting successfully. Buy a developer a beer!
