                               Psi4 1.3.2 release

  ==> Input File <==

--------------------------------------------------------------------------
#psi4
#
memory 32 gb

molecule  {
-1 1
  O        0.5632720    -1.1719080    -0.3765930
  O       -2.2461280    -0.5624467     1.0827288
  O       -2.5032960     0.1554020    -1.0563790
  C        1.9927080     0.6815170     0.1510220
  C        0.6435570     0.0091630    -0.0366810
  C       -0.5793420     0.8858022     0.1559646
  C        3.1729130    -0.2631210    -0.0329300
  C       -1.9010600     0.0931950     0.0560670
  H        2.0429660     1.5133360    -0.5640360
  H        2.0060190     1.1470430     1.1438410
  H       -0.4967450     1.3515110     1.1569670
  H       -0.5352790     1.6874700    -0.5756840
  H        3.1399490    -1.0742180     0.6982180
  H        3.1613950    -0.7098910    -1.0291440
  H        4.1160350     0.2752530     0.0934100
units angstrom
no_reorient  #important for SAPT in psi4, default
symmetry c1  #important for SAPT in psi4, default
}

set PROPERTIES_ORIGIN ["COM"]
properties('MP2/aug-cc-pvtz', properties = ['dipole'])
--------------------------------------------------------------------------

    Molecular point group: c1
  Charge       = -1
  Multiplicity = 1
  Basis Set: AUG-CC-PVTZ
    Blend: AUG-CC-PVTZ
  Basis Set: (AUG-CC-PVTZ AUX)
    Blend: AUG-CC-PVTZ-JKFIT

    Orbital Energies [Eh]
    ---------------------

    Doubly Occupied:

       1A    -20.410544     2A    -20.295496     3A    -20.294567
       4A    -11.200431     5A    -11.145907     6A    -11.130525
       7A    -11.121048     8A    -11.083423     9A     -1.239740
      10A     -1.163765    11A     -1.063000    12A     -0.950023
      13A     -0.868287    14A     -0.767234    15A     -0.611843
      16A     -0.538404    17A     -0.530174    18A     -0.526446
      19A     -0.471590    20A     -0.455019    21A     -0.439458
      22A     -0.410898    23A     -0.407931    24A     -0.403422
      25A     -0.376960    26A     -0.347634    27A     -0.335381
      28A     -0.280365    29A     -0.209397    30A     -0.207522
      31A     -0.191854

  @DF-RHF Final Energy:  -418.19524124053032

   => Energetics <=

    Nuclear Repulsion Energy =            356.6203634124221935
    One-Electron Energy =               -1290.6746373008445516
    Two-Electron Energy =                 515.8590326478920360
    Total Energy =                       -418.1952412405303221
  Basis Set: (AUG-CC-PVTZ AUX)
    Blend: AUG-CC-PVTZ-RI
    Molecular point group: c1

    Geometry (in Angstrom), charge = -1, multiplicity = 1:

       Center              X                  Y                   Z               Mass
    ------------   -----------------  -----------------  -----------------  -----------------
         O            0.680382778872    -1.135805237845    -0.366596436136    15.994914619570
         O           -2.129017221128    -0.526343937845     1.092725363864    15.994914619570
         O           -2.386185221128     0.191504762155    -1.046382436136    15.994914619570
         C            2.109818778872     0.717619762155     0.161018563864    12.000000000000
         C            0.760667778872     0.045265762155    -0.026684436136    12.000000000000
         C           -0.462231221128     0.921904962155     0.165961163864    12.000000000000
         C            3.290023778872    -0.227018237845    -0.022933436136    12.000000000000
         C           -1.783949221128     0.129297762155     0.066063563864    12.000000000000
         H            2.160076778872     1.549438762155    -0.554039436136     1.007825032230
         H            2.123129778872     1.183145762155     1.153837563864     1.007825032230
         H           -0.379634221128     1.387613762155     1.166963563864     1.007825032230
         H           -0.418168221128     1.723572762155    -0.565687436136     1.007825032230
         H            3.257059778872    -1.038115237845     0.708214563864     1.007825032230
         H            3.278505778872    -0.673788237845    -1.019147436136     1.007825032230
         H            4.233145778872     0.311355762155     0.103406563864     1.007825032230

  Basis Set: AUG-CC-PVTZ
    Blend: AUG-CC-PVTZ
  Basis Set: (AUG-CC-PVTZ AUX)
    Blend: AUG-CC-PVTZ-JKFIT
	 Reference Energy          =    -418.1952412405303221 [Eh]
	 Singles Energy            =      -0.0000000000000000 [Eh]
	 Same-Spin Energy          =      -0.4161654354926715 [Eh]
	 Opposite-Spin Energy      =      -1.2925159566112856 [Eh]
	 Correlation Energy        =      -1.7086813921039572 [Eh]
	 Total Energy              =    -419.9039226326343055 [Eh]

	 ================> DF-SCS-MP2 Energies <==================
	-----------------------------------------------------------
	 SCS Same-Spin Scale       =       0.3333333333333333 [-]
	 SCS Opposite-Spin Scale   =       1.2000000000000000 [-]
	 SCS Same-Spin Energy      =      -0.1387218118308905 [Eh]
	 SCS Opposite-Spin Energy  =      -1.5510191479335427 [Eh]
	 SCS Correlation Energy    =      -1.6897409597644333 [Eh]
	 SCS Total Energy          =    -419.8849822002947576 [Eh]
	-----------------------------------------------------------

  Dipole Moment: [D]
     X:    10.0260      Y:     3.4707      Z:     0.6256     Total:    10.6281

*** Psi4 exiting successfully. Buy a developer a beer!
