                               Psi4 1.3.2 release

  ==> Input File <==

--------------------------------------------------------------------------
#psi4
#
memory 32 gb

molecule  {
-1 1
  O        0.5632720    -1.1719080    -0.3765930
  O       -2.2370500    -0.5589400     1.0879600
  O       -2.5032960     0.1554020    -1.0563790
  C        1.9927080     0.6815170     0.1510220
  C        0.6435570     0.0091630    -0.0366810
  C       -0.5777410     0.8814240     0.1686100
  C        3.1729130    -0.2631210    -0.0329300
  C       -1.8059597     0.0833718     0.2317356
  H        2.0429660     1.5133360    -0.5640360
  H        2.0060190     1.1470430     1.1438410
  H       -0.4967450     1.3515110     1.1569670
  H       -0.5352790     1.6874700    -0.5756840
  H        3.1399490    -1.0742180     0.6982180
  H        3.1613950    -0.7098910    -1.0291440
  H        4.1160350     0.2752530     0.0934100
units angstrom
no_reorient  #important for SAPT in psi4, default
symmetry c1  #important for SAPT in psi4, default
}

set PROPERTIES_ORIGIN ["COM"]
properties('MP2/aug-cc-pvtz', properties = ['dipole'])
--------------------------------------------------------------------------

    Molecular point group: c1
  Charge       = -1
  Multiplicity = 1
  Basis Set: AUG-CC-PVTZ
    Blend: AUG-CC-PVTZ
  Basis Set: (AUG-CC-PVTZ AUX)
    Blend: AUG-CC-PVTZ-JKFIT

    Orbital Energies [Eh]
    ---------------------

    Doubly Occupied:

       1A    -20.417011     2A    -20.333190     3A    -20.253394
       4A    -11.207207     5A    -11.143930     6A    -11.135045
       7A    -11.124424     8A    -11.092563     9A     -1.247232
      10A     -1.224126    11A     -0.979665    12A     -0.954275
      13A     -0.883554    14A     -0.776731    15A     -0.623100
      16A     -0.556090    17A     -0.538590    18A     -0.530762
      19A     -0.484215    20A     -0.464013    21A     -0.457798
      22A     -0.423628    23A     -0.412943    24A     -0.405939
      25A     -0.372420    26A     -0.359671    27A     -0.346202
      28A     -0.287624    29A     -0.197434    30A     -0.168625
      31A     -0.159984

  @DF-RHF Final Energy:  -418.14071612684484

   => Energetics <=

    Nuclear Repulsion Energy =            357.3540270178256151
    One-Electron Energy =               -1291.8667176209387435
    Two-Electron Energy =                 516.3719744762682922
    Total Energy =                       -418.1407161268448363
  Basis Set: (AUG-CC-PVTZ AUX)
    Blend: AUG-CC-PVTZ-RI
    Molecular point group: c1

    Geometry (in Angstrom), charge = -1, multiplicity = 1:

       Center              X                  Y                   Z               Mass
    ------------   -----------------  -----------------  -----------------  -----------------
         O            0.669033483906    -1.134811427771    -0.386967180173    15.994914619570
         O           -2.131288516094    -0.521843427771     1.077585819827    15.994914619570
         O           -2.397534516094     0.192498572229    -1.066753180173    15.994914619570
         C            2.098469483906     0.718613572229     0.140647819827    12.000000000000
         C            0.749318483906     0.046259572229    -0.047055180173    12.000000000000
         C           -0.471979516094     0.918520572229     0.158235819827    12.000000000000
         C            3.278674483906    -0.226024427771    -0.043304180173    12.000000000000
         C           -1.700198216094     0.120468372229     0.221361419827    12.000000000000
         H            2.148727483906     1.550432572229    -0.574410180173     1.007825032230
         H            2.111780483906     1.184139572229     1.133466819827     1.007825032230
         H           -0.390983516094     1.388607572229     1.146592819827     1.007825032230
         H           -0.429517516094     1.724566572229    -0.586058180173     1.007825032230
         H            3.245710483906    -1.037121427771     0.687843819827     1.007825032230
         H            3.267156483906    -0.672794427771    -1.039518180173     1.007825032230
         H            4.221796483906     0.312349572229     0.083035819827     1.007825032230

  Basis Set: AUG-CC-PVTZ
    Blend: AUG-CC-PVTZ
  Basis Set: (AUG-CC-PVTZ AUX)
    Blend: AUG-CC-PVTZ-JKFIT
	 Reference Energy          =    -418.1407161268448363 [Eh]
	 Singles Energy            =      -0.0000000000000000 [Eh]
	 Same-Spin Energy          =      -0.4182122561001452 [Eh]
	 Opposite-Spin Energy      =      -1.2973625360076495 [Eh]
	 Correlation Energy        =      -1.7155747921077946 [Eh]
	 Total Energy              =    -419.8562909189526522 [Eh]

	 ================> DF-SCS-MP2 Energies <==================
	-----------------------------------------------------------
	 SCS Same-Spin Scale       =       0.3333333333333333 [-]
	 SCS Opposite-Spin Scale   =       1.2000000000000000 [-]
	 SCS Same-Spin Energy      =      -0.1394040853667151 [Eh]
	 SCS Opposite-Spin Energy  =      -1.5568350432091793 [Eh]
	 SCS Correlation Energy    =      -1.6962391285758944 [Eh]
	 SCS Total Energy          =    -419.8369552554207189 [Eh]
	-----------------------------------------------------------

  Dipole Moment: [D]
     X:    10.8369      Y:     3.0838      Z:     2.4185     Total:    11.5238

*** Psi4 exiting successfully. Buy a developer a beer!
