                               Psi4 1.4a3.dev225

  ==> Input File <==

--------------------------------------------------------------------------
#psi4
#
memory 32 gb

molecule  {
-1 1
  O        1.0745520     1.3418620    -0.8745480
  O       -1.1230780    -1.1034960    -0.8170800
  O       -2.9206860    -0.1812610     0.2330210
  C        1.4738630    -0.3704550     0.7611780
  C        0.6286860     0.6706690     0.0605170
  C       -0.8267188     0.8453958     0.5698107
  C        2.7202340    -0.7612590    -0.0182770
  C       -1.7002430    -0.2566580    -0.0711330
  H        1.7414500     0.0432240     1.7443780
  H        0.8355880    -1.2371210     0.9565080
  H       -0.8294850     0.7587360     1.6458800
  H       -1.1523820     1.8284630     0.2671350
  H        2.4446610    -1.1885100    -0.9860420
  H        3.3521650     0.1095510    -0.2043800
  H        3.3054110    -1.5035610     0.5312540
units angstrom
no_reorient  #important for SAPT in psi4, default
symmetry c1  #important for SAPT in psi4, default
}

set PROPERTIES_ORIGIN ["COM"]
properties('MP2/aug-cc-pvtz', properties = ['dipole'])
--------------------------------------------------------------------------

    Molecular point group: c1
  Charge       = -1
  Multiplicity = 1
  Basis Set: AUG-CC-PVTZ
    Blend: AUG-CC-PVTZ
  Basis Set: (AUG-CC-PVTZ AUX)
    Blend: AUG-CC-PVTZ-JKFIT

    Orbital Energies [Eh]
    ---------------------

    Doubly Occupied:

       1A    -20.400829     2A    -20.314009     3A    -20.309037
       4A    -11.191386     5A    -11.161824     6A    -11.108094
       7A    -11.102365     8A    -11.080867     9A     -1.229688
      10A     -1.182717    11A     -1.083600    12A     -0.931162
      13A     -0.858798    14A     -0.753577    15A     -0.598539
      16A     -0.547836    17A     -0.512305    18A     -0.504115
      19A     -0.478271    20A     -0.450554    21A     -0.443743
      22A     -0.409099    23A     -0.399752    24A     -0.389686
      25A     -0.378660    26A     -0.350363    27A     -0.338521
      28A     -0.272803    29A     -0.229714    30A     -0.214795
      31A     -0.210645

  @DF-RHF Final Energy:  -418.20746301626093

   => Energetics <=

    Nuclear Repulsion Energy =            362.0919823814455185
    One-Electron Energy =               -1301.7241863443762213
    Two-Electron Energy =                 521.4247409466697718
    Total Energy =                       -418.2074630162609310
  Basis Set: (AUG-CC-PVTZ AUX)
    Blend: AUG-CC-PVTZ-RI
    Molecular point group: c1

    Geometry (in Angstrom), charge = -1, multiplicity = 1:

       Center              X                  Y                   Z               Mass
    ------------   -----------------  -----------------  -----------------  -----------------
         O            1.162948992427     1.331020686162    -0.842215918426    15.994914619570
         O           -1.034681007573    -1.114337313838    -0.784747918426    15.994914619570
         O           -2.832289007573    -0.192102313838     0.265353081574    15.994914619570
         C            1.562259992427    -0.381296313838     0.793510081574    12.000000000000
         C            0.717082992427     0.659827686162     0.092849081574    12.000000000000
         C           -0.738321807573     0.834554486162     0.602142781574    12.000000000000
         C            2.808630992427    -0.772100313838     0.014055081574    12.000000000000
         C           -1.611846007573    -0.267499313838    -0.038800918426    12.000000000000
         H            1.829846992427     0.032382686162     1.776710081574     1.007825032230
         H            0.923984992427    -1.247962313838     0.988840081574     1.007825032230
         H           -0.741088007573     0.747894686162     1.678212081574     1.007825032230
         H           -1.063985007573     1.817621686162     0.299467081574     1.007825032230
         H            2.533057992427    -1.199351313838    -0.953709918426     1.007825032230
         H            3.440561992427     0.098709686162    -0.172047918426     1.007825032230
         H            3.393807992427    -1.514402313838     0.563586081574     1.007825032230

  Basis Set: AUG-CC-PVTZ
    Blend: AUG-CC-PVTZ
  Basis Set: (AUG-CC-PVTZ AUX)
    Blend: AUG-CC-PVTZ-JKFIT
	 Reference Energy          =    -418.2074630162609310 [Eh]
	 Singles Energy            =      -0.0000000000000000 [Eh]
	 Same-Spin Energy          =      -0.4163970602877681 [Eh]
	 Opposite-Spin Energy      =      -1.2920901885301022 [Eh]
	 Correlation Energy        =      -1.7084872488178702 [Eh]
	 Total Energy              =    -419.9159502650787772 [Eh]

	 ================> DF-SCS-MP2 Energies <==================
	-----------------------------------------------------------
	 SCS Same-Spin Scale       =       0.3333333333333333 [-]
	 SCS Opposite-Spin Scale   =       1.2000000000000000 [-]
	 SCS Same-Spin Energy      =      -0.1387990200959227 [Eh]
	 SCS Opposite-Spin Energy  =      -1.5505082262361225 [Eh]
	 SCS Correlation Energy    =      -1.6893072463320451 [Eh]
	 SCS Total Energy          =    -419.8967702625929519 [Eh]
	-----------------------------------------------------------

  Dipole Moment: [D]
     X:     6.8096      Y:     1.2950      Z:     3.2008     Total:     7.6349

*** Psi4 exiting successfully. Buy a developer a beer!
