                               Psi4 1.3.2 release

  ==> Input File <==

--------------------------------------------------------------------------
#psi4
#
memory 32 gb

molecule  {
-1 1
  O        0.5632720    -1.1719080    -0.3765930
  O       -2.2370500    -0.5589400     1.0879600
  O       -2.5032960     0.1554020    -1.0563790
  C        1.9927080     0.6815170     0.1510220
  C        0.6435570     0.0091630    -0.0366810
  C       -0.5777410     0.8814240     0.1686100
  C        3.1729130    -0.2631210    -0.0329300
  C       -1.8479846     0.1962109    -0.1069383
  H        2.0429660     1.5133360    -0.5640360
  H        2.0060190     1.1470430     1.1438410
  H       -0.4967450     1.3515110     1.1569670
  H       -0.5352790     1.6874700    -0.5756840
  H        3.1399490    -1.0742180     0.6982180
  H        3.1613950    -0.7098910    -1.0291440
  H        4.1160350     0.2752530     0.0934100
units angstrom
no_reorient  #important for SAPT in psi4, default
symmetry c1  #important for SAPT in psi4, default
}

set PROPERTIES_ORIGIN ["COM"]
properties('MP2/aug-cc-pvtz', properties = ['dipole'])
--------------------------------------------------------------------------

    Molecular point group: c1
  Charge       = -1
  Multiplicity = 1
  Basis Set: AUG-CC-PVTZ
    Blend: AUG-CC-PVTZ
  Basis Set: (AUG-CC-PVTZ AUX)
    Blend: AUG-CC-PVTZ-JKFIT

    Orbital Energies [Eh]
    ---------------------

    Doubly Occupied:

       1A    -20.414327     2A    -20.335811     3A    -20.251523
       4A    -11.206011     5A    -11.144554     6A    -11.134240
       7A    -11.123366     8A    -11.092800     9A     -1.244089
      10A     -1.225295    11A     -0.979740    12A     -0.952980
      13A     -0.881274    14A     -0.775802    15A     -0.623317
      16A     -0.554203    17A     -0.536282    18A     -0.529474
      19A     -0.483242    20A     -0.463200    21A     -0.456812
      22A     -0.423592    23A     -0.411589    24A     -0.405624
      25A     -0.372683    26A     -0.357236    27A     -0.347478
      28A     -0.284671    29A     -0.197857    30A     -0.167500
      31A     -0.159415

  @DF-RHF Final Energy:  -418.14070663831103

   => Energetics <=

    Nuclear Repulsion Energy =            357.0095927232326858
    One-Electron Energy =               -1291.2286233758115941
    Two-Electron Energy =                 516.0783240142678778
    Total Energy =                       -418.1407066383110305
  Basis Set: (AUG-CC-PVTZ AUX)
    Blend: AUG-CC-PVTZ-RI
    Molecular point group: c1

    Geometry (in Angstrom), charge = -1, multiplicity = 1:

       Center              X                  Y                   Z               Mass
    ------------   -----------------  -----------------  -----------------  -----------------
         O            0.673417184429    -1.146581897700    -0.351639435130    15.994914619570
         O           -2.126904815571    -0.533613897700     1.112913564870    15.994914619570
         O           -2.393150815571     0.180728102300    -1.031425435130    15.994914619570
         C            2.102853184429     0.706843102300     0.175975564870    12.000000000000
         C            0.753702184429     0.034489102300    -0.011727435130    12.000000000000
         C           -0.467595815571     0.906750102300     0.193563564870    12.000000000000
         C            3.283058184429    -0.237794897700    -0.007976435130    12.000000000000
         C           -1.737839415571     0.221537002300    -0.081984735130    12.000000000000
         H            2.153111184429     1.538662102300    -0.539082435130     1.007825032230
         H            2.116164184429     1.172369102300     1.168794564870     1.007825032230
         H           -0.386599815571     1.376837102300     1.181920564870     1.007825032230
         H           -0.425133815571     1.712796102300    -0.550730435130     1.007825032230
         H            3.250094184429    -1.048891897700     0.723171564870     1.007825032230
         H            3.271540184429    -0.684564897700    -1.004190435130     1.007825032230
         H            4.226180184429     0.300579102300     0.118363564870     1.007825032230

  Basis Set: AUG-CC-PVTZ
    Blend: AUG-CC-PVTZ
  Basis Set: (AUG-CC-PVTZ AUX)
    Blend: AUG-CC-PVTZ-JKFIT
	 Reference Energy          =    -418.1407066383110305 [Eh]
	 Singles Energy            =      -0.0000000000000000 [Eh]
	 Same-Spin Energy          =      -0.4181591215257208 [Eh]
	 Opposite-Spin Energy      =      -1.2974022092419810 [Eh]
	 Correlation Energy        =      -1.7155613307677018 [Eh]
	 Total Energy              =    -419.8562679690787149 [Eh]

	 ================> DF-SCS-MP2 Energies <==================
	-----------------------------------------------------------
	 SCS Same-Spin Scale       =       0.3333333333333333 [-]
	 SCS Opposite-Spin Scale   =       1.2000000000000000 [-]
	 SCS Same-Spin Energy      =      -0.1393863738419069 [Eh]
	 SCS Opposite-Spin Energy  =      -1.5568826510903773 [Eh]
	 SCS Correlation Energy    =      -1.6962690249322843 [Eh]
	 SCS Total Energy          =    -419.8369756632433223 [Eh]
	-----------------------------------------------------------

  Dipole Moment: [D]
     X:    10.3551      Y:     4.2218      Z:    -1.1265     Total:    11.2392

*** Psi4 exiting successfully. Buy a developer a beer!
