                               Psi4 1.3.2 release

  ==> Input File <==

--------------------------------------------------------------------------
#psi4
#
memory 32 gb

molecule  {
-1 1
  O        0.5632720    -1.1719080    -0.3765930
  O       -2.2370500    -0.5589400     1.0879600
  O       -2.5032960     0.1554020    -1.0563790
  C        2.0046809     0.6585508     0.1453572
  C        0.6435570     0.0091630    -0.0366810
  C       -0.5931905     0.8606757     0.1631544
  C        3.1729130    -0.2631210    -0.0329300
  C       -1.9010600     0.0931950     0.0560670
  H        2.0429660     1.5133360    -0.5640360
  H        2.0060190     1.1470430     1.1438410
  H       -0.4967450     1.3515110     1.1569670
  H       -0.5352790     1.6874700    -0.5756840
  H        3.1399490    -1.0742180     0.6982180
  H        3.1613950    -0.7098910    -1.0291440
  H        4.1160350     0.2752530     0.0934100
units angstrom
no_reorient  #important for SAPT in psi4, default
symmetry c1  #important for SAPT in psi4, default
}

set PROPERTIES_ORIGIN ["COM"]
properties('MP2/aug-cc-pvtz', properties = ['dipole'])
--------------------------------------------------------------------------

    Molecular point group: c1
  Charge       = -1
  Multiplicity = 1
  Basis Set: AUG-CC-PVTZ
    Blend: AUG-CC-PVTZ
  Basis Set: (AUG-CC-PVTZ AUX)
    Blend: AUG-CC-PVTZ-JKFIT

    Orbital Energies [Eh]
    ---------------------

    Doubly Occupied:

       1A    -20.408712     2A    -20.296252     3A    -20.294388
       4A    -11.199985     5A    -11.144836     6A    -11.132503
       7A    -11.120653     8A    -11.085635     9A     -1.239393
      10A     -1.164668    11A     -1.064179    12A     -0.952689
      13A     -0.869284    14A     -0.767297    15A     -0.611895
      16A     -0.542156    17A     -0.530686    18A     -0.524742
      19A     -0.470728    20A     -0.452324    21A     -0.442774
      22A     -0.417200    23A     -0.406524    24A     -0.400917
      25A     -0.373481    26A     -0.344205    27A     -0.334999
      28A     -0.279576    29A     -0.210320    30A     -0.209557
      31A     -0.192273

  @DF-RHF Final Energy:  -418.19365009648413

   => Energetics <=

    Nuclear Repulsion Energy =            357.1536217352225435
    One-Electron Energy =               -1291.7248869601328352
    Two-Electron Energy =                 516.3776151284262141
    Total Energy =                       -418.1936500964841343
  Basis Set: (AUG-CC-PVTZ AUX)
    Blend: AUG-CC-PVTZ-RI
    Molecular point group: c1

    Geometry (in Angstrom), charge = -1, multiplicity = 1:

       Center              X                  Y                   Z               Mass
    ------------   -----------------  -----------------  -----------------  -----------------
         O            0.679316235515    -1.131276159167    -0.367482849763    15.994914619570
         O           -2.121005764485    -0.518308159167     1.097070150237    15.994914619570
         O           -2.387251764485     0.196033840833    -1.047268849763    15.994914619570
         C            2.120725135515     0.699182640833     0.154467350237    12.000000000000
         C            0.759601235515     0.049794840833    -0.027570849763    12.000000000000
         C           -0.477146264485     0.901307540833     0.172264550237    12.000000000000
         C            3.288957235515    -0.222489159167    -0.023819849763    12.000000000000
         C           -1.785015764485     0.133826840833     0.065177150237    12.000000000000
         H            2.159010235515     1.553967840833    -0.554925849763     1.007825032230
         H            2.122063235515     1.187674840833     1.152951150237     1.007825032230
         H           -0.380700764485     1.392142840833     1.166077150237     1.007825032230
         H           -0.419234764485     1.728101840833    -0.566573849763     1.007825032230
         H            3.255993235515    -1.033586159167     0.707328150237     1.007825032230
         H            3.277439235515    -0.669259159167    -1.020033849763     1.007825032230
         H            4.232079235515     0.315884840833     0.102520150237     1.007825032230

  Basis Set: AUG-CC-PVTZ
    Blend: AUG-CC-PVTZ
  Basis Set: (AUG-CC-PVTZ AUX)
    Blend: AUG-CC-PVTZ-JKFIT
	 Reference Energy          =    -418.1936500964841343 [Eh]
	 Singles Energy            =      -0.0000000000000000 [Eh]
	 Same-Spin Energy          =      -0.4164452158277689 [Eh]
	 Opposite-Spin Energy      =      -1.2928574796157255 [Eh]
	 Correlation Energy        =      -1.7093026954434944 [Eh]
	 Total Energy              =    -419.9029527919276461 [Eh]

	 ================> DF-SCS-MP2 Energies <==================
	-----------------------------------------------------------
	 SCS Same-Spin Scale       =       0.3333333333333333 [-]
	 SCS Opposite-Spin Scale   =       1.2000000000000000 [-]
	 SCS Same-Spin Energy      =      -0.1388150719425896 [Eh]
	 SCS Opposite-Spin Energy  =      -1.5514289755388706 [Eh]
	 SCS Correlation Energy    =      -1.6902440474814602 [Eh]
	 SCS Total Energy          =    -419.8838941439656196 [Eh]
	-----------------------------------------------------------

  Dipole Moment: [D]
     X:    10.0385      Y:     3.4427      Z:     0.6269     Total:    10.6309

*** Psi4 exiting successfully. Buy a developer a beer!
