                               Psi4 1.3.2 release

  ==> Input File <==

--------------------------------------------------------------------------
#psi4
#
memory 32 gb

molecule  {
-1 1
  O        0.5739937    -1.1726382    -0.3764184
  O       -2.2370500    -0.5589400     1.0879600
  O       -2.5032960     0.1554020    -1.0563790
  C        1.9927080     0.6815170     0.1510220
  C        0.6435570     0.0091630    -0.0366810
  C       -0.5698879     0.8915718     0.1717864
  C        3.1729130    -0.2631210    -0.0329300
  C       -1.9010600     0.0931950     0.0560670
  H        2.0429660     1.5133360    -0.5640360
  H        2.0060190     1.1470430     1.1438410
  H       -0.4967450     1.3515110     1.1569670
  H       -0.5352790     1.6874700    -0.5756840
  H        3.1399490    -1.0742180     0.6982180
  H        3.1613950    -0.7098910    -1.0291440
  H        4.1160350     0.2752530     0.0934100
units angstrom
no_reorient  #important for SAPT in psi4, default
symmetry c1  #important for SAPT in psi4, default
}

set PROPERTIES_ORIGIN ["COM"]
properties('MP2/aug-cc-pvtz', properties = ['dipole'])
--------------------------------------------------------------------------

    Molecular point group: c1
  Charge       = -1
  Multiplicity = 1
  Basis Set: AUG-CC-PVTZ
    Blend: AUG-CC-PVTZ
  Basis Set: (AUG-CC-PVTZ AUX)
    Blend: AUG-CC-PVTZ-JKFIT

    Orbital Energies [Eh]
    ---------------------

    Doubly Occupied:

       1A    -20.410547     2A    -20.297031     3A    -20.295250
       4A    -11.200118     5A    -11.147352     6A    -11.129256
       7A    -11.120210     8A    -11.082377     9A     -1.239604
      10A     -1.163983    11A     -1.064341    12A     -0.949329
      13A     -0.868353    14A     -0.766078    15A     -0.610925
      16A     -0.537046    17A     -0.529912    18A     -0.526040
      19A     -0.471920    20A     -0.456353    21A     -0.439012
      22A     -0.409755    23A     -0.407395    24A     -0.403089
      25A     -0.378025    26A     -0.347974    27A     -0.336762
      28A     -0.280685    29A     -0.210846    30A     -0.206158
      31A     -0.193007

  @DF-RHF Final Energy:  -418.19562913549026

   => Energetics <=

    Nuclear Repulsion Energy =            356.5223697077616976
    One-Electron Energy =               -1290.4785316588217938
    Two-Electron Energy =                 515.7605328155697180
    Total Energy =                       -418.1956291354903215
  Basis Set: (AUG-CC-PVTZ AUX)
    Blend: AUG-CC-PVTZ-RI
    Molecular point group: c1

    Geometry (in Angstrom), charge = -1, multiplicity = 1:

       Center              X                  Y                   Z               Mass
    ------------   -----------------  -----------------  -----------------  -----------------
         O            0.687365383695    -1.137523316457    -0.368823853387    15.994914619570
         O           -2.123678316305    -0.523825116457     1.095554546613    15.994914619570
         O           -2.389924316305     0.190516883543    -1.048784453387    15.994914619570
         C            2.106079683695     0.716631883543     0.158616546613    12.000000000000
         C            0.756928683695     0.044277883543    -0.029086453387    12.000000000000
         C           -0.456516216305     0.926686683543     0.179380946613    12.000000000000
         C            3.286284683695    -0.228006116457    -0.025335453387    12.000000000000
         C           -1.787688316305     0.128309883543     0.063661546613    12.000000000000
         H            2.156337683695     1.548450883543    -0.556441453387     1.007825032230
         H            2.119390683695     1.182157883543     1.151435546613     1.007825032230
         H           -0.383373316305     1.386625883543     1.164561546613     1.007825032230
         H           -0.421907316305     1.722584883543    -0.568089453387     1.007825032230
         H            3.253320683695    -1.039103116457     0.705812546613     1.007825032230
         H            3.274766683695    -0.674776116457    -1.021549453387     1.007825032230
         H            4.229406683695     0.310367883543     0.101004546613     1.007825032230

  Basis Set: AUG-CC-PVTZ
    Blend: AUG-CC-PVTZ
  Basis Set: (AUG-CC-PVTZ AUX)
    Blend: AUG-CC-PVTZ-JKFIT
	 Reference Energy          =    -418.1956291354902646 [Eh]
	 Singles Energy            =      -0.0000000000000000 [Eh]
	 Same-Spin Energy          =      -0.4161736312952155 [Eh]
	 Opposite-Spin Energy      =      -1.2924928728335947 [Eh]
	 Correlation Energy        =      -1.7086665041288103 [Eh]
	 Total Energy              =    -419.9042956396190789 [Eh]

	 ================> DF-SCS-MP2 Energies <==================
	-----------------------------------------------------------
	 SCS Same-Spin Scale       =       0.3333333333333333 [-]
	 SCS Opposite-Spin Scale   =       1.2000000000000000 [-]
	 SCS Same-Spin Energy      =      -0.1387245437650718 [Eh]
	 SCS Opposite-Spin Energy  =      -1.5509914474003137 [Eh]
	 SCS Correlation Energy    =      -1.6897159911653854 [Eh]
	 SCS Total Energy          =    -419.8853451266556362 [Eh]
	-----------------------------------------------------------

  Dipole Moment: [D]
     X:     9.9424      Y:     3.4586      Z:     0.6348     Total:    10.5459

*** Psi4 exiting successfully. Buy a developer a beer!
