                               Psi4 1.3.2 release

  ==> Input File <==

--------------------------------------------------------------------------
#psi4
#
memory 32 gb

molecule  {
-1 1
  O        0.5632720    -1.1719080    -0.3765930
  O       -2.2370500    -0.5589400     1.0879600
  O       -2.5032960     0.1554020    -1.0563790
  C        1.9927080     0.6815170     0.1510220
  C        0.6406021     0.0178850    -0.0462162
  C       -0.5777410     0.8814240     0.1686100
  C        3.1729130    -0.2631210    -0.0329300
  C       -1.9010600     0.0931950     0.0560670
  H        2.0341913     1.5111099    -0.5671781
  H        2.0060190     1.1470430     1.1438410
  H       -0.4967450     1.3515110     1.1569670
  H       -0.5352790     1.6874700    -0.5756840
  H        3.1399490    -1.0742180     0.6982180
  H        3.1613950    -0.7098910    -1.0291440
  H        4.1160350     0.2752530     0.0934100
units angstrom
no_reorient  #important for SAPT in psi4, default
symmetry c1  #important for SAPT in psi4, default
}

set PROPERTIES_ORIGIN ["COM"]
properties('MP2/aug-cc-pvtz', properties = ['dipole'])
--------------------------------------------------------------------------

    Molecular point group: c1
  Charge       = -1
  Multiplicity = 1
  Basis Set: AUG-CC-PVTZ
    Blend: AUG-CC-PVTZ
  Basis Set: (AUG-CC-PVTZ AUX)
    Blend: AUG-CC-PVTZ-JKFIT

    Orbital Energies [Eh]
    ---------------------

    Doubly Occupied:

       1A    -20.409473     2A    -20.296668     3A    -20.294905
       4A    -11.200385     5A    -11.146552     6A    -11.130475
       7A    -11.120970     8A    -11.083197     9A     -1.235626
      10A     -1.164080    11A     -1.064208    12A     -0.949914
      13A     -0.869725    14A     -0.767382    15A     -0.611453
      16A     -0.538507    17A     -0.529346    18A     -0.526379
      19A     -0.470309    20A     -0.455212    21A     -0.439554
      22A     -0.411158    23A     -0.406952    24A     -0.403511
      25A     -0.377255    26A     -0.344812    27A     -0.335879
      28A     -0.280921    29A     -0.210495    30A     -0.207504
      31A     -0.192658

  @DF-RHF Final Energy:  -418.19481239919315

   => Energetics <=

    Nuclear Repulsion Energy =            356.6934117144243714
    One-Electron Energy =               -1290.8255241274046057
    Two-Electron Energy =                 515.9373000137870804
    Total Energy =                       -418.1948123991930970
  Basis Set: (AUG-CC-PVTZ AUX)
    Blend: AUG-CC-PVTZ-RI
    Molecular point group: c1

    Geometry (in Angstrom), charge = -1, multiplicity = 1:

       Center              X                  Y                   Z               Mass
    ------------   -----------------  -----------------  -----------------  -----------------
         O            0.679338688341    -1.136726412139    -0.367620678164    15.994914619570
         O           -2.120983311659    -0.523758412139     1.096932321836    15.994914619570
         O           -2.387229311659     0.190583587861    -1.047406678164    15.994914619570
         C            2.108774688341     0.716698587861     0.159994321836    12.000000000000
         C            0.756668788341     0.053066587861    -0.037243878164    12.000000000000
         C           -0.461674311659     0.916605587861     0.177582321836    12.000000000000
         C            3.288979688341    -0.227939412139    -0.023957678164    12.000000000000
         C           -1.784993311659     0.128376587861     0.065039321836    12.000000000000
         H            2.150257988341     1.546291487861    -0.558205778164     1.007825032230
         H            2.122085688341     1.182224587861     1.152813321836     1.007825032230
         H           -0.380678311659     1.386692587861     1.165939321836     1.007825032230
         H           -0.419212311659     1.722651587861    -0.566711678164     1.007825032230
         H            3.256015688341    -1.039036412139     0.707190321836     1.007825032230
         H            3.277461688341    -0.674709412139    -1.020171678164     1.007825032230
         H            4.232101688341     0.310434587861     0.102382321836     1.007825032230

  Basis Set: AUG-CC-PVTZ
    Blend: AUG-CC-PVTZ
  Basis Set: (AUG-CC-PVTZ AUX)
    Blend: AUG-CC-PVTZ-JKFIT
	 Reference Energy          =    -418.1948123991931539 [Eh]
	 Singles Energy            =      -0.0000000000000000 [Eh]
	 Same-Spin Energy          =      -0.4163841242328547 [Eh]
	 Opposite-Spin Energy      =      -1.2928955146270271 [Eh]
	 Correlation Energy        =      -1.7092796388598819 [Eh]
	 Total Energy              =    -419.9040920380530224 [Eh]

	 ================> DF-SCS-MP2 Energies <==================
	-----------------------------------------------------------
	 SCS Same-Spin Scale       =       0.3333333333333333 [-]
	 SCS Opposite-Spin Scale   =       1.2000000000000000 [-]
	 SCS Same-Spin Energy      =      -0.1387947080776182 [Eh]
	 SCS Opposite-Spin Energy  =      -1.5514746175524325 [Eh]
	 SCS Correlation Energy    =      -1.6902693256300507 [Eh]
	 SCS Total Energy          =    -419.8850817248231806 [Eh]
	-----------------------------------------------------------

  Dipole Moment: [D]
     X:     9.9676      Y:     3.4846      Z:     0.6324     Total:    10.5781

*** Psi4 exiting successfully. Buy a developer a beer!
