                               Psi4 1.3.2 release

  ==> Input File <==

--------------------------------------------------------------------------
#psi4
#
memory 32 gb

molecule  {
-1 1
  O        0.5632720    -1.1719080    -0.3765930
  O       -2.2370500    -0.5589400     1.0879600
  O       -2.5032960     0.1554020    -1.0563790
  C        1.9927080     0.6815170     0.1510220
  C        0.6435570     0.0091630    -0.0366810
  C       -0.5777410     0.8814240     0.1686100
  C        3.1729130    -0.2631210    -0.0329300
  C       -1.9010600     0.0931950     0.0560670
  H        2.0429660     1.5133360    -0.5640360
  H        2.0060190     1.1470430     1.1438410
  H       -0.4819842     1.4371801     1.3370862
  H       -0.5352790     1.6874700    -0.5756840
  H        3.1399490    -1.0742180     0.6982180
  H        3.1613950    -0.7098910    -1.0291440
  H        4.1160350     0.2752530     0.0934100
units angstrom
no_reorient  #important for SAPT in psi4, default
symmetry c1  #important for SAPT in psi4, default
}

set PROPERTIES_ORIGIN ["COM"]
properties('MP2/aug-cc-pvtz', properties = ['dipole'])
--------------------------------------------------------------------------

    Molecular point group: c1
  Charge       = -1
  Multiplicity = 1
  Basis Set: AUG-CC-PVTZ
    Blend: AUG-CC-PVTZ
  Basis Set: (AUG-CC-PVTZ AUX)
    Blend: AUG-CC-PVTZ-JKFIT

    Orbital Energies [Eh]
    ---------------------

    Doubly Occupied:

       1A    -20.412413     2A    -20.299675     3A    -20.295421
       4A    -11.202529     5A    -11.149240     6A    -11.129899
       7A    -11.120759     8A    -11.106526     9A     -1.241514
      10A     -1.165786    11A     -1.065839    12A     -0.949223
      13A     -0.860705    14A     -0.764499    15A     -0.612017
      16A     -0.538918    17A     -0.528886    18A     -0.522832
      19A     -0.471432    20A     -0.445008    21A     -0.434981
      22A     -0.409833    23A     -0.407001    24A     -0.401404
      25A     -0.373437    26A     -0.345339    27A     -0.331416
      28A     -0.281347    29A     -0.211321    30A     -0.209583
      31A     -0.194057

  @DF-RHF Final Energy:  -418.17590077589523

   => Energetics <=

    Nuclear Repulsion Energy =            355.8099403300034851
    One-Electron Energy =               -1289.0060043688381484
    Two-Electron Energy =                 515.0201632629394908
    Total Energy =                       -418.1759007758952293
  Basis Set: (AUG-CC-PVTZ AUX)
    Blend: AUG-CC-PVTZ-RI
    Molecular point group: c1

    Geometry (in Angstrom), charge = -1, multiplicity = 1:

       Center              X                  Y                   Z               Mass
    ------------   -----------------  -----------------  -----------------  -----------------
         O            0.678824269761    -1.136586625243    -0.370220808345    15.994914619570
         O           -2.121497730239    -0.523618625243     1.094332191655    15.994914619570
         O           -2.387743730239     0.190723374757    -1.050006808345    15.994914619570
         C            2.108260269761     0.716838374757     0.157394191655    12.000000000000
         C            0.759109269761     0.044484374757    -0.030308808345    12.000000000000
         C           -0.462188730239     0.916745374757     0.174982191655    12.000000000000
         C            3.288465269761    -0.227799625243    -0.026557808345    12.000000000000
         C           -1.785507730239     0.128516374757     0.062439191655    12.000000000000
         H            2.158518269761     1.548657374757    -0.557663808345     1.007825032230
         H            2.121571269761     1.182364374757     1.150213191655     1.007825032230
         H           -0.366431930239     1.472501474757     1.343458391655     1.007825032230
         H           -0.419726730239     1.722791374757    -0.569311808345     1.007825032230
         H            3.255501269761    -1.038896625243     0.704590191655     1.007825032230
         H            3.276947269761    -0.674569625243    -1.022771808345     1.007825032230
         H            4.231587269761     0.310574374757     0.099782191655     1.007825032230

  Basis Set: AUG-CC-PVTZ
    Blend: AUG-CC-PVTZ
  Basis Set: (AUG-CC-PVTZ AUX)
    Blend: AUG-CC-PVTZ-JKFIT
	 Reference Energy          =    -418.1759007758952293 [Eh]
	 Singles Energy            =      -0.0000000000000000 [Eh]
	 Same-Spin Energy          =      -0.4163825054170449 [Eh]
	 Opposite-Spin Energy      =      -1.2943382496339710 [Eh]
	 Correlation Energy        =      -1.7107207550510160 [Eh]
	 Total Energy              =    -419.8866215309462291 [Eh]

	 ================> DF-SCS-MP2 Energies <==================
	-----------------------------------------------------------
	 SCS Same-Spin Scale       =       0.3333333333333333 [-]
	 SCS Opposite-Spin Scale   =       1.2000000000000000 [-]
	 SCS Same-Spin Energy      =      -0.1387941684723483 [Eh]
	 SCS Opposite-Spin Energy  =      -1.5532058995607652 [Eh]
	 SCS Correlation Energy    =      -1.6920000680331135 [Eh]
	 SCS Total Energy          =    -419.8679008439283393 [Eh]
	-----------------------------------------------------------

  Dipole Moment: [D]
     X:     9.9050      Y:     3.3422      Z:     0.5140     Total:    10.4663

*** Psi4 exiting successfully. Buy a developer a beer!
