                               Psi4 1.3.2 release

  ==> Input File <==

--------------------------------------------------------------------------
#psi4
#
memory 32 gb

molecule  {
-1 1
  O        0.5632720    -1.1719080    -0.3765930
  O       -2.2370500    -0.5589400     1.0879600
  O       -2.5032960     0.1554020    -1.0563790
  C        1.9927080     0.6815170     0.1510220
  C        0.6472854     0.0051855    -0.0487642
  C       -0.5777410     0.8814240     0.1686100
  C        3.1729130    -0.2631210    -0.0329300
  C       -1.9010600     0.0931950     0.0560670
  H        2.0429660     1.5133360    -0.5640360
  H        2.0149220     1.1501541     1.1422167
  H       -0.4967450     1.3515110     1.1569670
  H       -0.5352790     1.6874700    -0.5756840
  H        3.1399490    -1.0742180     0.6982180
  H        3.1613950    -0.7098910    -1.0291440
  H        4.1160350     0.2752530     0.0934100
units angstrom
no_reorient  #important for SAPT in psi4, default
symmetry c1  #important for SAPT in psi4, default
}

set PROPERTIES_ORIGIN ["COM"]
properties('MP2/aug-cc-pvtz', properties = ['dipole'])
--------------------------------------------------------------------------

    Molecular point group: c1
  Charge       = -1
  Multiplicity = 1
  Basis Set: AUG-CC-PVTZ
    Blend: AUG-CC-PVTZ
  Basis Set: (AUG-CC-PVTZ AUX)
    Blend: AUG-CC-PVTZ-JKFIT

    Orbital Energies [Eh]
    ---------------------

    Doubly Occupied:

       1A    -20.410987     2A    -20.296174     3A    -20.294442
       4A    -11.199620     5A    -11.145761     6A    -11.130010
       7A    -11.120775     8A    -11.082437     9A     -1.244219
      10A     -1.163647    11A     -1.063724    12A     -0.949782
      13A     -0.866222    14A     -0.766431    15A     -0.611975
      16A     -0.537972    17A     -0.531060    18A     -0.526044
      19A     -0.472254    20A     -0.454176    21A     -0.439420
      22A     -0.410660    23A     -0.408571    24A     -0.403260
      25A     -0.377113    26A     -0.348971    27A     -0.336251
      28A     -0.279393    29A     -0.209988    30A     -0.206701
      31A     -0.192293

  @DF-RHF Final Energy:  -418.19625464710123

   => Energetics <=

    Nuclear Repulsion Energy =            356.7310658757376132
    One-Electron Energy =               -1290.8939788527468409
    Two-Electron Energy =                 515.9666583299080003
    Total Energy =                       -418.1962546471012274
  Basis Set: (AUG-CC-PVTZ AUX)
    Blend: AUG-CC-PVTZ-RI
    Molecular point group: c1

    Geometry (in Angstrom), charge = -1, multiplicity = 1:

       Center              X                  Y                   Z               Mass
    ------------   -----------------  -----------------  -----------------  -----------------
         O            0.678486671318    -1.135448459680    -0.367368188207    15.994914619570
         O           -2.121835328682    -0.522480459680     1.097184811793    15.994914619570
         O           -2.388081328682     0.191861540320    -1.047154188207    15.994914619570
         C            2.107922671318     0.717976540320     0.160246811793    12.000000000000
         C            0.762500071318     0.041645040320    -0.039539388207    12.000000000000
         C           -0.462526328682     0.917883540320     0.177834811793    12.000000000000
         C            3.288127671318    -0.226661459680    -0.023705188207    12.000000000000
         C           -1.785845328682     0.129654540320     0.065291811793    12.000000000000
         H            2.158180671318     1.549795540320    -0.554811188207     1.007825032230
         H            2.130136671318     1.186613640320     1.151441511793     1.007825032230
         H           -0.381530328682     1.387970540320     1.166191811793     1.007825032230
         H           -0.420064328682     1.723929540320    -0.566459188207     1.007825032230
         H            3.255163671318    -1.037758459680     0.707442811793     1.007825032230
         H            3.276609671318    -0.673431459680    -1.019919188207     1.007825032230
         H            4.231249671318     0.311712540320     0.102634811793     1.007825032230

  Basis Set: AUG-CC-PVTZ
    Blend: AUG-CC-PVTZ
  Basis Set: (AUG-CC-PVTZ AUX)
    Blend: AUG-CC-PVTZ-JKFIT
	 Reference Energy          =    -418.1962546471012274 [Eh]
	 Singles Energy            =      -0.0000000000000000 [Eh]
	 Same-Spin Energy          =      -0.4159799728767855 [Eh]
	 Opposite-Spin Energy      =      -1.2921134248652923 [Eh]
	 Correlation Energy        =      -1.7080933977420778 [Eh]
	 Total Energy              =    -419.9043480448432888 [Eh]

	 ================> DF-SCS-MP2 Energies <==================
	-----------------------------------------------------------
	 SCS Same-Spin Scale       =       0.3333333333333333 [-]
	 SCS Opposite-Spin Scale   =       1.2000000000000000 [-]
	 SCS Same-Spin Energy      =      -0.1386599909589285 [Eh]
	 SCS Opposite-Spin Energy  =      -1.5505361098383508 [Eh]
	 SCS Correlation Energy    =      -1.6891961007972793 [Eh]
	 SCS Total Energy          =    -419.8854507478985170 [Eh]
	-----------------------------------------------------------

  Dipole Moment: [D]
     X:    10.0175      Y:     3.4329      Z:     0.6183     Total:    10.6074

*** Psi4 exiting successfully. Buy a developer a beer!
