                               Psi4 1.3.2 release

  ==> Input File <==

--------------------------------------------------------------------------
#psi4
#
memory 32 gb

molecule  {
-1 1
  O        0.5632720    -1.1719080    -0.3765930
  O       -2.2911103    -0.5792259     1.0554085
  O       -2.5032960     0.1554020    -1.0563790
  C        1.9927080     0.6815170     0.1510220
  C        0.6435570     0.0091630    -0.0366810
  C       -0.5888543     0.9067812     0.0926427
  C        3.1729130    -0.2631210    -0.0329300
  C       -1.9010600     0.0931950     0.0560670
  H        2.0429660     1.5133360    -0.5640360
  H        2.0060190     1.1470430     1.1438410
  H       -0.4967450     1.3515110     1.1569670
  H       -0.5352790     1.6874700    -0.5756840
  H        3.1399490    -1.0742180     0.6982180
  H        3.1613950    -0.7098910    -1.0291440
  H        4.1160350     0.2752530     0.0934100
units angstrom
no_reorient  #important for SAPT in psi4, default
symmetry c1  #important for SAPT in psi4, default
}

set PROPERTIES_ORIGIN ["COM"]
properties('MP2/aug-cc-pvtz', properties = ['dipole'])
--------------------------------------------------------------------------

    Molecular point group: c1
  Charge       = -1
  Multiplicity = 1
  Basis Set: AUG-CC-PVTZ
    Blend: AUG-CC-PVTZ
  Basis Set: (AUG-CC-PVTZ AUX)
    Blend: AUG-CC-PVTZ-JKFIT

    Orbital Energies [Eh]
    ---------------------

    Doubly Occupied:

       1A    -20.412315     2A    -20.294309     3A    -20.290864
       4A    -11.202676     5A    -11.144996     6A    -11.131842
       7A    -11.121927     8A    -11.087062     9A     -1.241077
      10A     -1.163651    11A     -1.058418    12A     -0.950889
      13A     -0.869323    14A     -0.769002    15A     -0.612606
      16A     -0.542549    17A     -0.531777    18A     -0.526210
      19A     -0.477650    20A     -0.452542    21A     -0.439066
      22A     -0.411921    23A     -0.408845    24A     -0.403212
      25A     -0.374720    26A     -0.350668    27A     -0.332596
      28A     -0.280224    29A     -0.210352    30A     -0.203454
      31A     -0.188842

  @DF-RHF Final Energy:  -418.18642624019077

   => Energetics <=

    Nuclear Repulsion Energy =            356.1795782322121227
    One-Electron Energy =               -1289.7608397441847501
    Two-Electron Energy =                 515.3948352717818580
    Total Energy =                       -418.1864262401907126
  Basis Set: (AUG-CC-PVTZ AUX)
    Blend: AUG-CC-PVTZ-RI
    Molecular point group: c1

    Geometry (in Angstrom), charge = -1, multiplicity = 1:

       Center              X                  Y                   Z               Mass
    ------------   -----------------  -----------------  -----------------  -----------------
         O            0.687629294283    -1.135660645173    -0.356192631640    15.994914619570
         O           -2.166753005717    -0.542978545173     1.075808868360    15.994914619570
         O           -2.378938705717     0.191649354827    -1.035978631640    15.994914619570
         C            2.117065294283     0.717764354827     0.171422368360    12.000000000000
         C            0.767914294283     0.045410354827    -0.016280631640    12.000000000000
         C           -0.464497005717     0.943028554827     0.113043068360    12.000000000000
         C            3.297270294283    -0.226873645173    -0.012529631640    12.000000000000
         C           -1.776702705717     0.129442354827     0.076467368360    12.000000000000
         H            2.167323294283     1.549583354827    -0.543635631640     1.007825032230
         H            2.130376294283     1.183290354827     1.164241368360     1.007825032230
         H           -0.372387705717     1.387758354827     1.177367368360     1.007825032230
         H           -0.410921705717     1.723717354827    -0.555283631640     1.007825032230
         H            3.264306294283    -1.037970645173     0.718618368360     1.007825032230
         H            3.285752294283    -0.673643645173    -1.008743631640     1.007825032230
         H            4.240392294283     0.311500354827     0.113810368360     1.007825032230

  Basis Set: AUG-CC-PVTZ
    Blend: AUG-CC-PVTZ
  Basis Set: (AUG-CC-PVTZ AUX)
    Blend: AUG-CC-PVTZ-JKFIT
	 Reference Energy          =    -418.1864262401907695 [Eh]
	 Singles Energy            =      -0.0000000000000000 [Eh]
	 Same-Spin Energy          =      -0.4161958430232312 [Eh]
	 Opposite-Spin Energy      =      -1.2928400667098452 [Eh]
	 Correlation Energy        =      -1.7090359097330765 [Eh]
	 Total Energy              =    -419.8954621499238442 [Eh]

	 ================> DF-SCS-MP2 Energies <==================
	-----------------------------------------------------------
	 SCS Same-Spin Scale       =       0.3333333333333333 [-]
	 SCS Opposite-Spin Scale   =       1.2000000000000000 [-]
	 SCS Same-Spin Energy      =      -0.1387319476744104 [Eh]
	 SCS Opposite-Spin Energy  =      -1.5514080800518142 [Eh]
	 SCS Correlation Energy    =      -1.6901400277262246 [Eh]
	 SCS Total Energy          =    -419.8765662679169850 [Eh]
	-----------------------------------------------------------

  Dipole Moment: [D]
     X:    10.1863      Y:     3.5121      Z:     0.5908     Total:    10.7910

*** Psi4 exiting successfully. Buy a developer a beer!
