                               Psi4 1.3.2 release

  ==> Input File <==

--------------------------------------------------------------------------
#psi4
#
memory 32 gb

molecule  {
-1 1
  O        0.5632720    -1.1719080    -0.3765930
  O       -2.2370500    -0.5589400     1.0879600
  O       -2.5032960     0.1554020    -1.0563790
  C        1.9927080     0.6815170     0.1510220
  C        0.6435570     0.0091630    -0.0366810
  C       -0.5777410     0.8814240     0.1686100
  C        3.1729130    -0.2631210    -0.0329300
  C       -1.7296890     0.1952713     0.0706414
  H        2.0429660     1.5133360    -0.5640360
  H        2.0060190     1.1470430     1.1438410
  H       -0.4967450     1.3515110     1.1569670
  H       -0.5352790     1.6874700    -0.5756840
  H        3.1399490    -1.0742180     0.6982180
  H        3.1613950    -0.7098910    -1.0291440
  H        4.1160350     0.2752530     0.0934100
units angstrom
no_reorient  #important for SAPT in psi4, default
symmetry c1  #important for SAPT in psi4, default
}

set PROPERTIES_ORIGIN ["COM"]
properties('MP2/aug-cc-pvtz', properties = ['dipole'])
--------------------------------------------------------------------------

    Molecular point group: c1
  Charge       = -1
  Multiplicity = 1
  Basis Set: AUG-CC-PVTZ
    Blend: AUG-CC-PVTZ
  Basis Set: (AUG-CC-PVTZ AUX)
    Blend: AUG-CC-PVTZ-JKFIT

    Orbital Energies [Eh]
    ---------------------

    Doubly Occupied:

       1A    -20.422497     2A    -20.293137     3A    -20.290792
       4A    -11.215155     5A    -11.152149     6A    -11.140337
       7A    -11.127765     8A    -11.095889     9A     -1.251792
      10A     -1.114763    11A     -1.001463    12A     -0.961432
      13A     -0.911641    14A     -0.789197    15A     -0.639580
      16A     -0.568325    17A     -0.546915    18A     -0.536942
      19A     -0.481810    20A     -0.478866    21A     -0.439528
      22A     -0.416943    23A     -0.410171    24A     -0.406134
      25A     -0.364440    26A     -0.323864    27A     -0.305537
      28A     -0.278203    29A     -0.225197    30A     -0.180376
      31A     -0.167230

  @DF-RHF Final Energy:  -418.12265279025212

   => Energetics <=

    Nuclear Repulsion Energy =            357.1955157251517221
    One-Electron Energy =               -1291.5601990313264196
    Two-Electron Energy =                 516.2420305159225791
    Total Energy =                       -418.1226527902521184
  Basis Set: (AUG-CC-PVTZ AUX)
    Blend: AUG-CC-PVTZ-RI
    Molecular point group: c1

    Geometry (in Angstrom), charge = -1, multiplicity = 1:

       Center              X                  Y                   Z               Mass
    ------------   -----------------  -----------------  -----------------  -----------------
         O            0.661077536182    -1.146483886164    -0.370163125224    15.994914619570
         O           -2.139244463818    -0.533515886164     1.094389874776    15.994914619570
         O           -2.405490463818     0.180826113836    -1.049949125224    15.994914619570
         C            2.090513536182     0.706941113836     0.157451874776    12.000000000000
         C            0.741362536182     0.034587113836    -0.030251125224    12.000000000000
         C           -0.479935463818     0.906848113836     0.175039874776    12.000000000000
         C            3.270718536182    -0.237696886164    -0.026500125224    12.000000000000
         C           -1.631883463818     0.220695413836     0.077071274776    12.000000000000
         H            2.140771536182     1.538760113836    -0.557606125224     1.007825032230
         H            2.103824536182     1.172467113836     1.150270874776     1.007825032230
         H           -0.398939463818     1.376935113836     1.163396874776     1.007825032230
         H           -0.437473463818     1.712894113836    -0.569254125224     1.007825032230
         H            3.237754536182    -1.048793886164     0.704647874776     1.007825032230
         H            3.259200536182    -0.684466886164    -1.022714125224     1.007825032230
         H            4.213840536182     0.300677113836     0.099839874776     1.007825032230

  Basis Set: AUG-CC-PVTZ
    Blend: AUG-CC-PVTZ
  Basis Set: (AUG-CC-PVTZ AUX)
    Blend: AUG-CC-PVTZ-JKFIT
	 Reference Energy          =    -418.1226527902521184 [Eh]
	 Singles Energy            =      -0.0000000000000000 [Eh]
	 Same-Spin Energy          =      -0.4226607385673193 [Eh]
	 Opposite-Spin Energy      =      -1.3064071251191594 [Eh]
	 Correlation Energy        =      -1.7290678636864787 [Eh]
	 Total Energy              =    -419.8517206539385711 [Eh]

	 ================> DF-SCS-MP2 Energies <==================
	-----------------------------------------------------------
	 SCS Same-Spin Scale       =       0.3333333333333333 [-]
	 SCS Opposite-Spin Scale   =       1.2000000000000000 [-]
	 SCS Same-Spin Energy      =      -0.1408869128557731 [Eh]
	 SCS Opposite-Spin Energy  =      -1.5676885501429911 [Eh]
	 SCS Correlation Energy    =      -1.7085754629987642 [Eh]
	 SCS Total Energy          =    -419.8312282532508561 [Eh]
	-----------------------------------------------------------

  Dipole Moment: [D]
     X:    11.0547      Y:     3.8339      Z:     0.6757     Total:    11.7201

*** Psi4 exiting successfully. Buy a developer a beer!
