                               Psi4 1.3.2 release

  ==> Input File <==

--------------------------------------------------------------------------
#psi4
#
memory 32 gb

molecule  {
-1 1
  O        0.5632720    -1.1719080    -0.3765930
  O       -2.2370500    -0.5589400     1.0879600
  O       -2.5032960     0.1554020    -1.0563790
  C        1.9543387     0.7491591     0.1676666
  C        0.6435570     0.0091630    -0.0366810
  C       -0.5291798     0.9420499     0.1845950
  C        3.1729130    -0.2631210    -0.0329300
  C       -1.9010600     0.0931950     0.0560670
  H        2.0429660     1.5133360    -0.5640360
  H        2.0060190     1.1470430     1.1438410
  H       -0.4967450     1.3515110     1.1569670
  H       -0.5352790     1.6874700    -0.5756840
  H        3.1399490    -1.0742180     0.6982180
  H        3.1613950    -0.7098910    -1.0291440
  H        4.1160350     0.2752530     0.0934100
units angstrom
no_reorient  #important for SAPT in psi4, default
symmetry c1  #important for SAPT in psi4, default
}

set PROPERTIES_ORIGIN ["COM"]
properties('MP2/aug-cc-pvtz', properties = ['dipole'])
--------------------------------------------------------------------------

    Molecular point group: c1
  Charge       = -1
  Multiplicity = 1
  Basis Set: AUG-CC-PVTZ
    Blend: AUG-CC-PVTZ
  Basis Set: (AUG-CC-PVTZ AUX)
    Blend: AUG-CC-PVTZ-JKFIT

    Orbital Energies [Eh]
    ---------------------

    Doubly Occupied:

       1A    -20.414648     2A    -20.297780     3A    -20.296139
       4A    -11.201040     5A    -11.150360     6A    -11.124907
       7A    -11.121045     8A    -11.075560     9A     -1.240125
      10A     -1.162462    11A     -1.064075    12A     -0.944439
      13A     -0.863898    14A     -0.766098    15A     -0.613289
      16A     -0.533948    17A     -0.531480    18A     -0.522828
      19A     -0.474520    20A     -0.463352    21A     -0.432673
      22A     -0.412370    23A     -0.410172    24A     -0.386914
      25A     -0.384104    26A     -0.354422    27A     -0.337757
      28A     -0.281385    29A     -0.211553    30A     -0.197394
      31A     -0.193707

  @DF-RHF Final Energy:  -418.18360310628026

   => Energetics <=

    Nuclear Repulsion Energy =            355.4796090179738712
    One-Electron Energy =               -1288.3975348368605864
    Two-Electron Energy =                 514.7343227126063994
    Total Energy =                       -418.1836031062803158
  Basis Set: (AUG-CC-PVTZ AUX)
    Blend: AUG-CC-PVTZ-RI
    Molecular point group: c1

    Geometry (in Angstrom), charge = -1, multiplicity = 1:

       Center              X                  Y                   Z               Mass
    ------------   -----------------  -----------------  -----------------  -----------------
         O            0.677890447218    -1.149215994247    -0.372046498883    15.994914619570
         O           -2.122431552782    -0.536247994247     1.092506501117    15.994914619570
         O           -2.388677552782     0.178094005753    -1.051832498883    15.994914619570
         C            2.068957147218     0.771851105753     0.172213101117    12.000000000000
         C            0.758175447218     0.031855005753    -0.032134498883    12.000000000000
         C           -0.414561352782     0.964741905753     0.189141501117    12.000000000000
         C            3.287531447218    -0.240428994247    -0.028383498883    12.000000000000
         C           -1.786441552782     0.115887005753     0.060613501117    12.000000000000
         H            2.157584447218     1.536028005753    -0.559489498883     1.007825032230
         H            2.120637447218     1.169735005753     1.148387501117     1.007825032230
         H           -0.382126552782     1.374203005753     1.161513501117     1.007825032230
         H           -0.420660552782     1.710162005753    -0.571137498883     1.007825032230
         H            3.254567447218    -1.051525994247     0.702764501117     1.007825032230
         H            3.276013447218    -0.687198994247    -1.024597498883     1.007825032230
         H            4.230653447218     0.297945005753     0.097956501117     1.007825032230

  Basis Set: AUG-CC-PVTZ
    Blend: AUG-CC-PVTZ
  Basis Set: (AUG-CC-PVTZ AUX)
    Blend: AUG-CC-PVTZ-JKFIT
	 Reference Energy          =    -418.1836031062802590 [Eh]
	 Singles Energy            =      -0.0000000000000000 [Eh]
	 Same-Spin Energy          =      -0.4162045109151243 [Eh]
	 Opposite-Spin Energy      =      -1.2930995997291497 [Eh]
	 Correlation Energy        =      -1.7093041106442741 [Eh]
	 Total Energy              =    -419.8929072169245273 [Eh]

	 ================> DF-SCS-MP2 Energies <==================
	-----------------------------------------------------------
	 SCS Same-Spin Scale       =       0.3333333333333333 [-]
	 SCS Opposite-Spin Scale   =       1.2000000000000000 [-]
	 SCS Same-Spin Energy      =      -0.1387348369717081 [Eh]
	 SCS Opposite-Spin Energy  =      -1.5517195196749796 [Eh]
	 SCS Correlation Energy    =      -1.6904543566466876 [Eh]
	 SCS Total Energy          =    -419.8740574629269418 [Eh]
	-----------------------------------------------------------

  Dipole Moment: [D]
     X:     9.7992      Y:     3.4764      Z:     0.6442     Total:    10.4175

*** Psi4 exiting successfully. Buy a developer a beer!
