                               Psi4 1.3.2 release

  ==> Input File <==

--------------------------------------------------------------------------
#psi4
#
memory 32 gb

molecule  {
-1 1
  O        0.5632720    -1.1719080    -0.3765930
  O       -2.2370500    -0.5589400     1.0879600
  O       -2.5032960     0.1554020    -1.0563790
  C        1.9927080     0.6815170     0.1510220
  C        0.6887228     0.0734047    -0.0256238
  C       -0.5777410     0.8814240     0.1686100
  C        3.1729130    -0.2631210    -0.0329300
  C       -1.9408492     0.1620708     0.0705741
  H        2.0429660     1.5133360    -0.5640360
  H        2.0060190     1.1470430     1.1438410
  H       -0.4967450     1.3515110     1.1569670
  H       -0.5352790     1.6874700    -0.5756840
  H        3.1399490    -1.0742180     0.6982180
  H        3.1613950    -0.7098910    -1.0291440
  H        4.1160350     0.2752530     0.0934100
units angstrom
no_reorient  #important for SAPT in psi4, default
symmetry c1  #important for SAPT in psi4, default
}

set PROPERTIES_ORIGIN ["COM"]
properties('MP2/aug-cc-pvtz', properties = ['dipole'])
--------------------------------------------------------------------------

    Molecular point group: c1
  Charge       = -1
  Multiplicity = 1
  Basis Set: AUG-CC-PVTZ
    Blend: AUG-CC-PVTZ
  Basis Set: (AUG-CC-PVTZ AUX)
    Blend: AUG-CC-PVTZ-JKFIT

    Orbital Energies [Eh]
    ---------------------

    Doubly Occupied:

       1A    -20.403865     2A    -20.300488     3A    -20.292659
       4A    -11.205632     5A    -11.148639     6A    -11.134737
       7A    -11.124370     8A    -11.086781     9A     -1.196890
      10A     -1.162201    11A     -1.060762    12A     -0.963788
      13A     -0.870560    14A     -0.779840    15A     -0.616357
      16A     -0.543311    17A     -0.533695    18A     -0.519361
      19A     -0.464360    20A     -0.454347    21A     -0.435193
      22A     -0.415040    23A     -0.407225    24A     -0.400263
      25A     -0.374869    26A     -0.334450    27A     -0.319780
      28A     -0.283324    29A     -0.211959    30A     -0.207188
      31A     -0.190435

  @DF-RHF Final Energy:  -418.17133930927088

   => Energetics <=

    Nuclear Repulsion Energy =            355.6200000065531412
    One-Electron Energy =               -1288.6979391823122114
    Two-Electron Energy =                 514.9065998664881363
    Total Energy =                       -418.1713393092709339
  Basis Set: (AUG-CC-PVTZ AUX)
    Blend: AUG-CC-PVTZ-RI
    Molecular point group: c1

    Geometry (in Angstrom), charge = -1, multiplicity = 1:

       Center              X                  Y                   Z               Mass
    ------------   -----------------  -----------------  -----------------  -----------------
         O            0.678392740695    -1.149721855193    -0.371309503451    15.994914619570
         O           -2.121929259305    -0.536753855193     1.093243496549    15.994914619570
         O           -2.388175259305     0.177588144807    -1.051095503451    15.994914619570
         C            2.107828740695     0.703703144807     0.156305496549    12.000000000000
         C            0.803843540695     0.095590844807    -0.020340303451    12.000000000000
         C           -0.462620259305     0.903610144807     0.173893496549    12.000000000000
         C            3.288033740695    -0.240934855193    -0.027646503451    12.000000000000
         C           -1.825728459305     0.184256944807     0.075857596549    12.000000000000
         H            2.158086740695     1.535522144807    -0.558752503451     1.007825032230
         H            2.121139740695     1.169229144807     1.149124496549     1.007825032230
         H           -0.381624259305     1.373697144807     1.162250496549     1.007825032230
         H           -0.420158259305     1.709656144807    -0.570400503451     1.007825032230
         H            3.255069740695    -1.052031855193     0.703501496549     1.007825032230
         H            3.276515740695    -0.687704855193    -1.023860503451     1.007825032230
         H            4.231155740695     0.297439144807     0.098693496549     1.007825032230

  Basis Set: AUG-CC-PVTZ
    Blend: AUG-CC-PVTZ
  Basis Set: (AUG-CC-PVTZ AUX)
    Blend: AUG-CC-PVTZ-JKFIT
	 Reference Energy          =    -418.1713393092708770 [Eh]
	 Singles Energy            =      -0.0000000000000000 [Eh]
	 Same-Spin Energy          =      -0.4190293139428898 [Eh]
	 Opposite-Spin Energy      =      -1.2985741928401850 [Eh]
	 Correlation Energy        =      -1.7176035067830748 [Eh]
	 Total Energy              =    -419.8889428160539410 [Eh]

	 ================> DF-SCS-MP2 Energies <==================
	-----------------------------------------------------------
	 SCS Same-Spin Scale       =       0.3333333333333333 [-]
	 SCS Opposite-Spin Scale   =       1.2000000000000000 [-]
	 SCS Same-Spin Energy      =      -0.1396764379809632 [Eh]
	 SCS Opposite-Spin Energy  =      -1.5582890314082221 [Eh]
	 SCS Correlation Energy    =      -1.6979654693891852 [Eh]
	 SCS Total Energy          =    -419.8693047786600800 [Eh]
	-----------------------------------------------------------

  Dipole Moment: [D]
     X:    10.1740      Y:     3.7478      Z:     0.5817     Total:    10.8579

*** Psi4 exiting successfully. Buy a developer a beer!
