                               Psi4 1.3.2 release

  ==> Input File <==

--------------------------------------------------------------------------
#psi4
#
memory 32 gb

molecule  {
-1 1
  O        0.5204294    -1.1685469    -0.3754340
  O       -2.2370500    -0.5589400     1.0879600
  O       -2.5032960     0.1554020    -1.0563790
  C        1.9675251     0.7263234     0.1640429
  C        0.6435570     0.0091630    -0.0366810
  C       -0.5777410     0.8814240     0.1686100
  C        3.1729130    -0.2631210    -0.0329300
  C       -1.9010600     0.0931950     0.0560670
  H        2.0429660     1.5133360    -0.5640360
  H        2.0060190     1.1470430     1.1438410
  H       -0.4967450     1.3515110     1.1569670
  H       -0.5352790     1.6874700    -0.5756840
  H        3.1399490    -1.0742180     0.6982180
  H        3.1613950    -0.7098910    -1.0291440
  H        4.1160350     0.2752530     0.0934100
units angstrom
no_reorient  #important for SAPT in psi4, default
symmetry c1  #important for SAPT in psi4, default
}

set PROPERTIES_ORIGIN ["COM"]
properties('MP2/aug-cc-pvtz', properties = ['dipole'])
--------------------------------------------------------------------------

    Molecular point group: c1
  Charge       = -1
  Multiplicity = 1
  Basis Set: AUG-CC-PVTZ
    Blend: AUG-CC-PVTZ
  Basis Set: (AUG-CC-PVTZ AUX)
    Blend: AUG-CC-PVTZ-JKFIT

    Orbital Energies [Eh]
    ---------------------

    Doubly Occupied:

       1A    -20.411708     2A    -20.294867     3A    -20.293027
       4A    -11.200286     5A    -11.144239     6A    -11.130457
       7A    -11.123791     8A    -11.079539     9A     -1.239463
      10A     -1.162195    11A     -1.062396    12A     -0.947403
      13A     -0.864534    14A     -0.769502    15A     -0.615129
      16A     -0.535908    17A     -0.532200    18A     -0.528054
      19A     -0.469998    20A     -0.453360    21A     -0.436738
      22A     -0.412358    23A     -0.410433    24A     -0.398702
      25A     -0.379343    26A     -0.347039    27A     -0.334229
      28A     -0.279355    29A     -0.208736    30A     -0.205161
      31A     -0.191083

  @DF-RHF Final Energy:  -418.19173890344683

   => Energetics <=

    Nuclear Repulsion Energy =            356.6458372137122979
    One-Electron Energy =               -1290.7526865491261105
    Two-Electron Energy =                 515.9151104319669230
    Total Energy =                       -418.1917389034468897
  Basis Set: (AUG-CC-PVTZ AUX)
    Blend: AUG-CC-PVTZ-RI
    Molecular point group: c1

    Geometry (in Angstrom), charge = -1, multiplicity = 1:

       Center              X                  Y                   Z               Mass
    ------------   -----------------  -----------------  -----------------  -----------------
         O            0.644694630670    -1.137616171589    -0.369003222108    15.994914619570
         O           -2.112784769330    -0.528009271589     1.094390777892    15.994914619570
         O           -2.379030769330     0.186332728411    -1.049948222108    15.994914619570
         C            2.091790330670     0.757254128411     0.170473677892    12.000000000000
         C            0.767822230670     0.040093728411    -0.030250222108    12.000000000000
         C           -0.453475769330     0.912354728411     0.175040777892    12.000000000000
         C            3.297178230670    -0.232190271589    -0.026499222108    12.000000000000
         C           -1.776794769330     0.124125728411     0.062497777892    12.000000000000
         H            2.167231230670     1.544266728411    -0.557605222108     1.007825032230
         H            2.130284230670     1.177973728411     1.150271777892     1.007825032230
         H           -0.372479769330     1.382441728411     1.163397777892     1.007825032230
         H           -0.411013769330     1.718400728411    -0.569253222108     1.007825032230
         H            3.264214230670    -1.043287271589     0.704648777892     1.007825032230
         H            3.285660230670    -0.678960271589    -1.022713222108     1.007825032230
         H            4.240300230670     0.306183728411     0.099840777892     1.007825032230

  Basis Set: AUG-CC-PVTZ
    Blend: AUG-CC-PVTZ
  Basis Set: (AUG-CC-PVTZ AUX)
    Blend: AUG-CC-PVTZ-JKFIT
	 Reference Energy          =    -418.1917389034468329 [Eh]
	 Singles Energy            =      -0.0000000000000000 [Eh]
	 Same-Spin Energy          =      -0.4160583489374150 [Eh]
	 Opposite-Spin Energy      =      -1.2926678111691292 [Eh]
	 Correlation Energy        =      -1.7087261601065442 [Eh]
	 Total Energy              =    -419.9004650635533835 [Eh]

	 ================> DF-SCS-MP2 Energies <==================
	-----------------------------------------------------------
	 SCS Same-Spin Scale       =       0.3333333333333333 [-]
	 SCS Opposite-Spin Scale   =       1.2000000000000000 [-]
	 SCS Same-Spin Energy      =      -0.1386861163124717 [Eh]
	 SCS Opposite-Spin Energy  =      -1.5512013734029551 [Eh]
	 SCS Correlation Energy    =      -1.6898874897154268 [Eh]
	 SCS Total Energy          =    -419.8816263931622643 [Eh]
	-----------------------------------------------------------

  Dipole Moment: [D]
     X:    10.0750      Y:     3.4786      Z:     0.6382     Total:    10.6778

*** Psi4 exiting successfully. Buy a developer a beer!
