                               Psi4 1.3.2 release

  ==> Input File <==

--------------------------------------------------------------------------
#psi4
#
memory 32 gb

molecule  {
-1 1
  O        0.4990611    -1.1663279    -0.3746996
  O       -2.2370500    -0.5589400     1.0879600
  O       -2.5032960     0.1554020    -1.0563790
  C        1.9543268     0.7484023     0.1704626
  C        0.6435570     0.0091630    -0.0366810
  C       -0.5777410     0.8814240     0.1686100
  C        3.1729130    -0.2631210    -0.0329300
  C       -1.9010600     0.0931950     0.0560670
  H        2.0429660     1.5133360    -0.5640360
  H        2.0060190     1.1470430     1.1438410
  H       -0.4967450     1.3515110     1.1569670
  H       -0.5352790     1.6874700    -0.5756840
  H        3.1399490    -1.0742180     0.6982180
  H        3.1613950    -0.7098910    -1.0291440
  H        4.1160350     0.2752530     0.0934100
units angstrom
no_reorient  #important for SAPT in psi4, default
symmetry c1  #important for SAPT in psi4, default
}

set PROPERTIES_ORIGIN ["COM"]
properties('MP2/aug-cc-pvtz', properties = ['dipole'])
--------------------------------------------------------------------------

    Molecular point group: c1
  Charge       = -1
  Multiplicity = 1
  Basis Set: AUG-CC-PVTZ
    Blend: AUG-CC-PVTZ
  Basis Set: (AUG-CC-PVTZ AUX)
    Blend: AUG-CC-PVTZ-JKFIT

    Orbital Energies [Eh]
    ---------------------

    Doubly Occupied:

       1A    -20.412477     2A    -20.294087     3A    -20.292225
       4A    -11.200543     5A    -11.143288     6A    -11.130898
       7A    -11.125187     8A    -11.077895     9A     -1.239603
      10A     -1.161369    11A     -1.061620    12A     -0.946656
      13A     -0.862782    14A     -0.770743    15A     -0.616859
      16A     -0.535717    17A     -0.534892    18A     -0.527177
      19A     -0.469670    20A     -0.452759    21A     -0.436147
      22A     -0.414945    23A     -0.412987    24A     -0.392337
      25A     -0.379804    26A     -0.346978    27A     -0.333344
      28A     -0.278521    29A     -0.207982    30A     -0.204168
      31A     -0.190395

  @DF-RHF Final Energy:  -418.18732910469009

   => Energetics <=

    Nuclear Repulsion Energy =            356.6382809241212044
    One-Electron Energy =               -1290.7431136976590551
    Two-Electron Energy =                 515.9175036688477576
    Total Energy =                       -418.1873291046900931
  Basis Set: (AUG-CC-PVTZ AUX)
    Blend: AUG-CC-PVTZ-RI
    Molecular point group: c1

    Geometry (in Angstrom), charge = -1, multiplicity = 1:

       Center              X                  Y                   Z               Mass
    ------------   -----------------  -----------------  -----------------  -----------------
         O            0.627674086451    -1.138008791647    -0.369040583552    15.994914619570
         O           -2.108437013549    -0.530620891647     1.093619016448    15.994914619570
         O           -2.374683013549     0.183721108353    -1.050719983552    15.994914619570
         C            2.082939786451     0.776721408353     0.176121616448    12.000000000000
         C            0.772169986451     0.037482108353    -0.031021983552    12.000000000000
         C           -0.449128013549     0.909743108353     0.174269016448    12.000000000000
         C            3.301525986451    -0.234801891647    -0.027270983552    12.000000000000
         C           -1.772447013549     0.121514108353     0.061726016448    12.000000000000
         H            2.171578986451     1.541655108353    -0.558376983552     1.007825032230
         H            2.134631986451     1.175362108353     1.149500016448     1.007825032230
         H           -0.368132013549     1.379830108353     1.162626016448     1.007825032230
         H           -0.406666013549     1.715789108353    -0.570024983552     1.007825032230
         H            3.268561986451    -1.045898891647     0.703877016448     1.007825032230
         H            3.290007986451    -0.681571891647    -1.023484983552     1.007825032230
         H            4.244647986451     0.303572108353     0.099069016448     1.007825032230

  Basis Set: AUG-CC-PVTZ
    Blend: AUG-CC-PVTZ
  Basis Set: (AUG-CC-PVTZ AUX)
    Blend: AUG-CC-PVTZ-JKFIT
	 Reference Energy          =    -418.1873291046900931 [Eh]
	 Singles Energy            =      -0.0000000000000000 [Eh]
	 Same-Spin Energy          =      -0.4160842582214798 [Eh]
	 Opposite-Spin Energy      =      -1.2929330437797639 [Eh]
	 Correlation Energy        =      -1.7090173020012438 [Eh]
	 Total Energy              =    -419.8963464066913502 [Eh]

	 ================> DF-SCS-MP2 Energies <==================
	-----------------------------------------------------------
	 SCS Same-Spin Scale       =       0.3333333333333333 [-]
	 SCS Opposite-Spin Scale   =       1.2000000000000000 [-]
	 SCS Same-Spin Energy      =      -0.1386947527404933 [Eh]
	 SCS Opposite-Spin Energy  =      -1.5515196525357167 [Eh]
	 SCS Correlation Energy    =      -1.6902144052762100 [Eh]
	 SCS Total Energy          =    -419.8775435099663014 [Eh]
	-----------------------------------------------------------

  Dipole Moment: [D]
     X:    10.1147      Y:     3.4848      Z:     0.6395     Total:    10.7172

*** Psi4 exiting successfully. Buy a developer a beer!
