                               Psi4 1.4a3.dev225

  ==> Input File <==

--------------------------------------------------------------------------
#psi4
#
memory 32 gb

molecule  {
-1 1
  O        1.0745520     1.3418620    -0.8745480
  O       -1.1230780    -1.1034960    -0.8170800
  O       -2.9206860    -0.1812610     0.2330210
  C        1.4738630    -0.3704550     0.7611780
  C        0.6286860     0.6706690     0.0605170
  C       -0.7798250     0.8397660     0.5534010
  C        2.7202340    -0.7612590    -0.0182770
  C       -1.6884567    -0.2426179    -0.0631356
  H        1.7414500     0.0432240     1.7443780
  H        0.8355880    -1.2371210     0.9565080
  H       -0.8294850     0.7587360     1.6458800
  H       -1.1523820     1.8284630     0.2671350
  H        2.4446610    -1.1885100    -0.9860420
  H        3.3521650     0.1095510    -0.2043800
  H        3.3054110    -1.5035610     0.5312540
units angstrom
no_reorient  #important for SAPT in psi4, default
symmetry c1  #important for SAPT in psi4, default
}

set PROPERTIES_ORIGIN ["COM"]
properties('MP2/aug-cc-pvtz', properties = ['dipole'])
--------------------------------------------------------------------------

    Molecular point group: c1
  Charge       = -1
  Multiplicity = 1
  Basis Set: AUG-CC-PVTZ
    Blend: AUG-CC-PVTZ
  Basis Set: (AUG-CC-PVTZ AUX)
    Blend: AUG-CC-PVTZ-JKFIT

    Orbital Energies [Eh]
    ---------------------

    Doubly Occupied:

       1A    -20.401731     2A    -20.312832     3A    -20.310096
       4A    -11.191407     5A    -11.164376     6A    -11.108707
       7A    -11.102755     8A    -11.083023     9A     -1.231865
      10A     -1.177736    11A     -1.077337    12A     -0.933657
      13A     -0.867061    14A     -0.754136    15A     -0.604045
      16A     -0.549058    17A     -0.515092    18A     -0.504883
      19A     -0.482165    20A     -0.449544    21A     -0.441749
      22A     -0.405332    23A     -0.398506    24A     -0.390354
      25A     -0.379094    26A     -0.349012    27A     -0.334317
      28A     -0.277451    29A     -0.227420    30A     -0.218532
      31A     -0.208531

  @DF-RHF Final Energy:  -418.20725258448272

   => Energetics <=

    Nuclear Repulsion Energy =            362.6067594104965224
    One-Electron Energy =               -1302.7244174505115097
    Two-Electron Energy =                 521.9104054555322136
    Total Energy =                       -418.2072525844827169
  Basis Set: (AUG-CC-PVTZ AUX)
    Blend: AUG-CC-PVTZ-RI
    Molecular point group: c1

    Geometry (in Angstrom), charge = -1, multiplicity = 1:

       Center              X                  Y                   Z               Mass
    ------------   -----------------  -----------------  -----------------  -----------------
         O            1.156827955016     1.330143391118    -0.841338414757    15.994914619570
         O           -1.040802044984    -1.115214608882    -0.783870414757    15.994914619570
         O           -2.838410044984    -0.192979608882     0.266230585243    15.994914619570
         C            1.556138955016    -0.382173608882     0.794387585243    12.000000000000
         C            0.710961955016     0.658950391118     0.093726585243    12.000000000000
         C           -0.697549044984     0.828047391118     0.586610585243    12.000000000000
         C            2.802509955016    -0.772977608882     0.014932585243    12.000000000000
         C           -1.606180744984    -0.254336508882    -0.029926014757    12.000000000000
         H            1.823725955016     0.031505391118     1.777587585243     1.007825032230
         H            0.917863955016    -1.248839608882     0.989717585243     1.007825032230
         H           -0.747209044984     0.747017391118     1.679089585243     1.007825032230
         H           -1.070106044984     1.816744391118     0.300344585243     1.007825032230
         H            2.526936955016    -1.200228608882    -0.952832414757     1.007825032230
         H            3.434440955016     0.097832391118    -0.171170414757     1.007825032230
         H            3.387686955016    -1.515279608882     0.564463585243     1.007825032230

  Basis Set: AUG-CC-PVTZ
    Blend: AUG-CC-PVTZ
  Basis Set: (AUG-CC-PVTZ AUX)
    Blend: AUG-CC-PVTZ-JKFIT
	 Reference Energy          =    -418.2072525844827169 [Eh]
	 Singles Energy            =      -0.0000000000000000 [Eh]
	 Same-Spin Energy          =      -0.4170279520340501 [Eh]
	 Opposite-Spin Energy      =      -1.2930226096745734 [Eh]
	 Correlation Energy        =      -1.7100505617086235 [Eh]
	 Total Energy              =    -419.9173031461913297 [Eh]

	 ================> DF-SCS-MP2 Energies <==================
	-----------------------------------------------------------
	 SCS Same-Spin Scale       =       0.3333333333333333 [-]
	 SCS Opposite-Spin Scale   =       1.2000000000000000 [-]
	 SCS Same-Spin Energy      =      -0.1390093173446834 [Eh]
	 SCS Opposite-Spin Energy  =      -1.5516271316094881 [Eh]
	 SCS Correlation Energy    =      -1.6906364489541714 [Eh]
	 SCS Total Energy          =    -419.8978890334369112 [Eh]
	-----------------------------------------------------------

  Dipole Moment: [D]
     X:     6.8538      Y:     1.3494      Z:     3.2359     Total:     7.6984

*** Psi4 exiting successfully. Buy a developer a beer!
