                               Psi4 1.3.2 release

  ==> Input File <==

--------------------------------------------------------------------------
#psi4
#
memory 32 gb

molecule  {
-1 1
  O        0.5632720    -1.1719080    -0.3765930
  O       -2.2370500    -0.5589400     1.0879600
  O       -2.5032960     0.1554020    -1.0563790
  C        1.9865672     0.6929237     0.1538331
  C        0.6435570     0.0091630    -0.0366810
  C       -0.5698764     0.8916989     0.1713144
  C        3.1729130    -0.2631210    -0.0329300
  C       -1.9010600     0.0931950     0.0560670
  H        2.0429660     1.5133360    -0.5640360
  H        2.0060190     1.1470430     1.1438410
  H       -0.4967450     1.3515110     1.1569670
  H       -0.5352790     1.6874700    -0.5756840
  H        3.1399490    -1.0742180     0.6982180
  H        3.1613950    -0.7098910    -1.0291440
  H        4.1160350     0.2752530     0.0934100
units angstrom
no_reorient  #important for SAPT in psi4, default
symmetry c1  #important for SAPT in psi4, default
}

set PROPERTIES_ORIGIN ["COM"]
properties('MP2/aug-cc-pvtz', properties = ['dipole'])
--------------------------------------------------------------------------

    Molecular point group: c1
  Charge       = -1
  Multiplicity = 1
  Basis Set: AUG-CC-PVTZ
    Blend: AUG-CC-PVTZ
  Basis Set: (AUG-CC-PVTZ AUX)
    Blend: AUG-CC-PVTZ-JKFIT

    Orbital Energies [Eh]
    ---------------------

    Doubly Occupied:

       1A    -20.410930     2A    -20.296614     3A    -20.294846
       4A    -11.200136     5A    -11.146863     6A    -11.129221
       7A    -11.120952     8A    -11.081540     9A     -1.239547
      10A     -1.163554    11A     -1.063936    12A     -0.948612
      13A     -0.867451    14A     -0.766743    15A     -0.611773
      16A     -0.536470    17A     -0.529434    18A     -0.527262
      19A     -0.471566    20A     -0.455992    21A     -0.438080
      22A     -0.409219    23A     -0.406320    24A     -0.404774
      25A     -0.378744    26A     -0.348165    27A     -0.336320
      28A     -0.280592    29A     -0.210455    30A     -0.205660
      31A     -0.192647

  @DF-RHF Final Energy:  -418.19538258682456

   => Energetics <=

    Nuclear Repulsion Energy =            356.4963286761794734
    One-Electron Energy =               -1290.4345854877917645
    Two-Electron Energy =                 515.7428742247877835
    Total Energy =                       -418.1953825868245076
  Basis Set: (AUG-CC-PVTZ AUX)
    Blend: AUG-CC-PVTZ-RI
    Molecular point group: c1

    Geometry (in Angstrom), charge = -1, multiplicity = 1:

       Center              X                  Y                   Z               Mass
    ------------   -----------------  -----------------  -----------------  -----------------
         O            0.678773771495    -1.138097755835    -0.369218173429    15.994914619570
         O           -2.121548228505    -0.525129755835     1.095334826571    15.994914619570
         O           -2.387794228505     0.189212244165    -1.049004173429    15.994914619570
         C            2.102068971495     0.726733944165     0.161207926571    12.000000000000
         C            0.759058771495     0.042973244165    -0.029306173429    12.000000000000
         C           -0.454374628505     0.925509144165     0.178689226571    12.000000000000
         C            3.288414771495    -0.229310755835    -0.025555173429    12.000000000000
         C           -1.785558228505     0.127005244165     0.063441826571    12.000000000000
         H            2.158467771495     1.547146244165    -0.556661173429     1.007825032230
         H            2.121520771495     1.180853244165     1.151215826571     1.007825032230
         H           -0.381243228505     1.385321244165     1.164341826571     1.007825032230
         H           -0.419777228505     1.721280244165    -0.568309173429     1.007825032230
         H            3.255450771495    -1.040407755835     0.705592826571     1.007825032230
         H            3.276896771495    -0.676080755835    -1.021769173429     1.007825032230
         H            4.231536771495     0.309063244165     0.100784826571     1.007825032230

  Basis Set: AUG-CC-PVTZ
    Blend: AUG-CC-PVTZ
  Basis Set: (AUG-CC-PVTZ AUX)
    Blend: AUG-CC-PVTZ-JKFIT
	 Reference Energy          =    -418.1953825868245644 [Eh]
	 Singles Energy            =      -0.0000000000000000 [Eh]
	 Same-Spin Energy          =      -0.4161136879942041 [Eh]
	 Opposite-Spin Energy      =      -1.2924697575400657 [Eh]
	 Correlation Energy        =      -1.7085834455342699 [Eh]
	 Total Energy              =    -419.9039660323588237 [Eh]

	 ================> DF-SCS-MP2 Energies <==================
	-----------------------------------------------------------
	 SCS Same-Spin Scale       =       0.3333333333333333 [-]
	 SCS Opposite-Spin Scale   =       1.2000000000000000 [-]
	 SCS Same-Spin Energy      =      -0.1387045626647347 [Eh]
	 SCS Opposite-Spin Energy  =      -1.5509637090480788 [Eh]
	 SCS Correlation Energy    =      -1.6896682717128135 [Eh]
	 SCS Total Energy          =    -419.8850508585373973 [Eh]
	-----------------------------------------------------------

  Dipole Moment: [D]
     X:     9.9641      Y:     3.4651      Z:     0.6356     Total:    10.5685

*** Psi4 exiting successfully. Buy a developer a beer!
