                               Psi4 1.3.2 release

  ==> Input File <==

--------------------------------------------------------------------------
#psi4
#
memory 32 gb

molecule  {
-1 1
  O        0.5632720    -1.1719080    -0.3765930
  O       -2.2370500    -0.5589400     1.0879600
  O       -2.5032960     0.1554020    -1.0563790
  C        1.9927080     0.6815170     0.1510220
  C        0.6435570     0.0091630    -0.0366810
  C       -0.5777410     0.8814240     0.1686100
  C        3.1729130    -0.2631210    -0.0329300
  C       -1.9275977     0.0416870     0.1375696
  H        2.0429660     1.5133360    -0.5640360
  H        2.0060190     1.1470430     1.1438410
  H       -0.4967450     1.3515110     1.1569670
  H       -0.5352790     1.6874700    -0.5756840
  H        3.1399490    -1.0742180     0.6982180
  H        3.1613950    -0.7098910    -1.0291440
  H        4.1160350     0.2752530     0.0934100
units angstrom
no_reorient  #important for SAPT in psi4, default
symmetry c1  #important for SAPT in psi4, default
}

set PROPERTIES_ORIGIN ["COM"]
properties('MP2/aug-cc-pvtz', properties = ['dipole'])
--------------------------------------------------------------------------

    Molecular point group: c1
  Charge       = -1
  Multiplicity = 1
  Basis Set: AUG-CC-PVTZ
    Blend: AUG-CC-PVTZ
  Basis Set: (AUG-CC-PVTZ AUX)
    Blend: AUG-CC-PVTZ-JKFIT

    Orbital Energies [Eh]
    ---------------------

    Doubly Occupied:

       1A    -20.407723     2A    -20.318724     3A    -20.277518
       4A    -11.196687     5A    -11.144758     6A    -11.127686
       7A    -11.119198     8A    -11.076935     9A     -1.237660
      10A     -1.212056    11A     -1.049791    12A     -0.947333
      13A     -0.860191    14A     -0.761914    15A     -0.606495
      16A     -0.535173    17A     -0.526700    18A     -0.523735
      19A     -0.474688    20A     -0.449778    21A     -0.445315
      22A     -0.415518    23A     -0.406130    24A     -0.403927
      25A     -0.381292    26A     -0.360822    27A     -0.342982
      28A     -0.278025    29A     -0.216624    30A     -0.192122
      31A     -0.189070

  @DF-RHF Final Energy:  -418.18420742050864

   => Energetics <=

    Nuclear Repulsion Energy =            356.8494473429225877
    One-Electron Energy =               -1291.0941687577148969
    Two-Electron Energy =                 516.0605139942837241
    Total Energy =                       -418.1842074205086419
  Basis Set: (AUG-CC-PVTZ AUX)
    Blend: AUG-CC-PVTZ-RI
    Molecular point group: c1

    Geometry (in Angstrom), charge = -1, multiplicity = 1:

       Center              X                  Y                   Z               Mass
    ------------   -----------------  -----------------  -----------------  -----------------
         O            0.681721784514    -1.130463203752    -0.377144538275    15.994914619570
         O           -2.118600215486    -0.517495203752     1.087408461725    15.994914619570
         O           -2.384846215486     0.196846796248    -1.056930538275    15.994914619570
         C            2.111157784514     0.722961796248     0.150470461725    12.000000000000
         C            0.762006784514     0.050607796248    -0.037232538275    12.000000000000
         C           -0.459291215486     0.922868796248     0.168058461725    12.000000000000
         C            3.291362784514    -0.221676203752    -0.033481538275    12.000000000000
         C           -1.809147915486     0.083131796248     0.137018061725    12.000000000000
         H            2.161415784514     1.554780796248    -0.564587538275     1.007825032230
         H            2.124468784514     1.188487796248     1.143289461725     1.007825032230
         H           -0.378295215486     1.392955796248     1.156415461725     1.007825032230
         H           -0.416829215486     1.728914796248    -0.576235538275     1.007825032230
         H            3.258398784514    -1.032773203752     0.697666461725     1.007825032230
         H            3.279844784514    -0.668446203752    -1.029695538275     1.007825032230
         H            4.234484784514     0.316697796248     0.092858461725     1.007825032230

  Basis Set: AUG-CC-PVTZ
    Blend: AUG-CC-PVTZ
  Basis Set: (AUG-CC-PVTZ AUX)
    Blend: AUG-CC-PVTZ-JKFIT
	 Reference Energy          =    -418.1842074205086419 [Eh]
	 Singles Energy            =      -0.0000000000000000 [Eh]
	 Same-Spin Energy          =      -0.4154128879665938 [Eh]
	 Opposite-Spin Energy      =      -1.2906559848228567 [Eh]
	 Correlation Energy        =      -1.7060688727894506 [Eh]
	 Total Energy              =    -419.8902762932980863 [Eh]

	 ================> DF-SCS-MP2 Energies <==================
	-----------------------------------------------------------
	 SCS Same-Spin Scale       =       0.3333333333333333 [-]
	 SCS Opposite-Spin Scale   =       1.2000000000000000 [-]
	 SCS Same-Spin Energy      =      -0.1384709626555313 [Eh]
	 SCS Opposite-Spin Energy  =      -1.5487871817874279 [Eh]
	 SCS Correlation Energy    =      -1.6872581444429593 [Eh]
	 SCS Total Energy          =    -419.8714655649516203 [Eh]
	-----------------------------------------------------------

  Dipole Moment: [D]
     X:     9.8021      Y:     3.0259      Z:     1.5532     Total:    10.3754

*** Psi4 exiting successfully. Buy a developer a beer!
