                               Psi4 1.3.2 release

  ==> Input File <==

--------------------------------------------------------------------------
#psi4
#
memory 32 gb

molecule  {
-1 1
  O        0.5632720    -1.1719080    -0.3765930
  O       -2.2370500    -0.5589400     1.0879600
  O       -2.5032960     0.1554020    -1.0563790
  C        1.9927080     0.6815170     0.1510220
  C        0.6435570     0.0091630    -0.0366810
  C       -0.5777410     0.8814240     0.1686100
  C        3.1729130    -0.2631210    -0.0329300
  C       -1.8760042     0.0465521     0.1171748
  H        2.0429660     1.5133360    -0.5640360
  H        2.0060190     1.1470430     1.1438410
  H       -0.4967450     1.3515110     1.1569670
  H       -0.4834495     1.7015837    -0.5552228
  H        3.1399490    -1.0742180     0.6982180
  H        3.1613950    -0.7098910    -1.0291440
  H        4.1160350     0.2752530     0.0934100
units angstrom
no_reorient  #important for SAPT in psi4, default
symmetry c1  #important for SAPT in psi4, default
}

set PROPERTIES_ORIGIN ["COM"]
properties('MP2/aug-cc-pvtz', properties = ['dipole'])
--------------------------------------------------------------------------

    Molecular point group: c1
  Charge       = -1
  Multiplicity = 1
  Basis Set: AUG-CC-PVTZ
    Blend: AUG-CC-PVTZ
  Basis Set: (AUG-CC-PVTZ AUX)
    Blend: AUG-CC-PVTZ-JKFIT

    Orbital Energies [Eh]
    ---------------------

    Doubly Occupied:

       1A    -20.410644     2A    -20.312890     3A    -20.278552
       4A    -11.199862     5A    -11.146044     6A    -11.130300
       7A    -11.121060     8A    -11.083795     9A     -1.240452
      10A     -1.188524    11A     -1.043537    12A     -0.950219
      13A     -0.869373    14A     -0.766918    15A     -0.611039
      16A     -0.542649    17A     -0.530445    18A     -0.526398
      19A     -0.473574    20A     -0.453112    21A     -0.444926
      22A     -0.415815    23A     -0.408313    24A     -0.402686
      25A     -0.375993    26A     -0.350687    27A     -0.340385
      28A     -0.281208    29A     -0.214577    30A     -0.194909
      31A     -0.187387

  @DF-RHF Final Energy:  -418.18605700379027

   => Energetics <=

    Nuclear Repulsion Energy =            357.0012339220101012
    One-Electron Energy =               -1291.3820333776645839
    Two-Electron Energy =                 516.1947424518642720
    Total Energy =                       -418.1860570037902107
  Basis Set: (AUG-CC-PVTZ AUX)
    Blend: AUG-CC-PVTZ-RI
    Molecular point group: c1

    Geometry (in Angstrom), charge = -1, multiplicity = 1:

       Center              X                  Y                   Z               Mass
    ------------   -----------------  -----------------  -----------------  -----------------
         O            0.675885902438    -1.131094337651    -0.375196370444    15.994914619570
         O           -2.124436097562    -0.518126337651     1.089356629556    15.994914619570
         O           -2.390682097562     0.196215662349    -1.054982370444    15.994914619570
         C            2.105321902438     0.722330662349     0.152418629556    12.000000000000
         C            0.756170902438     0.049976662349    -0.035284370444    12.000000000000
         C           -0.465127097562     0.922237662349     0.170006629556    12.000000000000
         C            3.285526902438    -0.222307337651    -0.031533370444    12.000000000000
         C           -1.763390297562     0.087365762349     0.118571429556    12.000000000000
         H            2.155579902438     1.554149662349    -0.562639370444     1.007825032230
         H            2.118632902438     1.187856662349     1.145237629556     1.007825032230
         H           -0.384131097562     1.392324662349     1.158363629556     1.007825032230
         H           -0.370835597562     1.742397362349    -0.553826170444     1.007825032230
         H            3.252562902438    -1.033404337651     0.699614629556     1.007825032230
         H            3.274008902438    -0.669077337651    -1.027747370444     1.007825032230
         H            4.228648902438     0.316066662349     0.094806629556     1.007825032230

  Basis Set: AUG-CC-PVTZ
    Blend: AUG-CC-PVTZ
  Basis Set: (AUG-CC-PVTZ AUX)
    Blend: AUG-CC-PVTZ-JKFIT
	 Reference Energy          =    -418.1860570037902676 [Eh]
	 Singles Energy            =      -0.0000000000000000 [Eh]
	 Same-Spin Energy          =      -0.4162415547864212 [Eh]
	 Opposite-Spin Energy      =      -1.2925556610565285 [Eh]
	 Correlation Energy        =      -1.7087972158429496 [Eh]
	 Total Energy              =    -419.8948542196332028 [Eh]

	 ================> DF-SCS-MP2 Energies <==================
	-----------------------------------------------------------
	 SCS Same-Spin Scale       =       0.3333333333333333 [-]
	 SCS Opposite-Spin Scale   =       1.2000000000000000 [-]
	 SCS Same-Spin Energy      =      -0.1387471849288071 [Eh]
	 SCS Opposite-Spin Energy  =      -1.5510667932678341 [Eh]
	 SCS Correlation Energy    =      -1.6898139781966413 [Eh]
	 SCS Total Energy          =    -419.8758709819869068 [Eh]
	-----------------------------------------------------------

  Dipole Moment: [D]
     X:    10.1228      Y:     3.2137      Z:     1.4047     Total:    10.7131

*** Psi4 exiting successfully. Buy a developer a beer!
