                               Psi4 1.4a3.dev225

  ==> Input File <==

--------------------------------------------------------------------------
#psi4
#
memory 32 gb

molecule  {
-1 1
  O        1.0745520     1.3418620    -0.8745480
  O       -1.1230780    -1.1034960    -0.8170800
  O       -2.9206860    -0.1812610     0.2330210
  C        1.4738630    -0.3704550     0.7611780
  C        0.6286860     0.6706690     0.0605170
  C       -0.7985825     0.8420179     0.5599649
  C        2.7202340    -0.7612590    -0.0182770
  C       -1.7002430    -0.2566580    -0.0711330
  H        1.7414500     0.0432240     1.7443780
  H        0.8355880    -1.2371210     0.9565080
  H       -0.8294850     0.7587360     1.6458800
  H       -1.1523820     1.8284630     0.2671350
  H        2.4446610    -1.1885100    -0.9860420
  H        3.3521650     0.1095510    -0.2043800
  H        3.3054110    -1.5035610     0.5312540
units angstrom
no_reorient  #important for SAPT in psi4, default
symmetry c1  #important for SAPT in psi4, default
}

set PROPERTIES_ORIGIN ["COM"]
properties('MP2/aug-cc-pvtz', properties = ['dipole'])
--------------------------------------------------------------------------

    Molecular point group: c1
  Charge       = -1
  Multiplicity = 1
  Basis Set: AUG-CC-PVTZ
    Blend: AUG-CC-PVTZ
  Basis Set: (AUG-CC-PVTZ AUX)
    Blend: AUG-CC-PVTZ-JKFIT

    Orbital Energies [Eh]
    ---------------------

    Doubly Occupied:

       1A    -20.400544     2A    -20.313850     3A    -20.310383
       4A    -11.190536     5A    -11.163306     6A    -11.107998
       7A    -11.102309     8A    -11.080679     9A     -1.230197
      10A     -1.182897    11A     -1.083996    12A     -0.931970
      13A     -0.861219    14A     -0.752895    15A     -0.600304
      16A     -0.547036    17A     -0.513075    18A     -0.504234
      19A     -0.479688    20A     -0.449873    21A     -0.442297
      22A     -0.408533    23A     -0.399111    24A     -0.390171
      25A     -0.378738    26A     -0.349574    27A     -0.337830
      28A     -0.275067    29A     -0.229460    30A     -0.216020
      31A     -0.211193

  @DF-RHF Final Energy:  -418.20920696215404

   => Energetics <=

    Nuclear Repulsion Energy =            362.3797431148094574
    One-Electron Energy =               -1302.2879317141139381
    Two-Electron Energy =                 521.6989816371503821
    Total Energy =                       -418.2092069621540986
  Basis Set: (AUG-CC-PVTZ AUX)
    Blend: AUG-CC-PVTZ-RI
    Molecular point group: c1

    Geometry (in Angstrom), charge = -1, multiplicity = 1:

       Center              X                  Y                   Z               Mass
    ------------   -----------------  -----------------  -----------------  -----------------
         O            1.160014039267     1.331373041599    -0.841188883534    15.994914619570
         O           -1.037615960733    -1.113984958401    -0.783720883534    15.994914619570
         O           -2.835223960733    -0.191749958401     0.266380116466    15.994914619570
         C            1.559325039267    -0.380943958401     0.794537116466    12.000000000000
         C            0.714148039267     0.660180041599     0.093876116466    12.000000000000
         C           -0.713120460733     0.831528941599     0.593324016466    12.000000000000
         C            2.805696039267    -0.771747958401     0.015082116466    12.000000000000
         C           -1.614780960733    -0.267146958401    -0.037773883534    12.000000000000
         H            1.826912039267     0.032735041599     1.777737116466     1.007825032230
         H            0.921050039267    -1.247609958401     0.989867116466     1.007825032230
         H           -0.744022960733     0.748247041599     1.679239116466     1.007825032230
         H           -1.066919960733     1.817974041599     0.300494116466     1.007825032230
         H            2.530123039267    -1.198998958401    -0.952682883534     1.007825032230
         H            3.437627039267     0.099062041599    -0.171020883534     1.007825032230
         H            3.390873039267    -1.514049958401     0.564613116466     1.007825032230

  Basis Set: AUG-CC-PVTZ
    Blend: AUG-CC-PVTZ
  Basis Set: (AUG-CC-PVTZ AUX)
    Blend: AUG-CC-PVTZ-JKFIT
	 Reference Energy          =    -418.2092069621540418 [Eh]
	 Singles Energy            =      -0.0000000000000000 [Eh]
	 Same-Spin Energy          =      -0.4165554079751131 [Eh]
	 Opposite-Spin Energy      =      -1.2921224228322488 [Eh]
	 Correlation Energy        =      -1.7086778308073618 [Eh]
	 Total Energy              =    -419.9178847929613880 [Eh]

	 ================> DF-SCS-MP2 Energies <==================
	-----------------------------------------------------------
	 SCS Same-Spin Scale       =       0.3333333333333333 [-]
	 SCS Opposite-Spin Scale   =       1.2000000000000000 [-]
	 SCS Same-Spin Energy      =      -0.1388518026583710 [Eh]
	 SCS Opposite-Spin Energy  =      -1.5505469073986984 [Eh]
	 SCS Correlation Energy    =      -1.6893987100570693 [Eh]
	 SCS Total Energy          =    -419.8986056722110902 [Eh]
	-----------------------------------------------------------

  Dipole Moment: [D]
     X:     6.7686      Y:     1.2742      Z:     3.1961     Total:     7.5929

*** Psi4 exiting successfully. Buy a developer a beer!
