                               Psi4 1.3.2 release

  ==> Input File <==

--------------------------------------------------------------------------
#psi4
#
memory 32 gb

molecule  {
-1 1
  O        0.5632720    -1.1719080    -0.3765930
  O       -2.2902605    -0.5805372     1.0548565
  O       -2.5493598     0.1145580    -1.0317496
  C        1.9927080     0.6815170     0.1510220
  C        0.6435570     0.0091630    -0.0366810
  C       -0.5777410     0.8814240     0.1686100
  C        3.1729130    -0.2631210    -0.0329300
  C       -1.9010600     0.0931950     0.0560670
  H        2.0429660     1.5133360    -0.5640360
  H        2.0060190     1.1470430     1.1438410
  H       -0.4967450     1.3515110     1.1569670
  H       -0.5352790     1.6874700    -0.5756840
  H        3.1399490    -1.0742180     0.6982180
  H        3.1613950    -0.7098910    -1.0291440
  H        4.1160350     0.2752530     0.0934100
units angstrom
no_reorient  #important for SAPT in psi4, default
symmetry c1  #important for SAPT in psi4, default
}

set PROPERTIES_ORIGIN ["COM"]
properties('MP2/aug-cc-pvtz', properties = ['dipole'])
--------------------------------------------------------------------------

    Molecular point group: c1
  Charge       = -1
  Multiplicity = 1
  Basis Set: AUG-CC-PVTZ
    Blend: AUG-CC-PVTZ
  Basis Set: (AUG-CC-PVTZ AUX)
    Blend: AUG-CC-PVTZ-JKFIT

    Orbital Energies [Eh]
    ---------------------

    Doubly Occupied:

       1A    -20.413223     2A    -20.290195     3A    -20.288385
       4A    -11.203413     5A    -11.143144     6A    -11.132888
       7A    -11.122750     8A    -11.090297     9A     -1.242317
      10A     -1.163099    11A     -1.051924    12A     -0.952460
      13A     -0.873177    14A     -0.769996    15A     -0.614762
      16A     -0.539462    17A     -0.532969    18A     -0.528850
      19A     -0.472616    20A     -0.457923    21A     -0.440232
      22A     -0.411993    23A     -0.410044    24A     -0.403653
      25A     -0.373444    26A     -0.348534    27A     -0.333867
      28A     -0.283457    29A     -0.212267    30A     -0.198485
      31A     -0.184535

  @DF-RHF Final Energy:  -418.19143545549741

   => Energetics <=

    Nuclear Repulsion Energy =            356.1261618583926634
    One-Electron Energy =               -1289.6664766807186879
    Two-Electron Energy =                 515.3488793668286689
    Total Energy =                       -418.1914354554974125
  Basis Set: (AUG-CC-PVTZ AUX)
    Blend: AUG-CC-PVTZ-RI
    Molecular point group: c1

    Geometry (in Angstrom), charge = -1, multiplicity = 1:

       Center              X                  Y                   Z               Mass
    ------------   -----------------  -----------------  -----------------  -----------------
         O            0.692756527727    -1.127154378526    -0.367464615108    15.994914619570
         O           -2.160775972273    -0.535783578526     1.063984884892    15.994914619570
         O           -2.419875272273     0.159311621474    -1.022621215108    15.994914619570
         C            2.122192527727     0.726270621474     0.160150384892    12.000000000000
         C            0.773041527727     0.053916621474    -0.027552615108    12.000000000000
         C           -0.448256472273     0.926177621474     0.177738384892    12.000000000000
         C            3.302397527727    -0.218367378526    -0.023801615108    12.000000000000
         C           -1.771575472273     0.137948621474     0.065195384892    12.000000000000
         H            2.172450527727     1.558089621474    -0.554907615108     1.007825032230
         H            2.135503527727     1.191796621474     1.152969384892     1.007825032230
         H           -0.367260472273     1.396264621474     1.166095384892     1.007825032230
         H           -0.405794472273     1.732223621474    -0.566555615108     1.007825032230
         H            3.269433527727    -1.029464378526     0.707346384892     1.007825032230
         H            3.290879527727    -0.665137378526    -1.020015615108     1.007825032230
         H            4.245519527727     0.320006621474     0.102538384892     1.007825032230

  Basis Set: AUG-CC-PVTZ
    Blend: AUG-CC-PVTZ
  Basis Set: (AUG-CC-PVTZ AUX)
    Blend: AUG-CC-PVTZ-JKFIT
	 Reference Energy          =    -418.1914354554974125 [Eh]
	 Singles Energy            =      -0.0000000000000000 [Eh]
	 Same-Spin Energy          =      -0.4161685987297695 [Eh]
	 Opposite-Spin Energy      =      -1.2926022272657178 [Eh]
	 Correlation Energy        =      -1.7087708259954875 [Eh]
	 Total Energy              =    -419.9002062814928991 [Eh]

	 ================> DF-SCS-MP2 Energies <==================
	-----------------------------------------------------------
	 SCS Same-Spin Scale       =       0.3333333333333333 [-]
	 SCS Opposite-Spin Scale   =       1.2000000000000000 [-]
	 SCS Same-Spin Energy      =      -0.1387228662432565 [Eh]
	 SCS Opposite-Spin Energy  =      -1.5511226727188614 [Eh]
	 SCS Correlation Energy    =      -1.6898455389621179 [Eh]
	 SCS Total Energy          =    -419.8812809944595301 [Eh]
	-----------------------------------------------------------

  Dipole Moment: [D]
     X:    10.3337      Y:     3.6126      Z:     0.6490     Total:    10.9662

*** Psi4 exiting successfully. Buy a developer a beer!
