                               Psi4 1.4a3.dev225

  ==> Input File <==

--------------------------------------------------------------------------
#psi4
#
memory 32 gb

molecule  {
-1 1
  O        1.0745520     1.3418620    -0.8745480
  O       -1.1230780    -1.1034960    -0.8170800
  O       -2.9206860    -0.1812610     0.2330210
  C        1.4738630    -0.3704550     0.7611780
  C        0.6566164     0.6362632     0.0836716
  C       -0.7798250     0.8397660     0.5534010
  C        2.7202340    -0.7612590    -0.0182770
  C       -1.7002430    -0.2566580    -0.0711330
  H        1.7414500     0.0432240     1.7443780
  H        0.8355880    -1.2371210     0.9565080
  H       -0.8294850     0.7587360     1.6458800
  H       -1.1523820     1.8284630     0.2671350
  H        2.4446610    -1.1885100    -0.9860420
  H        3.3521650     0.1095510    -0.2043800
  H        3.3054110    -1.5035610     0.5312540
units angstrom
no_reorient  #important for SAPT in psi4, default
symmetry c1  #important for SAPT in psi4, default
}

set PROPERTIES_ORIGIN ["COM"]
properties('MP2/aug-cc-pvtz', properties = ['dipole'])
--------------------------------------------------------------------------

    Molecular point group: c1
  Charge       = -1
  Multiplicity = 1
  Basis Set: AUG-CC-PVTZ
    Blend: AUG-CC-PVTZ
  Basis Set: (AUG-CC-PVTZ AUX)
    Blend: AUG-CC-PVTZ-JKFIT

    Orbital Energies [Eh]
    ---------------------

    Doubly Occupied:

       1A    -20.397659     2A    -20.313192     3A    -20.310584
       4A    -11.191903     5A    -11.163176     6A    -11.110060
       7A    -11.104655     8A    -11.081597     9A     -1.213346
      10A     -1.181934    11A     -1.083590    12A     -0.942479
      13A     -0.858500    14A     -0.761139    15A     -0.601360
      16A     -0.546316    17A     -0.514863    18A     -0.504761
      19A     -0.479444    20A     -0.447266    21A     -0.437334
      22A     -0.409376    23A     -0.399839    24A     -0.392034
      25A     -0.378987    26A     -0.343367    27A     -0.332544
      28A     -0.278855    29A     -0.228646    30A     -0.215554
      31A     -0.211057

  @DF-RHF Final Energy:  -418.20308794585179

   => Energetics <=

    Nuclear Repulsion Energy =            362.4791338013076256
    One-Electron Energy =               -1302.4936114965296383
    Two-Electron Energy =                 521.8113897493701643
    Total Energy =                       -418.2030879458518484
  Basis Set: (AUG-CC-PVTZ AUX)
    Blend: AUG-CC-PVTZ-RI
    Molecular point group: c1

    Geometry (in Angstrom), charge = -1, multiplicity = 1:

       Center              X                  Y                   Z               Mass
    ------------   -----------------  -----------------  -----------------  -----------------
         O            1.155143931982     1.335196878864    -0.842919492299    15.994914619570
         O           -1.042486068018    -1.110161121136    -0.785451492299    15.994914619570
         O           -2.840094068018    -0.187926121136     0.264649507701    15.994914619570
         C            1.554454931982    -0.377120121136     0.792806507701    12.000000000000
         C            0.737208331982     0.629598078864     0.115300107701    12.000000000000
         C           -0.699233068018     0.833100878864     0.585029507701    12.000000000000
         C            2.800825931982    -0.767924121136     0.013351507701    12.000000000000
         C           -1.619651068018    -0.263323121136    -0.039504492299    12.000000000000
         H            1.822041931982     0.036558878864     1.776006507701     1.007825032230
         H            0.916179931982    -1.243786121136     0.988136507701     1.007825032230
         H           -0.748893068018     0.752070878864     1.677508507701     1.007825032230
         H           -1.071790068018     1.821797878864     0.298763507701     1.007825032230
         H            2.525252931982    -1.195175121136    -0.954413492299     1.007825032230
         H            3.432756931982     0.102885878864    -0.172751492299     1.007825032230
         H            3.386002931982    -1.510226121136     0.562882507701     1.007825032230

  Basis Set: AUG-CC-PVTZ
    Blend: AUG-CC-PVTZ
  Basis Set: (AUG-CC-PVTZ AUX)
    Blend: AUG-CC-PVTZ-JKFIT
	 Reference Energy          =    -418.2030879458517916 [Eh]
	 Singles Energy            =      -0.0000000000000000 [Eh]
	 Same-Spin Energy          =      -0.4175135438289596 [Eh]
	 Opposite-Spin Energy      =      -1.2938189064491683 [Eh]
	 Correlation Energy        =      -1.7113324502781277 [Eh]
	 Total Energy              =    -419.9144203961299127 [Eh]

	 ================> DF-SCS-MP2 Energies <==================
	-----------------------------------------------------------
	 SCS Same-Spin Scale       =       0.3333333333333333 [-]
	 SCS Opposite-Spin Scale   =       1.2000000000000000 [-]
	 SCS Same-Spin Energy      =      -0.1391711812763198 [Eh]
	 SCS Opposite-Spin Energy  =      -1.5525826877390019 [Eh]
	 SCS Correlation Energy    =      -1.6917538690153218 [Eh]
	 SCS Total Energy          =    -419.8948418148671067 [Eh]
	-----------------------------------------------------------

  Dipole Moment: [D]
     X:     6.8988      Y:     1.0982      Z:     3.3094     Total:     7.7299

*** Psi4 exiting successfully. Buy a developer a beer!
