                               Psi4 1.3.2 release

  ==> Input File <==

--------------------------------------------------------------------------
#psi4
#
memory 32 gb

molecule  {
-1 1
  O        0.5632720    -1.1719080    -0.3765930
  O       -2.2370500    -0.5589400     1.0879600
  O       -2.5032960     0.1554020    -1.0563790
  C        1.9927080     0.6815170     0.1510220
  C        0.8211884     0.0976862    -0.0119677
  C       -0.5777410     0.8814240     0.1686100
  C        3.1729130    -0.2631210    -0.0329300
  C       -1.9010600     0.0931950     0.0560670
  H        2.0429660     1.5133360    -0.5640360
  H        2.0060190     1.1470430     1.1438410
  H       -0.4967450     1.3515110     1.1569670
  H       -0.5352790     1.6874700    -0.5756840
  H        3.1399490    -1.0742180     0.6982180
  H        3.1613950    -0.7098910    -1.0291440
  H        4.1160350     0.2752530     0.0934100
units angstrom
no_reorient  #important for SAPT in psi4, default
symmetry c1  #important for SAPT in psi4, default
}

set PROPERTIES_ORIGIN ["COM"]
properties('MP2/aug-cc-pvtz', properties = ['dipole'])
--------------------------------------------------------------------------

    Molecular point group: c1
  Charge       = -1
  Multiplicity = 1
  Basis Set: AUG-CC-PVTZ
    Blend: AUG-CC-PVTZ
  Basis Set: (AUG-CC-PVTZ AUX)
    Blend: AUG-CC-PVTZ-JKFIT

    Orbital Energies [Eh]
    ---------------------

    Doubly Occupied:

       1A    -20.402008     2A    -20.293109     3A    -20.290523
       4A    -11.206478     5A    -11.144280     6A    -11.135176
       7A    -11.129922     8A    -11.088459     9A     -1.175949
      10A     -1.157933    11A     -1.059897    12A     -0.997035
      13A     -0.857796    14A     -0.792888    15A     -0.622593
      16A     -0.550392    17A     -0.546140    18A     -0.509406
      19A     -0.471967    20A     -0.447265    21A     -0.433972
      22A     -0.418502    23A     -0.414783    24A     -0.391100
      25A     -0.370812    26A     -0.328228    27A     -0.305911
      28A     -0.271858    29A     -0.207461    30A     -0.205370
      31A     -0.187925

  @DF-RHF Final Energy:  -418.12576210795316

   => Energetics <=

    Nuclear Repulsion Energy =            355.6910606311312790
    One-Electron Energy =               -1288.8033704292417951
    Two-Electron Energy =                 514.9865476901574084
    Total Energy =                       -418.1257621079531646
  Basis Set: (AUG-CC-PVTZ AUX)
    Blend: AUG-CC-PVTZ-RI
    Molecular point group: c1

    Geometry (in Angstrom), charge = -1, multiplicity = 1:

       Center              X                  Y                   Z               Mass
    ------------   -----------------  -----------------  -----------------  -----------------
         O            0.660424501463    -1.145070135469    -0.371220733956    15.994914619570
         O           -2.139897498537    -0.532102135469     1.093332266044    15.994914619570
         O           -2.406143498537     0.182239864531    -1.051006733956    15.994914619570
         C            2.089860501463     0.708354864531     0.156394266044    12.000000000000
         C            0.918340901463     0.124524064531    -0.006595433956    12.000000000000
         C           -0.480588498537     0.908261864531     0.173982266044    12.000000000000
         C            3.270065501463    -0.236283135469    -0.027557733956    12.000000000000
         C           -1.803907498537     0.120032864531     0.061439266044    12.000000000000
         H            2.140118501463     1.540173864531    -0.558663733956     1.007825032230
         H            2.103171501463     1.173880864531     1.149213266044     1.007825032230
         H           -0.399592498537     1.378348864531     1.162339266044     1.007825032230
         H           -0.438126498537     1.714307864531    -0.570311733956     1.007825032230
         H            3.237101501463    -1.047380135469     0.703590266044     1.007825032230
         H            3.258547501463    -0.683053135469    -1.023771733956     1.007825032230
         H            4.213187501463     0.302090864531     0.098782266044     1.007825032230

  Basis Set: AUG-CC-PVTZ
    Blend: AUG-CC-PVTZ
  Basis Set: (AUG-CC-PVTZ AUX)
    Blend: AUG-CC-PVTZ-JKFIT
	 Reference Energy          =    -418.1257621079531646 [Eh]
	 Singles Energy            =      -0.0000000000000000 [Eh]
	 Same-Spin Energy          =      -0.4215064106938617 [Eh]
	 Opposite-Spin Energy      =      -1.3029333599680419 [Eh]
	 Correlation Energy        =      -1.7244397706619037 [Eh]
	 Total Energy              =    -419.8502018786150529 [Eh]

	 ================> DF-SCS-MP2 Energies <==================
	-----------------------------------------------------------
	 SCS Same-Spin Scale       =       0.3333333333333333 [-]
	 SCS Opposite-Spin Scale   =       1.2000000000000000 [-]
	 SCS Same-Spin Energy      =      -0.1405021368979539 [Eh]
	 SCS Opposite-Spin Energy  =      -1.5635200319616502 [Eh]
	 SCS Correlation Energy    =      -1.7040221688596042 [Eh]
	 SCS Total Energy          =    -419.8297842768127452 [Eh]
	-----------------------------------------------------------

  Dipole Moment: [D]
     X:    10.8717      Y:     3.7519      Z:     0.7158     Total:    11.5231

*** Psi4 exiting successfully. Buy a developer a beer!
