                               Psi4 1.3.2 release

  ==> Input File <==

--------------------------------------------------------------------------
#psi4
#
memory 32 gb

molecule  {
-1 1
  O        0.5632720    -1.1719080    -0.3765930
  O       -2.2370500    -0.5589400     1.0879600
  O       -2.4547222     0.1947468    -1.0784987
  C        1.9927080     0.6815170     0.1510220
  C        0.6435570     0.0091630    -0.0366810
  C       -0.5879569     0.9053582     0.0920574
  C        3.1729130    -0.2631210    -0.0329300
  C       -1.9010600     0.0931950     0.0560670
  H        2.0429660     1.5133360    -0.5640360
  H        2.0060190     1.1470430     1.1438410
  H       -0.4967450     1.3515110     1.1569670
  H       -0.5352790     1.6874700    -0.5756840
  H        3.1399490    -1.0742180     0.6982180
  H        3.1613950    -0.7098910    -1.0291440
  H        4.1160350     0.2752530     0.0934100
units angstrom
no_reorient  #important for SAPT in psi4, default
symmetry c1  #important for SAPT in psi4, default
}

set PROPERTIES_ORIGIN ["COM"]
properties('MP2/aug-cc-pvtz', properties = ['dipole'])
--------------------------------------------------------------------------

    Molecular point group: c1
  Charge       = -1
  Multiplicity = 1
  Basis Set: AUG-CC-PVTZ
    Blend: AUG-CC-PVTZ
  Basis Set: (AUG-CC-PVTZ AUX)
    Blend: AUG-CC-PVTZ-JKFIT

    Orbital Energies [Eh]
    ---------------------

    Doubly Occupied:

       1A    -20.409136     2A    -20.300390     3A    -20.296931
       4A    -11.199141     5A    -11.148124     6A    -11.129132
       7A    -11.119983     8A    -11.079574     9A     -1.238168
      10A     -1.164877    11A     -1.069964    12A     -0.948243
      13A     -0.864259    14A     -0.765807    15A     -0.609613
      16A     -0.541018    17A     -0.529182    18A     -0.523696
      19A     -0.475299    20A     -0.450634    21A     -0.437863
      22A     -0.410923    23A     -0.406552    24A     -0.403377
      25A     -0.377549    26A     -0.349421    27A     -0.333638
      28A     -0.277061    29A     -0.216599    30A     -0.202532
      31A     -0.196481

  @DF-RHF Final Energy:  -418.18770138604481

   => Energetics <=

    Nuclear Repulsion Energy =            356.8650206656179762
    One-Electron Energy =               -1291.1551163147605621
    Two-Electron Energy =                 516.1023942630977217
    Total Energy =                       -418.1877013860448642
  Basis Set: (AUG-CC-PVTZ AUX)
    Blend: AUG-CC-PVTZ-RI
    Molecular point group: c1

    Geometry (in Angstrom), charge = -1, multiplicity = 1:

       Center              X                  Y                   Z               Mass
    ------------   -----------------  -----------------  -----------------  -----------------
         O            0.673265600139    -1.143803168392    -0.357581998977    15.994914619570
         O           -2.127056399861    -0.530835168392     1.106971001023    15.994914619570
         O           -2.344728599861     0.222851631608    -1.059487698977    15.994914619570
         C            2.102701600139     0.709621831608     0.170033001023    12.000000000000
         C            0.753550600139     0.037267831608    -0.017669998977    12.000000000000
         C           -0.477963299861     0.933463031608     0.111068401023    12.000000000000
         C            3.282906600139    -0.235016168392    -0.013918998977    12.000000000000
         C           -1.791066399861     0.121299831608     0.075078001023    12.000000000000
         H            2.152959600139     1.541440831608    -0.545024998977     1.007825032230
         H            2.116012600139     1.175147831608     1.162852001023     1.007825032230
         H           -0.386751399861     1.379615831608     1.175978001023     1.007825032230
         H           -0.425285399861     1.715574831608    -0.556672998977     1.007825032230
         H            3.249942600139    -1.046113168392     0.717229001023     1.007825032230
         H            3.271388600139    -0.681786168392    -1.010132998977     1.007825032230
         H            4.226028600139     0.303357831608     0.112421001023     1.007825032230

  Basis Set: AUG-CC-PVTZ
    Blend: AUG-CC-PVTZ
  Basis Set: (AUG-CC-PVTZ AUX)
    Blend: AUG-CC-PVTZ-JKFIT
	 Reference Energy          =    -418.1877013860448074 [Eh]
	 Singles Energy            =      -0.0000000000000000 [Eh]
	 Same-Spin Energy          =      -0.4163427192463429 [Eh]
	 Opposite-Spin Energy      =      -1.2929923704973447 [Eh]
	 Correlation Energy        =      -1.7093350897436876 [Eh]
	 Total Energy              =    -419.8970364757884681 [Eh]

	 ================> DF-SCS-MP2 Energies <==================
	-----------------------------------------------------------
	 SCS Same-Spin Scale       =       0.3333333333333333 [-]
	 SCS Opposite-Spin Scale   =       1.2000000000000000 [-]
	 SCS Same-Spin Energy      =      -0.1387809064154476 [Eh]
	 SCS Opposite-Spin Energy  =      -1.5515908445968136 [Eh]
	 SCS Correlation Energy    =      -1.6903717510122613 [Eh]
	 SCS Total Energy          =    -419.8780731370570720 [Eh]
	-----------------------------------------------------------

  Dipole Moment: [D]
     X:     9.8311      Y:     3.3623      Z:     0.5640     Total:    10.4055

*** Psi4 exiting successfully. Buy a developer a beer!
