                               Psi4 1.3.2 release

  ==> Input File <==

--------------------------------------------------------------------------
#psi4
#
memory 32 gb

molecule  {
-1 1
  O        0.5632720    -1.1719080    -0.3765930
  O       -2.2370500    -0.5589400     1.0879600
  O       -2.5032960     0.1554020    -1.0563790
  C        1.9927080     0.6815170     0.1510220
  C        0.6435570     0.0091630    -0.0366810
  C       -0.5777410     0.8814240     0.1686100
  C        3.1729130    -0.2631210    -0.0329300
  C       -1.8873816     0.0792479     0.0058245
  H        2.0429660     1.5133360    -0.5640360
  H        2.0060190     1.1470430     1.1438410
  H       -0.4628430     1.3659919     1.1465589
  H       -0.5352790     1.6874700    -0.5756840
  H        3.1399490    -1.0742180     0.6982180
  H        3.1613950    -0.7098910    -1.0291440
  H        4.1160350     0.2752530     0.0934100
units angstrom
no_reorient  #important for SAPT in psi4, default
symmetry c1  #important for SAPT in psi4, default
}

set PROPERTIES_ORIGIN ["COM"]
properties('MP2/aug-cc-pvtz', properties = ['dipole'])
--------------------------------------------------------------------------

    Molecular point group: c1
  Charge       = -1
  Multiplicity = 1
  Basis Set: AUG-CC-PVTZ
    Blend: AUG-CC-PVTZ
  Basis Set: (AUG-CC-PVTZ AUX)
    Blend: AUG-CC-PVTZ-JKFIT

    Orbital Energies [Eh]
    ---------------------

    Doubly Occupied:

       1A    -20.409974     2A    -20.306477     3A    -20.284627
       4A    -11.199531     5A    -11.146602     6A    -11.130049
       7A    -11.120719     8A    -11.083463     9A     -1.239517
      10A     -1.172263    11A     -1.056342    12A     -0.949808
      13A     -0.868655    14A     -0.766672    15A     -0.610927
      16A     -0.540354    17A     -0.529952    18A     -0.526066
      19A     -0.471670    20A     -0.453589    21A     -0.441626
      22A     -0.413001    23A     -0.407786    24A     -0.402868
      25A     -0.376334    26A     -0.345902    27A     -0.338912
      28A     -0.280401    29A     -0.213793    30A     -0.201026
      31A     -0.190510

  @DF-RHF Final Energy:  -418.19216991190603

   => Energetics <=

    Nuclear Repulsion Energy =            356.8648913064292287
    One-Electron Energy =               -1291.1552901964571447
    Two-Electron Energy =                 516.0982289781219379
    Total Energy =                       -418.1921699119060349
  Basis Set: (AUG-CC-PVTZ AUX)
    Blend: AUG-CC-PVTZ-RI
    Molecular point group: c1

    Geometry (in Angstrom), charge = -1, multiplicity = 1:

       Center              X                  Y                   Z               Mass
    ------------   -----------------  -----------------  -----------------  -----------------
         O            0.677229758745    -1.134508118206    -0.363310763965    15.994914619570
         O           -2.123092241255    -0.521540118206     1.101242236035    15.994914619570
         O           -2.389338241255     0.192801881794    -1.043096763965    15.994914619570
         C            2.106665758745     0.718916881794     0.164304236035    12.000000000000
         C            0.757514758745     0.046562881794    -0.023398763965    12.000000000000
         C           -0.463783241255     0.918823881794     0.181892236035    12.000000000000
         C            3.286870758745    -0.225721118206    -0.019647763965    12.000000000000
         C           -1.773423841255     0.116647781794     0.019106736035    12.000000000000
         H            2.156923758745     1.550735881794    -0.550753763965     1.007825032230
         H            2.119976758745     1.184442881794     1.157123236035     1.007825032230
         H           -0.348885241255     1.403391781794     1.159841136035     1.007825032230
         H           -0.421321241255     1.724869881794    -0.562401763965     1.007825032230
         H            3.253906758745    -1.036818118206     0.711500236035     1.007825032230
         H            3.275352758745    -0.672491118206    -1.015861763965     1.007825032230
         H            4.229992758745     0.312652881794     0.106692236035     1.007825032230

  Basis Set: AUG-CC-PVTZ
    Blend: AUG-CC-PVTZ
  Basis Set: (AUG-CC-PVTZ AUX)
    Blend: AUG-CC-PVTZ-JKFIT
	 Reference Energy          =    -418.1921699119060349 [Eh]
	 Singles Energy            =      -0.0000000000000000 [Eh]
	 Same-Spin Energy          =      -0.4162445918071578 [Eh]
	 Opposite-Spin Energy      =      -1.2925867025088658 [Eh]
	 Correlation Energy        =      -1.7088312943160235 [Eh]
	 Total Energy              =    -419.9010012062220767 [Eh]

	 ================> DF-SCS-MP2 Energies <==================
	-----------------------------------------------------------
	 SCS Same-Spin Scale       =       0.3333333333333333 [-]
	 SCS Opposite-Spin Scale   =       1.2000000000000000 [-]
	 SCS Same-Spin Energy      =      -0.1387481972690526 [Eh]
	 SCS Opposite-Spin Energy  =      -1.5511040430106389 [Eh]
	 SCS Correlation Energy    =      -1.6898522402796914 [Eh]
	 SCS Total Energy          =    -419.8820221521857547 [Eh]
	-----------------------------------------------------------

  Dipole Moment: [D]
     X:     9.9568      Y:     3.5952      Z:     0.2042     Total:    10.5879

*** Psi4 exiting successfully. Buy a developer a beer!
