                               Psi4 1.3.2 release

  ==> Input File <==

--------------------------------------------------------------------------
#psi4
#
memory 32 gb

molecule  {
-1 1
  O        0.5632720    -1.1719080    -0.3765930
  O       -2.2188179    -0.5517779     1.0981862
  O       -2.5032960     0.1554020    -1.0563790
  C        1.9927080     0.6815170     0.1510220
  C        0.6435570     0.0091630    -0.0366810
  C       -0.5748414     0.8724879     0.1938741
  C        3.1729130    -0.2631210    -0.0329300
  C       -1.9010600     0.0931950     0.0560670
  H        2.0429660     1.5133360    -0.5640360
  H        2.0060190     1.1470430     1.1438410
  H       -0.4967450     1.3515110     1.1569670
  H       -0.5352790     1.6874700    -0.5756840
  H        3.1399490    -1.0742180     0.6982180
  H        3.1613950    -0.7098910    -1.0291440
  H        4.1160350     0.2752530     0.0934100
units angstrom
no_reorient  #important for SAPT in psi4, default
symmetry c1  #important for SAPT in psi4, default
}

set PROPERTIES_ORIGIN ["COM"]
properties('MP2/aug-cc-pvtz', properties = ['dipole'])
--------------------------------------------------------------------------

    Molecular point group: c1
  Charge       = -1
  Multiplicity = 1
  Basis Set: AUG-CC-PVTZ
    Blend: AUG-CC-PVTZ
  Basis Set: (AUG-CC-PVTZ AUX)
    Blend: AUG-CC-PVTZ-JKFIT

    Orbital Energies [Eh]
    ---------------------

    Doubly Occupied:

       1A    -20.409475     2A    -20.298452     3A    -20.294926
       4A    -11.199362     5A    -11.146829     6A    -11.129732
       7A    -11.120506     8A    -11.081933     9A     -1.238961
      10A     -1.164237    11A     -1.066053    12A     -0.949444
      13A     -0.867680    14A     -0.766287    15A     -0.611461
      16A     -0.538360    17A     -0.530102    18A     -0.525683
      19A     -0.471414    20A     -0.453147    21A     -0.439497
      22A     -0.410632    23A     -0.407583    24A     -0.403309
      25A     -0.377359    26A     -0.345046    27A     -0.337083
      28A     -0.280069    29A     -0.212360    30A     -0.205895
      31A     -0.193848

  @DF-RHF Final Energy:  -418.19485763289515

   => Energetics <=

    Nuclear Repulsion Energy =            356.8963672300150165
    One-Electron Energy =               -1291.2290008727866280
    Two-Electron Energy =                 516.1377760098764611
    Total Energy =                       -418.1948576328951503
  Basis Set: (AUG-CC-PVTZ AUX)
    Blend: AUG-CC-PVTZ-RI
    Molecular point group: c1

    Geometry (in Angstrom), charge = -1, multiplicity = 1:

       Center              X                  Y                   Z               Mass
    ------------   -----------------  -----------------  -----------------  -----------------
         O            0.676116158830    -1.135899770099    -0.372700023832    15.994914619570
         O           -2.105973741170    -0.515769670099     1.102079176168    15.994914619570
         O           -2.390451841170     0.191410229901    -1.052486023832    15.994914619570
         C            2.105552158830     0.717525229901     0.154914976168    12.000000000000
         C            0.756401158830     0.045171229901    -0.032788023832    12.000000000000
         C           -0.461997241170     0.908496129901     0.197767076168    12.000000000000
         C            3.285757158830    -0.227112770099    -0.029037023832    12.000000000000
         C           -1.788215841170     0.129203229901     0.059959976168    12.000000000000
         H            2.155810158830     1.549344229901    -0.560143023832     1.007825032230
         H            2.118863158830     1.183051229901     1.147733976168     1.007825032230
         H           -0.383900841170     1.387519229901     1.160859976168     1.007825032230
         H           -0.422434841170     1.723478229901    -0.571791023832     1.007825032230
         H            3.252793158830    -1.038209770099     0.702110976168     1.007825032230
         H            3.274239158830    -0.673882770099    -1.025251023832     1.007825032230
         H            4.228879158830     0.311261229901     0.097302976168     1.007825032230

  Basis Set: AUG-CC-PVTZ
    Blend: AUG-CC-PVTZ
  Basis Set: (AUG-CC-PVTZ AUX)
    Blend: AUG-CC-PVTZ-JKFIT
	 Reference Energy          =    -418.1948576328951503 [Eh]
	 Singles Energy            =      -0.0000000000000000 [Eh]
	 Same-Spin Energy          =      -0.4162783502315467 [Eh]
	 Opposite-Spin Energy      =      -1.2926567071878070 [Eh]
	 Correlation Energy        =      -1.7089350574193538 [Eh]
	 Total Energy              =    -419.9037926903145035 [Eh]

	 ================> DF-SCS-MP2 Energies <==================
	-----------------------------------------------------------
	 SCS Same-Spin Scale       =       0.3333333333333333 [-]
	 SCS Opposite-Spin Scale   =       1.2000000000000000 [-]
	 SCS Same-Spin Energy      =      -0.1387594500771822 [Eh]
	 SCS Opposite-Spin Energy  =      -1.5511880486253684 [Eh]
	 SCS Correlation Energy    =      -1.6899474987025507 [Eh]
	 SCS Total Energy          =    -419.8848051315977159 [Eh]
	-----------------------------------------------------------

  Dipole Moment: [D]
     X:     9.9171      Y:     3.4319      Z:     0.6487     Total:    10.5142

*** Psi4 exiting successfully. Buy a developer a beer!
