                               Psi4 1.3.2 release

  ==> Input File <==

--------------------------------------------------------------------------
#psi4
#
memory 32 gb

molecule  {
-1 1
  O        0.5632720    -1.1719080    -0.3765930
  O       -2.2370500    -0.5589400     1.0879600
  O       -2.5032960     0.1554020    -1.0563790
  C        1.9927080     0.6815170     0.1510220
  C        0.6272811    -0.0214232     0.0032582
  C       -0.5777410     0.8814240     0.1686100
  C        3.1729130    -0.2631210    -0.0329300
  C       -1.9010600     0.0931950     0.0560670
  H        2.0429660     1.5133360    -0.5640360
  H        2.0060190     1.1470430     1.1438410
  H       -0.4967450     1.3515110     1.1569670
  H       -0.5681527     1.7012701    -0.5616278
  H        3.1399490    -1.0742180     0.6982180
  H        3.1613950    -0.7098910    -1.0291440
  H        4.1160350     0.2752530     0.0934100
units angstrom
no_reorient  #important for SAPT in psi4, default
symmetry c1  #important for SAPT in psi4, default
}

set PROPERTIES_ORIGIN ["COM"]
properties('MP2/aug-cc-pvtz', properties = ['dipole'])
--------------------------------------------------------------------------

    Molecular point group: c1
  Charge       = -1
  Multiplicity = 1
  Basis Set: AUG-CC-PVTZ
    Blend: AUG-CC-PVTZ
  Basis Set: (AUG-CC-PVTZ AUX)
    Blend: AUG-CC-PVTZ-JKFIT

    Orbital Energies [Eh]
    ---------------------

    Doubly Occupied:

       1A    -20.412656     2A    -20.296720     3A    -20.294545
       4A    -11.199667     5A    -11.145625     6A    -11.128662
       7A    -11.119680     8A    -11.081993     9A     -1.252543
      10A     -1.164155    11A     -1.064145    12A     -0.945395
      13A     -0.867028    14A     -0.762922    15A     -0.611517
      16A     -0.538002    17A     -0.532147    18A     -0.523858
      19A     -0.475431    20A     -0.453803    21A     -0.440105
      22A     -0.409653    23A     -0.408490    24A     -0.402361
      25A     -0.377730    26A     -0.353096    27A     -0.336480
      28A     -0.278488    29A     -0.210417    30A     -0.206005
      31A     -0.192812

  @DF-RHF Final Energy:  -418.19566591255352

   => Energetics <=

    Nuclear Repulsion Energy =            356.8526065773693290
    One-Electron Energy =               -1291.1242909282741493
    Two-Electron Energy =                 516.0760184383512978
    Total Energy =                       -418.1956659125535225
  Basis Set: (AUG-CC-PVTZ AUX)
    Blend: AUG-CC-PVTZ-RI
    Molecular point group: c1

    Geometry (in Angstrom), charge = -1, multiplicity = 1:

       Center              X                  Y                   Z               Mass
    ------------   -----------------  -----------------  -----------------  -----------------
         O            0.680939351982    -1.132766496467    -0.372932119676    15.994914619570
         O           -2.119382648018    -0.519798496467     1.091620880324    15.994914619570
         O           -2.385628648018     0.194543503533    -1.052718119676    15.994914619570
         C            2.110375351982     0.720658503533     0.154682880324    12.000000000000
         C            0.744948451982     0.017718303533     0.006919080324    12.000000000000
         C           -0.460073648018     0.920565503533     0.172270880324    12.000000000000
         C            3.290580351982    -0.223979496467    -0.029269119676    12.000000000000
         C           -1.783392648018     0.132336503533     0.059727880324    12.000000000000
         H            2.160633351982     1.552477503533    -0.560375119676     1.007825032230
         H            2.123686351982     1.186184503533     1.147501880324     1.007825032230
         H           -0.379077648018     1.390652503533     1.160627880324     1.007825032230
         H           -0.450485348018     1.740411603533    -0.557966919676     1.007825032230
         H            3.257616351982    -1.035076496467     0.701878880324     1.007825032230
         H            3.279062351982    -0.670749496467    -1.025483119676     1.007825032230
         H            4.233702351982     0.314394503533     0.097070880324     1.007825032230

  Basis Set: AUG-CC-PVTZ
    Blend: AUG-CC-PVTZ
  Basis Set: (AUG-CC-PVTZ AUX)
    Blend: AUG-CC-PVTZ-JKFIT
	 Reference Energy          =    -418.1956659125535225 [Eh]
	 Singles Energy            =      -0.0000000000000000 [Eh]
	 Same-Spin Energy          =      -0.4157033778046511 [Eh]
	 Opposite-Spin Energy      =      -1.2916368085062651 [Eh]
	 Correlation Energy        =      -1.7073401863109161 [Eh]
	 Total Energy              =    -419.9030060988644664 [Eh]

	 ================> DF-SCS-MP2 Energies <==================
	-----------------------------------------------------------
	 SCS Same-Spin Scale       =       0.3333333333333333 [-]
	 SCS Opposite-Spin Scale   =       1.2000000000000000 [-]
	 SCS Same-Spin Energy      =      -0.1385677926015504 [Eh]
	 SCS Opposite-Spin Energy  =      -1.5499641702075180 [Eh]
	 SCS Correlation Energy    =      -1.6885319628090683 [Eh]
	 SCS Total Energy          =    -419.8841978753625881 [Eh]
	-----------------------------------------------------------

  Dipole Moment: [D]
     X:     9.8953      Y:     3.3696      Z:     0.6422     Total:    10.4730

*** Psi4 exiting successfully. Buy a developer a beer!
