                               Psi4 1.3.2 release

  ==> Input File <==

--------------------------------------------------------------------------
#psi4
#
memory 32 gb

molecule  {
-1 1
  O        0.5632720    -1.1719080    -0.3765930
  O       -2.2370500    -0.5589400     1.0879600
  O       -2.5032960     0.1554020    -1.0563790
  C        1.9927080     0.6815170     0.1510220
  C        0.6149487    -0.0105068    -0.1079823
  C       -0.5777410     0.8814240     0.1686100
  C        3.1729130    -0.2631210    -0.0329300
  C       -1.9010600     0.0931950     0.0560670
  H        2.0429660     1.5133360    -0.5640360
  H        2.0060190     1.1470430     1.1438410
  H       -0.5469286     1.3776454     1.1469793
  H       -0.5352790     1.6874700    -0.5756840
  H        3.1399490    -1.0742180     0.6982180
  H        3.1613950    -0.7098910    -1.0291440
  H        4.1160350     0.2752530     0.0934100
units angstrom
no_reorient  #important for SAPT in psi4, default
symmetry c1  #important for SAPT in psi4, default
}

set PROPERTIES_ORIGIN ["COM"]
properties('MP2/aug-cc-pvtz', properties = ['dipole'])
--------------------------------------------------------------------------

    Molecular point group: c1
  Charge       = -1
  Multiplicity = 1
  Basis Set: AUG-CC-PVTZ
    Blend: AUG-CC-PVTZ
  Basis Set: (AUG-CC-PVTZ AUX)
    Blend: AUG-CC-PVTZ-JKFIT

    Orbital Energies [Eh]
    ---------------------

    Doubly Occupied:

       1A    -20.414566     2A    -20.296240     3A    -20.295278
       4A    -11.198649     5A    -11.145342     6A    -11.126648
       7A    -11.118627     8A    -11.081334     9A     -1.266941
      10A     -1.164383    11A     -1.064253    12A     -0.941668
      13A     -0.866436    14A     -0.759539    15A     -0.611194
      16A     -0.539432    17A     -0.534112    18A     -0.521702
      19A     -0.479586    20A     -0.454123    21A     -0.440448
      22A     -0.410394    23A     -0.407989    24A     -0.401944
      25A     -0.378995    26A     -0.357196    27A     -0.338169
      28A     -0.275665    29A     -0.210304    30A     -0.205034
      31A     -0.193025

  @DF-RHF Final Energy:  -418.19510423078327

   => Energetics <=

    Nuclear Repulsion Energy =            356.9984275780614666
    One-Electron Energy =               -1291.3886266909144069
    Two-Electron Energy =                 516.1950948820697249
    Total Energy =                       -418.1951042307832722
  Basis Set: (AUG-CC-PVTZ AUX)
    Blend: AUG-CC-PVTZ-RI
    Molecular point group: c1

    Geometry (in Angstrom), charge = -1, multiplicity = 1:

       Center              X                  Y                   Z               Mass
    ------------   -----------------  -----------------  -----------------  -----------------
         O            0.682377415630    -1.134013264686    -0.361117761836    15.994914619570
         O           -2.117944584370    -0.521045264686     1.103435238164    15.994914619570
         O           -2.384190584370     0.193296735314    -1.040903761836    15.994914619570
         C            2.111813415630     0.719411735314     0.166497238164    12.000000000000
         C            0.734054115630     0.027387935314    -0.092507061836    12.000000000000
         C           -0.458635584370     0.919318735314     0.184085238164    12.000000000000
         C            3.292018415630    -0.225226264686    -0.017454761836    12.000000000000
         C           -1.781954584370     0.131089735314     0.071542238164    12.000000000000
         H            2.162071415630     1.551230735314    -0.548560761836     1.007825032230
         H            2.125124415630     1.184937735314     1.159316238164     1.007825032230
         H           -0.427823184370     1.415540135314     1.162454538164     1.007825032230
         H           -0.416173584370     1.725364735314    -0.560208761836     1.007825032230
         H            3.259054415630    -1.036323264686     0.713693238164     1.007825032230
         H            3.280500415630    -0.671996264686    -1.013668761836     1.007825032230
         H            4.235140415630     0.313147735314     0.108885238164     1.007825032230

  Basis Set: AUG-CC-PVTZ
    Blend: AUG-CC-PVTZ
  Basis Set: (AUG-CC-PVTZ AUX)
    Blend: AUG-CC-PVTZ-JKFIT
	 Reference Energy          =    -418.1951042307832722 [Eh]
	 Singles Energy            =      -0.0000000000000000 [Eh]
	 Same-Spin Energy          =      -0.4152671495136968 [Eh]
	 Opposite-Spin Energy      =      -1.2906314673782497 [Eh]
	 Correlation Energy        =      -1.7058986168919466 [Eh]
	 Total Energy              =    -419.9010028476752154 [Eh]

	 ================> DF-SCS-MP2 Energies <==================
	-----------------------------------------------------------
	 SCS Same-Spin Scale       =       0.3333333333333333 [-]
	 SCS Opposite-Spin Scale   =       1.2000000000000000 [-]
	 SCS Same-Spin Energy      =      -0.1384223831712323 [Eh]
	 SCS Opposite-Spin Energy  =      -1.5487577608538996 [Eh]
	 SCS Correlation Energy    =      -1.6871801440251319 [Eh]
	 SCS Total Energy          =    -419.8822843748084210 [Eh]
	-----------------------------------------------------------

  Dipole Moment: [D]
     X:     9.8048      Y:     3.3108      Z:     0.5393     Total:    10.3627

*** Psi4 exiting successfully. Buy a developer a beer!
