                               Psi4 1.3.2 release

  ==> Input File <==

--------------------------------------------------------------------------
#psi4
#
memory 32 gb

molecule  {
-1 1
  O        0.5632720    -1.1719080    -0.3765930
  O       -2.2010556    -0.5435450     1.1084630
  O       -2.4716618     0.1825435    -1.0711084
  C        1.9927080     0.6815170     0.1510220
  C        0.6435570     0.0091630    -0.0366810
  C       -0.5777410     0.8814240     0.1686100
  C        3.1729130    -0.2631210    -0.0329300
  C       -1.9010600     0.0931950     0.0560670
  H        2.0429660     1.5133360    -0.5640360
  H        2.0060190     1.1470430     1.1438410
  H       -0.4967450     1.3515110     1.1569670
  H       -0.5352790     1.6874700    -0.5756840
  H        3.1399490    -1.0742180     0.6982180
  H        3.1613950    -0.7098910    -1.0291440
  H        4.1160350     0.2752530     0.0934100
units angstrom
no_reorient  #important for SAPT in psi4, default
symmetry c1  #important for SAPT in psi4, default
}

set PROPERTIES_ORIGIN ["COM"]
properties('MP2/aug-cc-pvtz', properties = ['dipole'])
--------------------------------------------------------------------------

    Molecular point group: c1
  Charge       = -1
  Multiplicity = 1
  Basis Set: AUG-CC-PVTZ
    Blend: AUG-CC-PVTZ
  Basis Set: (AUG-CC-PVTZ AUX)
    Blend: AUG-CC-PVTZ-JKFIT

    Orbital Energies [Eh]
    ---------------------

    Doubly Occupied:

       1A    -20.408107     2A    -20.300397     3A    -20.298605
       4A    -11.197736     5A    -11.148283     6A    -11.128449
       7A    -11.119573     8A    -11.077732     9A     -1.237542
      10A     -1.164833    11A     -1.071422    12A     -0.948040
      13A     -0.864592    14A     -0.764767    15A     -0.609644
      16A     -0.537588    17A     -0.527969    18A     -0.524575
      19A     -0.470286    20A     -0.452630    21A     -0.438867
      22A     -0.409860    23A     -0.406264    24A     -0.403706
      25A     -0.378872    26A     -0.345718    27A     -0.337089
      28A     -0.278108    29A     -0.216919    30A     -0.203439
      31A     -0.197452

  @DF-RHF Final Energy:  -418.19532464300892

   => Energetics <=

    Nuclear Repulsion Energy =            357.1710482064464713
    One-Electron Energy =               -1291.7946235123729366
    Two-Electron Energy =                 516.4282506629175487
    Total Energy =                       -418.1953246430089166
  Basis Set: (AUG-CC-PVTZ AUX)
    Blend: AUG-CC-PVTZ-RI
    Molecular point group: c1

    Geometry (in Angstrom), charge = -1, multiplicity = 1:

       Center              X                  Y                   Z               Mass
    ------------   -----------------  -----------------  -----------------  -----------------
         O            0.669550609826    -1.141750313574    -0.369445593008    15.994914619570
         O           -2.094776990174    -0.513387313574     1.115610406992    15.994914619570
         O           -2.365383190174     0.212701186426    -1.063960993008    15.994914619570
         C            2.098986609826     0.711674686426     0.158169406992    12.000000000000
         C            0.749835609826     0.039320686426    -0.029533593008    12.000000000000
         C           -0.471462390174     0.911581686426     0.175757406992    12.000000000000
         C            3.279191609826    -0.232963313574    -0.025782593008    12.000000000000
         C           -1.794781390174     0.123352686426     0.063214406992    12.000000000000
         H            2.149244609826     1.543493686426    -0.556888593008     1.007825032230
         H            2.112297609826     1.177200686426     1.150988406992     1.007825032230
         H           -0.390466390174     1.381668686426     1.164114406992     1.007825032230
         H           -0.429000390174     1.717627686426    -0.568536593008     1.007825032230
         H            3.246227609826    -1.044060313574     0.705365406992     1.007825032230
         H            3.267673609826    -0.679733313574    -1.021996593008     1.007825032230
         H            4.222313609826     0.305410686426     0.100557406992     1.007825032230

  Basis Set: AUG-CC-PVTZ
    Blend: AUG-CC-PVTZ
  Basis Set: (AUG-CC-PVTZ AUX)
    Blend: AUG-CC-PVTZ-JKFIT
	 Reference Energy          =    -418.1953246430089166 [Eh]
	 Singles Energy            =      -0.0000000000000000 [Eh]
	 Same-Spin Energy          =      -0.4163275815333682 [Eh]
	 Opposite-Spin Energy      =      -1.2927168699374123 [Eh]
	 Correlation Energy        =      -1.7090444514707805 [Eh]
	 Total Energy              =    -419.9043690944797049 [Eh]

	 ================> DF-SCS-MP2 Energies <==================
	-----------------------------------------------------------
	 SCS Same-Spin Scale       =       0.3333333333333333 [-]
	 SCS Opposite-Spin Scale   =       1.2000000000000000 [-]
	 SCS Same-Spin Energy      =      -0.1387758605111227 [Eh]
	 SCS Opposite-Spin Energy  =      -1.5512602439248948 [Eh]
	 SCS Correlation Energy    =      -1.6900361044360175 [Eh]
	 SCS Total Energy          =    -419.8853607474449063 [Eh]
	-----------------------------------------------------------

  Dipole Moment: [D]
     X:     9.7554      Y:     3.3533      Z:     0.6221     Total:    10.3344

*** Psi4 exiting successfully. Buy a developer a beer!
