                               Psi4 1.3.2 release

  ==> Input File <==

--------------------------------------------------------------------------
#psi4
#
memory 32 gb

molecule  {
-1 1
  O        0.5632720    -1.1719080    -0.3765930
  O       -2.2370500    -0.5589400     1.0879600
  O       -2.5032960     0.1554020    -1.0563790
  C        1.9927080     0.6815170     0.1510220
  C        0.6607740     0.0236080     0.0111779
  C       -0.5777410     0.8814240     0.1686100
  C        3.1729130    -0.2631210    -0.0329300
  C       -1.9010600     0.0931950     0.0560670
  H        2.0429660     1.5133360    -0.5640360
  H        2.0060190     1.1470430     1.1438410
  H       -0.4634041     1.3333676     1.1621218
  H       -0.5352790     1.6874700    -0.5756840
  H        3.1399490    -1.0742180     0.6982180
  H        3.1613950    -0.7098910    -1.0291440
  H        4.1160350     0.2752530     0.0934100
units angstrom
no_reorient  #important for SAPT in psi4, default
symmetry c1  #important for SAPT in psi4, default
}

set PROPERTIES_ORIGIN ["COM"]
properties('MP2/aug-cc-pvtz', properties = ['dipole'])
--------------------------------------------------------------------------

    Molecular point group: c1
  Charge       = -1
  Multiplicity = 1
  Basis Set: AUG-CC-PVTZ
    Blend: AUG-CC-PVTZ
  Basis Set: (AUG-CC-PVTZ AUX)
    Blend: AUG-CC-PVTZ-JKFIT

    Orbital Energies [Eh]
    ---------------------

    Doubly Occupied:

       1A    -20.407725     2A    -20.296783     3A    -20.294415
       4A    -11.201927     5A    -11.146921     6A    -11.132343
       7A    -11.122228     8A    -11.084420     9A     -1.220800
      10A     -1.163637    11A     -1.063979    12A     -0.955184
      13A     -0.869661    14A     -0.771628    15A     -0.612590
      16A     -0.539440    17A     -0.529357    18A     -0.525764
      19A     -0.467142    20A     -0.455030    21A     -0.438006
      22A     -0.412629    23A     -0.405741    24A     -0.404295
      25A     -0.377094    26A     -0.339379    27A     -0.332049
      28A     -0.281795    29A     -0.210678    30A     -0.208096
      31A     -0.192304

  @DF-RHF Final Energy:  -418.18856606287505

   => Energetics <=

    Nuclear Repulsion Energy =            356.4818838025732930
    One-Electron Energy =               -1290.4148202786368529
    Two-Electron Energy =                 515.7443704131885625
    Total Energy =                       -418.1885660628749974
  Basis Set: (AUG-CC-PVTZ AUX)
    Blend: AUG-CC-PVTZ-RI
    Molecular point group: c1

    Geometry (in Angstrom), charge = -1, multiplicity = 1:

       Center              X                  Y                   Z               Mass
    ------------   -----------------  -----------------  -----------------  -----------------
         O            0.676865555993    -1.137183943142    -0.373680256899    15.994914619570
         O           -2.123456444007    -0.524215943142     1.090872743101    15.994914619570
         O           -2.389702444007     0.190126056858    -1.053466256899    15.994914619570
         C            2.106301555993     0.716241056858     0.153934743101    12.000000000000
         C            0.774367555993     0.058332056858     0.014090643101    12.000000000000
         C           -0.464147444007     0.916148056858     0.171522743101    12.000000000000
         C            3.286506555993    -0.228396943142    -0.030017256899    12.000000000000
         C           -1.787466444007     0.127919056858     0.058979743101    12.000000000000
         H            2.156559555993     1.548060056858    -0.561123256899     1.007825032230
         H            2.119612555993     1.181767056858     1.146753743101     1.007825032230
         H           -0.349810544007     1.368091656858     1.165034543101     1.007825032230
         H           -0.421685444007     1.722194056858    -0.572771256899     1.007825032230
         H            3.253542555993    -1.039493943142     0.701130743101     1.007825032230
         H            3.274988555993    -0.675166943142    -1.026231256899     1.007825032230
         H            4.229628555993     0.309977056858     0.096322743101     1.007825032230

  Basis Set: AUG-CC-PVTZ
    Blend: AUG-CC-PVTZ
  Basis Set: (AUG-CC-PVTZ AUX)
    Blend: AUG-CC-PVTZ-JKFIT
	 Reference Energy          =    -418.1885660628750543 [Eh]
	 Singles Energy            =      -0.0000000000000000 [Eh]
	 Same-Spin Energy          =      -0.4171709196071956 [Eh]
	 Opposite-Spin Energy      =      -1.2946012835561191 [Eh]
	 Correlation Energy        =      -1.7117722031633147 [Eh]
	 Total Energy              =    -419.9003382660383750 [Eh]

	 ================> DF-SCS-MP2 Energies <==================
	-----------------------------------------------------------
	 SCS Same-Spin Scale       =       0.3333333333333333 [-]
	 SCS Opposite-Spin Scale   =       1.2000000000000000 [-]
	 SCS Same-Spin Energy      =      -0.1390569732023985 [Eh]
	 SCS Opposite-Spin Energy  =      -1.5535215402673430 [Eh]
	 SCS Correlation Energy    =      -1.6925785134697415 [Eh]
	 SCS Total Energy          =    -419.8811445763448091 [Eh]
	-----------------------------------------------------------

  Dipole Moment: [D]
     X:    10.0869      Y:     3.5433      Z:     0.6834     Total:    10.7130

*** Psi4 exiting successfully. Buy a developer a beer!
