                               Psi4 1.3.2 release

  ==> Input File <==

--------------------------------------------------------------------------
#psi4
#
memory 32 gb

molecule  {
-1 1
  O        0.5632720    -1.1719080    -0.3765930
  O       -2.2370500    -0.5589400     1.0879600
  O       -2.5032960     0.1554020    -1.0563790
  C        1.9927080     0.6815170     0.1510220
  C        0.6511163     0.0012594    -0.0608321
  C       -0.5777410     0.8814240     0.1686100
  C        3.1729130    -0.2631210    -0.0329300
  C       -1.9010600     0.0931950     0.0560670
  H        2.0429660     1.5133360    -0.5640360
  H        2.0238234     1.1532295     1.1405170
  H       -0.4967450     1.3515110     1.1569670
  H       -0.5352790     1.6874700    -0.5756840
  H        3.1399490    -1.0742180     0.6982180
  H        3.1613950    -0.7098910    -1.0291440
  H        4.1160350     0.2752530     0.0934100
units angstrom
no_reorient  #important for SAPT in psi4, default
symmetry c1  #important for SAPT in psi4, default
}

set PROPERTIES_ORIGIN ["COM"]
properties('MP2/aug-cc-pvtz', properties = ['dipole'])
--------------------------------------------------------------------------

    Molecular point group: c1
  Charge       = -1
  Multiplicity = 1
  Basis Set: AUG-CC-PVTZ
    Blend: AUG-CC-PVTZ
  Basis Set: (AUG-CC-PVTZ AUX)
    Blend: AUG-CC-PVTZ-JKFIT

    Orbital Energies [Eh]
    ---------------------

    Doubly Occupied:

       1A    -20.411805     2A    -20.295877     3A    -20.294212
       4A    -11.199233     5A    -11.145338     6A    -11.129784
       7A    -11.120687     8A    -11.082000     9A     -1.248938
      10A     -1.163396    11A     -1.063452    12A     -0.949754
      13A     -0.864347    14A     -0.765967    15A     -0.612285
      16A     -0.537695    17A     -0.532178    18A     -0.525783
      19A     -0.473321    20A     -0.453652    21A     -0.439342
      22A     -0.410965    23A     -0.408908    24A     -0.403120
      25A     -0.377103    26A     -0.351033    27A     -0.336482
      28A     -0.278384    29A     -0.209692    30A     -0.206258
      31A     -0.192080

  @DF-RHF Final Energy:  -418.19655982330215

   => Energetics <=

    Nuclear Repulsion Energy =            356.7480889929653927
    One-Electron Energy =               -1290.9231514878392773
    Two-Electron Energy =                 515.9785026715716185
    Total Energy =                       -418.1965598233022092
  Basis Set: (AUG-CC-PVTZ AUX)
    Blend: AUG-CC-PVTZ-RI
    Molecular point group: c1

    Geometry (in Angstrom), charge = -1, multiplicity = 1:

       Center              X                  Y                   Z               Mass
    ------------   -----------------  -----------------  -----------------  -----------------
         O            0.678009080189    -1.135065863028    -0.366094471129    15.994914619570
         O           -2.122312919811    -0.522097863028     1.098458528871    15.994914619570
         O           -2.388558919811     0.192244136972    -1.045880471129    15.994914619570
         C            2.107445080189     0.718359136972     0.161520528871    12.000000000000
         C            0.765853380189     0.038101536972    -0.050333571129    12.000000000000
         C           -0.463003919811     0.918266136972     0.179108528871    12.000000000000
         C            3.287650080189    -0.226278863028    -0.022431471129    12.000000000000
         C           -1.786322919811     0.130037136972     0.066565528871    12.000000000000
         H            2.157703080189     1.550178136972    -0.553537471129     1.007825032230
         H            2.138560480189     1.190071636972     1.151015528871     1.007825032230
         H           -0.382007919811     1.388353136972     1.167465528871     1.007825032230
         H           -0.420541919811     1.724312136972    -0.565185471129     1.007825032230
         H            3.254686080189    -1.037375863028     0.708716528871     1.007825032230
         H            3.276132080189    -0.673048863028    -1.018645471129     1.007825032230
         H            4.230772080189     0.312095136972     0.103908528871     1.007825032230

  Basis Set: AUG-CC-PVTZ
    Blend: AUG-CC-PVTZ
  Basis Set: (AUG-CC-PVTZ AUX)
    Blend: AUG-CC-PVTZ-JKFIT
	 Reference Energy          =    -418.1965598233021524 [Eh]
	 Singles Energy            =      -0.0000000000000000 [Eh]
	 Same-Spin Energy          =      -0.4157853319709514 [Eh]
	 Opposite-Spin Energy      =      -1.2917305367386520 [Eh]
	 Correlation Energy        =      -1.7075158687096033 [Eh]
	 Total Energy              =    -419.9040756920117587 [Eh]

	 ================> DF-SCS-MP2 Energies <==================
	-----------------------------------------------------------
	 SCS Same-Spin Scale       =       0.3333333333333333 [-]
	 SCS Opposite-Spin Scale   =       1.2000000000000000 [-]
	 SCS Same-Spin Energy      =      -0.1385951106569838 [Eh]
	 SCS Opposite-Spin Energy  =      -1.5500766440863825 [Eh]
	 SCS Correlation Energy    =      -1.6886717547433663 [Eh]
	 SCS Total Energy          =    -419.8852315780455342 [Eh]
	-----------------------------------------------------------

  Dipole Moment: [D]
     X:    10.0449      Y:     3.4061      Z:     0.6030     Total:    10.6238

*** Psi4 exiting successfully. Buy a developer a beer!
