                               Psi4 1.4a3.dev225

  ==> Input File <==

--------------------------------------------------------------------------
#psi4
#
memory 32 gb

molecule  {
-1 1
  O        1.0745520     1.3418620    -0.8745480
  O       -1.1230780    -1.1034960    -0.8170800
  O       -2.9206860    -0.1812610     0.2330210
  C        1.4738630    -0.3704550     0.7611780
  C        0.6106254     0.6434811     0.0983935
  C       -0.7798250     0.8397660     0.5534010
  C        2.7202340    -0.7612590    -0.0182770
  C       -1.7002430    -0.2566580    -0.0711330
  H        1.7414500     0.0432240     1.7443780
  H        0.8355880    -1.2371210     0.9565080
  H       -0.8294850     0.7587360     1.6458800
  H       -1.1523820     1.8284630     0.2671350
  H        2.4446610    -1.1885100    -0.9860420
  H        3.3521650     0.1095510    -0.2043800
  H        3.3054110    -1.5035610     0.5312540
units angstrom
no_reorient  #important for SAPT in psi4, default
symmetry c1  #important for SAPT in psi4, default
}

set PROPERTIES_ORIGIN ["COM"]
properties('MP2/aug-cc-pvtz', properties = ['dipole'])
--------------------------------------------------------------------------

    Molecular point group: c1
  Charge       = -1
  Multiplicity = 1
  Basis Set: AUG-CC-PVTZ
    Blend: AUG-CC-PVTZ
  Basis Set: (AUG-CC-PVTZ AUX)
    Blend: AUG-CC-PVTZ-JKFIT

    Orbital Energies [Eh]
    ---------------------

    Doubly Occupied:

       1A    -20.394803     2A    -20.315598     3A    -20.313220
       4A    -11.193938     5A    -11.166868     6A    -11.110570
       7A    -11.103734     8A    -11.082627     9A     -1.200043
      10A     -1.183353    11A     -1.086194    12A     -0.938178
      13A     -0.870264    14A     -0.758762    15A     -0.602442
      16A     -0.547757    17A     -0.512824    18A     -0.503063
      19A     -0.480834    20A     -0.450048    21A     -0.436546
      22A     -0.410405    23A     -0.397204    24A     -0.389256
      25A     -0.378502    26A     -0.343231    27A     -0.326264
      28A     -0.280493    29A     -0.231444    30A     -0.218926
      31A     -0.213180

  @DF-RHF Final Energy:  -418.19986667450928

   => Energetics <=

    Nuclear Repulsion Energy =            362.4641210231537229
    One-Electron Energy =               -1302.4468289103519965
    Two-Electron Energy =                 521.7828412126890498
    Total Energy =                       -418.1998666745092805
  Basis Set: (AUG-CC-PVTZ AUX)
    Blend: AUG-CC-PVTZ-RI
    Molecular point group: c1

    Geometry (in Angstrom), charge = -1, multiplicity = 1:

       Center              X                  Y                   Z               Mass
    ------------   -----------------  -----------------  -----------------  -----------------
         O            1.159941344248     1.334443965424    -0.844455162835    15.994914619570
         O           -1.037688655752    -1.110914034576    -0.786987162835    15.994914619570
         O           -2.835296655752    -0.188679034576     0.263113837165    15.994914619570
         C            1.559252344248    -0.377873034576     0.791270837165    12.000000000000
         C            0.696014744248     0.636063065424     0.128486337165    12.000000000000
         C           -0.694435655752     0.832347965424     0.583493837165    12.000000000000
         C            2.805623344248    -0.768677034576     0.011815837165    12.000000000000
         C           -1.614853655752    -0.264076034576    -0.041040162835    12.000000000000
         H            1.826839344248     0.035805965424     1.774470837165     1.007825032230
         H            0.920977344248    -1.244539034576     0.986600837165     1.007825032230
         H           -0.744095655752     0.751317965424     1.675972837165     1.007825032230
         H           -1.066992655752     1.821044965424     0.297227837165     1.007825032230
         H            2.530050344248    -1.195928034576    -0.955949162835     1.007825032230
         H            3.437554344248     0.102132965424    -0.174287162835     1.007825032230
         H            3.390800344248    -1.510979034576     0.561346837165     1.007825032230

  Basis Set: AUG-CC-PVTZ
    Blend: AUG-CC-PVTZ
  Basis Set: (AUG-CC-PVTZ AUX)
    Blend: AUG-CC-PVTZ-JKFIT
	 Reference Energy          =    -418.1998666745092805 [Eh]
	 Singles Energy            =      -0.0000000000000000 [Eh]
	 Same-Spin Energy          =      -0.4183820111226323 [Eh]
	 Opposite-Spin Energy      =      -1.2953839011205308 [Eh]
	 Correlation Energy        =      -1.7137659122431632 [Eh]
	 Total Energy              =    -419.9136325867524420 [Eh]

	 ================> DF-SCS-MP2 Energies <==================
	-----------------------------------------------------------
	 SCS Same-Spin Scale       =       0.3333333333333333 [-]
	 SCS Opposite-Spin Scale   =       1.2000000000000000 [-]
	 SCS Same-Spin Energy      =      -0.1394606703742108 [Eh]
	 SCS Opposite-Spin Energy  =      -1.5544606813446369 [Eh]
	 SCS Correlation Energy    =      -1.6939213517188476 [Eh]
	 SCS Total Energy          =    -419.8937880262281510 [Eh]
	-----------------------------------------------------------

  Dipole Moment: [D]
     X:     6.6206      Y:     1.0930      Z:     3.3529     Total:     7.5013

*** Psi4 exiting successfully. Buy a developer a beer!
