                               Psi4 1.3.2 release

  ==> Input File <==

--------------------------------------------------------------------------
#psi4
#
memory 32 gb

molecule  {
-1 1
  O        0.5632720    -1.1719080    -0.3765930
  O       -2.2370500    -0.5589400     1.0879600
  O       -2.5032960     0.1554020    -1.0563790
  C        1.9927080     0.6815170     0.1510220
  C        0.6305198    -0.1826268    -0.0918781
  C       -0.5777410     0.8814240     0.1686100
  C        3.1729130    -0.2631210    -0.0329300
  C       -1.9010600     0.0931950     0.0560670
  H        2.0429660     1.5133360    -0.5640360
  H        2.0060190     1.1470430     1.1438410
  H       -0.4967450     1.3515110     1.1569670
  H       -0.5352790     1.6874700    -0.5756840
  H        3.1399490    -1.0742180     0.6982180
  H        3.1613950    -0.7098910    -1.0291440
  H        4.1160350     0.2752530     0.0934100
units angstrom
no_reorient  #important for SAPT in psi4, default
symmetry c1  #important for SAPT in psi4, default
}

set PROPERTIES_ORIGIN ["COM"]
properties('MP2/aug-cc-pvtz', properties = ['dipole'])
--------------------------------------------------------------------------

    Molecular point group: c1
  Charge       = -1
  Multiplicity = 1
  Basis Set: AUG-CC-PVTZ
    Blend: AUG-CC-PVTZ
  Basis Set: (AUG-CC-PVTZ AUX)
    Blend: AUG-CC-PVTZ-JKFIT

    Orbital Energies [Eh]
    ---------------------

    Doubly Occupied:

       1A    -20.431352     2A    -20.292926     3A    -20.291965
       4A    -11.186523     5A    -11.138663     6A    -11.115457
       7A    -11.114797     8A    -11.070487     9A     -1.401056
      10A     -1.161059    11A     -1.060980    12A     -0.930373
      13A     -0.835295    14A     -0.744420    15A     -0.617085
      16A     -0.572900    17A     -0.538813    18A     -0.531786
      19A     -0.499882    20A     -0.476701    21A     -0.439382
      22A     -0.421799    23A     -0.419400    24A     -0.403210
      25A     -0.389635    26A     -0.364578    27A     -0.339837
      28A     -0.239627    29A     -0.206998    30A     -0.191357
      31A     -0.190608

  @DF-RHF Final Energy:  -418.12944813029765

   => Energetics <=

    Nuclear Repulsion Energy =            358.6832084154422091
    One-Electron Energy =               -1294.3874146114349060
    Two-Electron Energy =                 517.5747580656950504
    Total Energy =                       -418.1294481302976465
  Basis Set: (AUG-CC-PVTZ AUX)
    Blend: AUG-CC-PVTZ-RI
    Molecular point group: c1

    Geometry (in Angstrom), charge = -1, multiplicity = 1:

       Center              X                  Y                   Z               Mass
    ------------   -----------------  -----------------  -----------------  -----------------
         O            0.680313520630    -1.115830131453    -0.362885121919    15.994914619570
         O           -2.120008479370    -0.502862131453     1.101667878081    15.994914619570
         O           -2.386254479370     0.211479868547    -1.042671121919    15.994914619570
         C            2.109749520630     0.737594868547     0.164729878081    12.000000000000
         C            0.747561320630    -0.126548931453    -0.078170221919    12.000000000000
         C           -0.460699479370     0.937501868547     0.182317878081    12.000000000000
         C            3.289954520630    -0.207043131453    -0.019222121919    12.000000000000
         C           -1.784018479370     0.149272868547     0.069774878081    12.000000000000
         H            2.160007520630     1.569413868547    -0.550328121919     1.007825032230
         H            2.123060520630     1.203120868547     1.157548878081     1.007825032230
         H           -0.379703479370     1.407588868547     1.170674878081     1.007825032230
         H           -0.418237479370     1.743547868547    -0.561976121919     1.007825032230
         H            3.256990520630    -1.018140131453     0.711925878081     1.007825032230
         H            3.278436520630    -0.653813131453    -1.015436121919     1.007825032230
         H            4.233076520630     0.331330868547     0.107117878081     1.007825032230

  Basis Set: AUG-CC-PVTZ
    Blend: AUG-CC-PVTZ
  Basis Set: (AUG-CC-PVTZ AUX)
    Blend: AUG-CC-PVTZ-JKFIT
	 Reference Energy          =    -418.1294481302976465 [Eh]
	 Singles Energy            =      -0.0000000000000000 [Eh]
	 Same-Spin Energy          =      -0.4119507742527701 [Eh]
	 Opposite-Spin Energy      =      -1.2832356016668638 [Eh]
	 Correlation Energy        =      -1.6951863759196339 [Eh]
	 Total Energy              =    -419.8246345062173077 [Eh]

	 ================> DF-SCS-MP2 Energies <==================
	-----------------------------------------------------------
	 SCS Same-Spin Scale       =       0.3333333333333333 [-]
	 SCS Opposite-Spin Scale   =       1.2000000000000000 [-]
	 SCS Same-Spin Energy      =      -0.1373169247509234 [Eh]
	 SCS Opposite-Spin Energy  =      -1.5398827220002365 [Eh]
	 SCS Correlation Energy    =      -1.6771996467511598 [Eh]
	 SCS Total Energy          =    -419.8066477770487950 [Eh]
	-----------------------------------------------------------

  Dipole Moment: [D]
     X:     9.9334      Y:     2.3661      Z:     0.3232     Total:    10.2164

*** Psi4 exiting successfully. Buy a developer a beer!
