                               Psi4 1.3.2 release

  ==> Input File <==

--------------------------------------------------------------------------
#psi4
#
memory 32 gb

molecule  {
-1 1
  O        0.5632720    -1.1719080    -0.3765930
  O       -2.2370500    -0.5589400     1.0879600
  O       -2.5032960     0.1554020    -1.0563790
  C        1.9927080     0.6815170     0.1510220
  C        0.6296734     0.0255821     0.0117854
  C       -0.5777410     0.8814240     0.1686100
  C        3.1729130    -0.2631210    -0.0329300
  C       -1.9010600     0.0931950     0.0560670
  H        2.0429660     1.5133360    -0.5640360
  H        1.9704035     1.1342465     1.1495808
  H       -0.4967450     1.3515110     1.1569670
  H       -0.5352790     1.6874700    -0.5756840
  H        3.1399490    -1.0742180     0.6982180
  H        3.1613950    -0.7098910    -1.0291440
  H        4.1160350     0.2752530     0.0934100
units angstrom
no_reorient  #important for SAPT in psi4, default
symmetry c1  #important for SAPT in psi4, default
}

set PROPERTIES_ORIGIN ["COM"]
properties('MP2/aug-cc-pvtz', properties = ['dipole'])
--------------------------------------------------------------------------

    Molecular point group: c1
  Charge       = -1
  Multiplicity = 1
  Basis Set: AUG-CC-PVTZ
    Blend: AUG-CC-PVTZ
  Basis Set: (AUG-CC-PVTZ AUX)
    Blend: AUG-CC-PVTZ-JKFIT

    Orbital Energies [Eh]
    ---------------------

    Doubly Occupied:

       1A    -20.407195     2A    -20.297600     3A    -20.295539
       4A    -11.202190     5A    -11.147842     6A    -11.131487
       7A    -11.121302     8A    -11.084520     9A     -1.220460
      10A     -1.164717    11A     -1.065023    12A     -0.950303
      13A     -0.875389    14A     -0.768958    15A     -0.611083
      16A     -0.539183    17A     -0.528039    18A     -0.525603
      19A     -0.467173    20A     -0.456742    21A     -0.439630
      22A     -0.412640    23A     -0.404433    24A     -0.402387
      25A     -0.377912    26A     -0.339813    27A     -0.332188
      28A     -0.282852    29A     -0.211441    30A     -0.208727
      31A     -0.193299

  @DF-RHF Final Energy:  -418.18909718481501

   => Energetics <=

    Nuclear Repulsion Energy =            356.6081304270095416
    One-Electron Energy =               -1290.6631123457195827
    Two-Electron Energy =                 515.8658847338949727
    Total Energy =                       -418.1890971848150684
  Basis Set: (AUG-CC-PVTZ AUX)
    Blend: AUG-CC-PVTZ-RI
    Molecular point group: c1

    Geometry (in Angstrom), charge = -1, multiplicity = 1:

       Center              X                  Y                   Z               Mass
    ------------   -----------------  -----------------  -----------------  -----------------
         O            0.680713826479    -1.137436707930    -0.373748751427    15.994914619570
         O           -2.119608173521    -0.524468707930     1.090804248573    15.994914619570
         O           -2.385854173521     0.189873292070    -1.053534751427    15.994914619570
         C            2.110149826479     0.715988292070     0.153866248573    12.000000000000
         C            0.747115226479     0.060053392070     0.014629648573    12.000000000000
         C           -0.460299173521     0.915895292070     0.171454248573    12.000000000000
         C            3.290354826479    -0.228649707930    -0.030085751427    12.000000000000
         C           -1.783618173521     0.127666292070     0.058911248573    12.000000000000
         H            2.160407826479     1.547807292070    -0.561191751427     1.007825032230
         H            2.087845326479     1.168717792070     1.152425048573     1.007825032230
         H           -0.379303173521     1.385982292070     1.159811248573     1.007825032230
         H           -0.417837173521     1.721941292070    -0.572839751427     1.007825032230
         H            3.257390826479    -1.039746707930     0.701062248573     1.007825032230
         H            3.278836826479    -0.675419707930    -1.026299751427     1.007825032230
         H            4.233476826479     0.309724292070     0.096254248573     1.007825032230

  Basis Set: AUG-CC-PVTZ
    Blend: AUG-CC-PVTZ
  Basis Set: (AUG-CC-PVTZ AUX)
    Blend: AUG-CC-PVTZ-JKFIT
	 Reference Energy          =    -418.1890971848150116 [Eh]
	 Singles Energy            =      -0.0000000000000000 [Eh]
	 Same-Spin Energy          =      -0.4172157470189188 [Eh]
	 Opposite-Spin Energy      =      -1.2946134368000775 [Eh]
	 Correlation Energy        =      -1.7118291838189963 [Eh]
	 Total Energy              =    -419.9009263686340319 [Eh]

	 ================> DF-SCS-MP2 Energies <==================
	-----------------------------------------------------------
	 SCS Same-Spin Scale       =       0.3333333333333333 [-]
	 SCS Opposite-Spin Scale   =       1.2000000000000000 [-]
	 SCS Same-Spin Energy      =      -0.1390719156729729 [Eh]
	 SCS Opposite-Spin Energy  =      -1.5535361241600929 [Eh]
	 SCS Correlation Energy    =      -1.6926080398330658 [Eh]
	 SCS Total Energy          =    -419.8817052246481012 [Eh]
	-----------------------------------------------------------

  Dipole Moment: [D]
     X:     9.8898      Y:     3.5556      Z:     0.6859     Total:    10.5319

*** Psi4 exiting successfully. Buy a developer a beer!
