                               Psi4 1.3.2 release

  ==> Input File <==

--------------------------------------------------------------------------
#psi4
#
memory 32 gb

molecule  {
-1 1
  O        0.5632720    -1.1719080    -0.3765930
  O       -2.2370500    -0.5589400     1.0879600
  O       -2.5032960     0.1554020    -1.0563790
  C        1.9927080     0.6815170     0.1510220
  C        0.6511382     0.0248570    -0.0565598
  C       -0.5777410     0.8814240     0.1686100
  C        3.1729130    -0.2631210    -0.0329300
  C       -1.9010600     0.0931950     0.0560670
  H        2.0429660     1.5133360    -0.5640360
  H        2.0060190     1.1470430     1.1438410
  H       -0.4967450     1.3515110     1.1569670
  H       -0.5188591     1.6802006    -0.5823731
  H        3.1399490    -1.0742180     0.6982180
  H        3.1613950    -0.7098910    -1.0291440
  H        4.1160350     0.2752530     0.0934100
units angstrom
no_reorient  #important for SAPT in psi4, default
symmetry c1  #important for SAPT in psi4, default
}

set PROPERTIES_ORIGIN ["COM"]
properties('MP2/aug-cc-pvtz', properties = ['dipole'])
--------------------------------------------------------------------------

    Molecular point group: c1
  Charge       = -1
  Multiplicity = 1
  Basis Set: AUG-CC-PVTZ
    Blend: AUG-CC-PVTZ
  Basis Set: (AUG-CC-PVTZ AUX)
    Blend: AUG-CC-PVTZ-JKFIT

    Orbital Energies [Eh]
    ---------------------

    Doubly Occupied:

       1A    -20.409091     2A    -20.296382     3A    -20.294775
       4A    -11.200553     5A    -11.146511     6A    -11.131053
       7A    -11.121433     8A    -11.083447     9A     -1.232559
      10A     -1.163785    11A     -1.063960    12A     -0.951997
      13A     -0.868742    14A     -0.768841    15A     -0.611944
      16A     -0.538786    17A     -0.528827    18A     -0.527141
      19A     -0.469270    20A     -0.455131    21A     -0.439001
      22A     -0.411597    23A     -0.407077    24A     -0.403881
      25A     -0.377031    26A     -0.343130    27A     -0.335568
      28A     -0.280849    29A     -0.210256    30A     -0.207670
      31A     -0.192389

  @DF-RHF Final Energy:  -418.19364602571221

   => Energetics <=

    Nuclear Repulsion Energy =            356.6221373515961659
    One-Electron Energy =               -1290.6862072575493130
    Two-Electron Energy =                 515.8704238802408781
    Total Energy =                       -418.1936460257122690
  Basis Set: (AUG-CC-PVTZ AUX)
    Blend: AUG-CC-PVTZ-RI
    Molecular point group: c1

    Geometry (in Angstrom), charge = -1, multiplicity = 1:

       Center              X                  Y                   Z               Mass
    ------------   -----------------  -----------------  -----------------  -----------------
         O            0.678018924926    -1.137409492498    -0.366510642618    15.994914619570
         O           -2.122303075074    -0.524441492498     1.098042357382    15.994914619570
         O           -2.388549075074     0.189900507502    -1.046296642618    15.994914619570
         C            2.107454924926     0.716015507502     0.161104357382    12.000000000000
         C            0.765885124926     0.059355507502    -0.046477442618    12.000000000000
         C           -0.462994075074     0.915922507502     0.178692357382    12.000000000000
         C            3.287659924926    -0.228622492498    -0.022847642618    12.000000000000
         C           -1.786313075074     0.127693507502     0.066149357382    12.000000000000
         H            2.157712924926     1.547834507502    -0.553953642618     1.007825032230
         H            2.120765924926     1.181541507502     1.153923357382     1.007825032230
         H           -0.381998075074     1.386009507502     1.167049357382     1.007825032230
         H           -0.404112175074     1.714699107502    -0.572290742618     1.007825032230
         H            3.254695924926    -1.039719492498     0.708300357382     1.007825032230
         H            3.276141924926    -0.675392492498    -1.019061642618     1.007825032230
         H            4.230781924926     0.309751507502     0.103492357382     1.007825032230

  Basis Set: AUG-CC-PVTZ
    Blend: AUG-CC-PVTZ
  Basis Set: (AUG-CC-PVTZ AUX)
    Blend: AUG-CC-PVTZ-JKFIT
	 Reference Energy          =    -418.1936460257122121 [Eh]
	 Singles Energy            =      -0.0000000000000000 [Eh]
	 Same-Spin Energy          =      -0.4165373756296747 [Eh]
	 Opposite-Spin Energy      =      -1.2932206539325157 [Eh]
	 Correlation Energy        =      -1.7097580295621904 [Eh]
	 Total Energy              =    -419.9034040552743932 [Eh]

	 ================> DF-SCS-MP2 Energies <==================
	-----------------------------------------------------------
	 SCS Same-Spin Scale       =       0.3333333333333333 [-]
	 SCS Opposite-Spin Scale   =       1.2000000000000000 [-]
	 SCS Same-Spin Energy      =      -0.1388457918765582 [Eh]
	 SCS Opposite-Spin Energy  =      -1.5518647847190188 [Eh]
	 SCS Correlation Energy    =      -1.6907105765955770 [Eh]
	 SCS Total Energy          =    -419.8843566023077756 [Eh]
	-----------------------------------------------------------

  Dipole Moment: [D]
     X:    10.0316      Y:     3.5002      Z:     0.6296     Total:    10.6433

*** Psi4 exiting successfully. Buy a developer a beer!
