                               Psi4 1.3.2 release

  ==> Input File <==

--------------------------------------------------------------------------
#psi4
#
memory 32 gb

molecule  {
-1 1
  O        0.5632720    -1.1719080    -0.3765930
  O       -2.2370500    -0.5589400     1.0879600
  O       -2.5032960     0.1554020    -1.0563790
  C        1.9927080     0.6815170     0.1510220
  C        0.6323559     0.0443517    -0.0747287
  C       -0.5777410     0.8814240     0.1686100
  C        3.1729130    -0.2631210    -0.0329300
  C       -1.9010600     0.0931950     0.0560670
  H        2.0078511     1.5040532    -0.5762754
  H        2.0060190     1.1470430     1.1438410
  H       -0.4967450     1.3515110     1.1569670
  H       -0.5352790     1.6874700    -0.5756840
  H        3.1399490    -1.0742180     0.6982180
  H        3.1613950    -0.7098910    -1.0291440
  H        4.1160350     0.2752530     0.0934100
units angstrom
no_reorient  #important for SAPT in psi4, default
symmetry c1  #important for SAPT in psi4, default
}

set PROPERTIES_ORIGIN ["COM"]
properties('MP2/aug-cc-pvtz', properties = ['dipole'])
--------------------------------------------------------------------------

    Molecular point group: c1
  Charge       = -1
  Multiplicity = 1
  Basis Set: AUG-CC-PVTZ
    Blend: AUG-CC-PVTZ
  Basis Set: (AUG-CC-PVTZ AUX)
    Blend: AUG-CC-PVTZ-JKFIT

    Orbital Energies [Eh]
    ---------------------

    Doubly Occupied:

       1A    -20.407456     2A    -20.297256     3A    -20.295599
       4A    -11.201661     5A    -11.147651     6A    -11.131244
       7A    -11.121303     8A    -11.084208     9A     -1.223843
      10A     -1.164598    11A     -1.064840    12A     -0.950283
      13A     -0.874531    14A     -0.768886    15A     -0.610933
      16A     -0.539237    17A     -0.528883    18A     -0.525285
      19A     -0.467660    20A     -0.456727    21A     -0.439648
      22A     -0.412764    23A     -0.404450    24A     -0.403177
      25A     -0.377528    26A     -0.339084    27A     -0.334835
      28A     -0.282281    29A     -0.211111    30A     -0.208584
      31A     -0.193113

  @DF-RHF Final Energy:  -418.19048070000133

   => Energetics <=

    Nuclear Repulsion Energy =            356.6190351150597735
    One-Electron Energy =               -1290.6817192553862697
    Two-Electron Energy =                 515.8722034403251655
    Total Energy =                       -418.1904807000013307
  Basis Set: (AUG-CC-PVTZ AUX)
    Blend: AUG-CC-PVTZ-RI
    Molecular point group: c1

    Geometry (in Angstrom), charge = -1, multiplicity = 1:

       Center              X                  Y                   Z               Mass
    ------------   -----------------  -----------------  -----------------  -----------------
         O            0.680429623994    -1.139425384488    -0.364566784255    15.994914619570
         O           -2.119892376006    -0.526457384488     1.099986215745    15.994914619570
         O           -2.386138376006     0.187884615512    -1.044352784255    15.994914619570
         C            2.109865623994     0.713999615512     0.163048215745    12.000000000000
         C            0.749513523994     0.076834315512    -0.062702484255    12.000000000000
         C           -0.460583376006     0.913906615512     0.180636215745    12.000000000000
         C            3.290070623994    -0.230638384488    -0.020903784255    12.000000000000
         C           -1.783902376006     0.125677615512     0.068093215745    12.000000000000
         H            2.125008723994     1.536535815512    -0.564249184255     1.007825032230
         H            2.123176623994     1.179525615512     1.155867215745     1.007825032230
         H           -0.379587376006     1.383993615512     1.168993215745     1.007825032230
         H           -0.418121376006     1.719952615512    -0.563657784255     1.007825032230
         H            3.257106623994    -1.041735384488     0.710244215745     1.007825032230
         H            3.278552623994    -0.677408384488    -1.017117784255     1.007825032230
         H            4.233192623994     0.307735615512     0.105436215745     1.007825032230

  Basis Set: AUG-CC-PVTZ
    Blend: AUG-CC-PVTZ
  Basis Set: (AUG-CC-PVTZ AUX)
    Blend: AUG-CC-PVTZ-JKFIT
	 Reference Energy          =    -418.1904807000013307 [Eh]
	 Singles Energy            =      -0.0000000000000000 [Eh]
	 Same-Spin Energy          =      -0.4170605547118643 [Eh]
	 Opposite-Spin Energy      =      -1.2942098136803257 [Eh]
	 Correlation Energy        =      -1.7112703683921899 [Eh]
	 Total Energy              =    -419.9017510683935370 [Eh]

	 ================> DF-SCS-MP2 Energies <==================
	-----------------------------------------------------------
	 SCS Same-Spin Scale       =       0.3333333333333333 [-]
	 SCS Opposite-Spin Scale   =       1.2000000000000000 [-]
	 SCS Same-Spin Energy      =      -0.1390201849039548 [Eh]
	 SCS Opposite-Spin Energy  =      -1.5530517764163909 [Eh]
	 SCS Correlation Energy    =      -1.6920719613203457 [Eh]
	 SCS Total Energy          =    -419.8825526613216539 [Eh]
	-----------------------------------------------------------

  Dipole Moment: [D]
     X:     9.9007      Y:     3.5571      Z:     0.6317     Total:    10.5393

*** Psi4 exiting successfully. Buy a developer a beer!
