                               Psi4 1.3.2 release

  ==> Input File <==

--------------------------------------------------------------------------
#psi4
#
memory 32 gb

molecule  {
-1 1
  O        0.5632720    -1.1719080    -0.3765930
  O       -2.2370500    -0.5589400     1.0879600
  O       -2.5032960     0.1554020    -1.0563790
  C        1.9927080     0.6815170     0.1510220
  C        0.6564018    -0.0252066     0.0015954
  C       -0.5777410     0.8814240     0.1686100
  C        3.1729130    -0.2631210    -0.0329300
  C       -1.9010600     0.0931950     0.0560670
  H        2.0780197     1.5216053    -0.5509254
  H        2.0060190     1.1470430     1.1438410
  H       -0.4967450     1.3515110     1.1569670
  H       -0.5352790     1.6874700    -0.5756840
  H        3.1399490    -1.0742180     0.6982180
  H        3.1613950    -0.7098910    -1.0291440
  H        4.1160350     0.2752530     0.0934100
units angstrom
no_reorient  #important for SAPT in psi4, default
symmetry c1  #important for SAPT in psi4, default
}

set PROPERTIES_ORIGIN ["COM"]
properties('MP2/aug-cc-pvtz', properties = ['dipole'])
--------------------------------------------------------------------------

    Molecular point group: c1
  Charge       = -1
  Multiplicity = 1
  Basis Set: AUG-CC-PVTZ
    Blend: AUG-CC-PVTZ
  Basis Set: (AUG-CC-PVTZ AUX)
    Blend: AUG-CC-PVTZ-JKFIT

    Orbital Energies [Eh]
    ---------------------

    Doubly Occupied:

       1A    -20.413265     2A    -20.295644     3A    -20.293692
       4A    -11.199189     5A    -11.144700     6A    -11.129628
       7A    -11.120518     8A    -11.081582     9A     -1.254334
      10A     -1.163043    11A     -1.063097    12A     -0.949743
      13A     -0.861405    14A     -0.765146    15A     -0.613152
      16A     -0.537007    17A     -0.533423    18A     -0.525485
      19A     -0.474528    20A     -0.452728    21A     -0.439157
      22A     -0.411846    23A     -0.408506    24A     -0.402800
      25A     -0.377107    26A     -0.354020    27A     -0.336047
      28A     -0.276922    29A     -0.209406    30A     -0.205573
      31A     -0.191848

  @DF-RHF Final Energy:  -418.19529570500259

   => Energetics <=

    Nuclear Repulsion Energy =            356.7478469615398353
    One-Electron Energy =               -1290.9172021226984270
    Two-Electron Energy =                 515.9740594561559419
    Total Energy =                       -418.1952957050026498
  Basis Set: (AUG-CC-PVTZ AUX)
    Blend: AUG-CC-PVTZ-RI
    Molecular point group: c1

    Geometry (in Angstrom), charge = -1, multiplicity = 1:

       Center              X                  Y                   Z               Mass
    ------------   -----------------  -----------------  -----------------  -----------------
         O            0.677306623530    -1.132323388924    -0.372750385612    15.994914619570
         O           -2.123015376470    -0.519355388924     1.091802614388    15.994914619570
         O           -2.389261376470     0.194986611076    -1.052536385612    15.994914619570
         C            2.106742623530     0.721101611076     0.154864614388    12.000000000000
         C            0.770436423530     0.014378011076     0.005438014388    12.000000000000
         C           -0.463706376470     0.921008611076     0.172452614388    12.000000000000
         C            3.286947623530    -0.223536388924    -0.029087385612    12.000000000000
         C           -1.787025376470     0.132779611076     0.059909614388    12.000000000000
         H            2.192054323530     1.561189911076    -0.547082785612     1.007825032230
         H            2.120053623530     1.186627611076     1.147683614388     1.007825032230
         H           -0.382710376470     1.391095611076     1.160809614388     1.007825032230
         H           -0.421244376470     1.727054611076    -0.571841385612     1.007825032230
         H            3.253983623530    -1.034633388924     0.702060614388     1.007825032230
         H            3.275429623530    -0.670306388924    -1.025301385612     1.007825032230
         H            4.230069623530     0.314837611076     0.097252614388     1.007825032230

  Basis Set: AUG-CC-PVTZ
    Blend: AUG-CC-PVTZ
  Basis Set: (AUG-CC-PVTZ AUX)
    Blend: AUG-CC-PVTZ-JKFIT
	 Reference Energy          =    -418.1952957050025930 [Eh]
	 Singles Energy            =      -0.0000000000000000 [Eh]
	 Same-Spin Energy          =      -0.4155918420001713 [Eh]
	 Opposite-Spin Energy      =      -1.2914815104668012 [Eh]
	 Correlation Energy        =      -1.7070733524669723 [Eh]
	 Total Energy              =    -419.9023690574695706 [Eh]

	 ================> DF-SCS-MP2 Energies <==================
	-----------------------------------------------------------
	 SCS Same-Spin Scale       =       0.3333333333333333 [-]
	 SCS Opposite-Spin Scale   =       1.2000000000000000 [-]
	 SCS Same-Spin Energy      =      -0.1385306140000571 [Eh]
	 SCS Opposite-Spin Energy  =      -1.5497778125601613 [Eh]
	 SCS Correlation Energy    =      -1.6883084265602184 [Eh]
	 SCS Total Energy          =    -419.8836041315628336 [Eh]
	-----------------------------------------------------------

  Dipole Moment: [D]
     X:    10.0877      Y:     3.3503      Z:     0.6370     Total:    10.6485

*** Psi4 exiting successfully. Buy a developer a beer!
