                               Psi4 1.3.2 release

  ==> Input File <==

--------------------------------------------------------------------------
#psi4
#
memory 32 gb

molecule  {
-1 1
  O        0.5632720    -1.1719080    -0.3765930
  O       -2.2370500    -0.5589400     1.0879600
  O       -2.5032960     0.1554020    -1.0563790
  C        1.9927080     0.6815170     0.1510220
  C        0.6377501     0.0266576    -0.0557363
  C       -0.5777410     0.8814240     0.1686100
  C        3.1729130    -0.2631210    -0.0329300
  C       -1.9010600     0.0931950     0.0560670
  H        2.0254135     1.5088206    -0.5702656
  H        2.0060190     1.1470430     1.1438410
  H       -0.4967450     1.3515110     1.1569670
  H       -0.5352790     1.6874700    -0.5756840
  H        3.1399490    -1.0742180     0.6982180
  H        3.1613950    -0.7098910    -1.0291440
  H        4.1160350     0.2752530     0.0934100
units angstrom
no_reorient  #important for SAPT in psi4, default
symmetry c1  #important for SAPT in psi4, default
}

set PROPERTIES_ORIGIN ["COM"]
properties('MP2/aug-cc-pvtz', properties = ['dipole'])
--------------------------------------------------------------------------

    Molecular point group: c1
  Charge       = -1
  Multiplicity = 1
  Basis Set: AUG-CC-PVTZ
    Blend: AUG-CC-PVTZ
  Basis Set: (AUG-CC-PVTZ AUX)
    Blend: AUG-CC-PVTZ-JKFIT

    Orbital Energies [Eh]
    ---------------------

    Doubly Occupied:

       1A    -20.408779     2A    -20.296866     3A    -20.295139
       4A    -11.200765     5A    -11.146919     6A    -11.130711
       7A    -11.121076     8A    -11.083530     9A     -1.231731
      10A     -1.164264    11A     -1.064421    12A     -0.950015
      13A     -0.871346    14A     -0.767869    15A     -0.611238
      16A     -0.538763    17A     -0.528925    18A     -0.526252
      19A     -0.469423    20A     -0.455719    21A     -0.439602
      22A     -0.411638    23A     -0.406013    24A     -0.403598
      25A     -0.377337    26A     -0.342759    27A     -0.335751
      28A     -0.281459    29A     -0.210703    30A     -0.207871
      31A     -0.192812

  @DF-RHF Final Energy:  -418.19371015692280

   => Energetics <=

    Nuclear Repulsion Energy =            356.6719610214301497
    One-Electron Energy =               -1290.7847518523503823
    Two-Electron Energy =                 515.9190806739973141
    Total Energy =                       -418.1937101569228616
  Basis Set: (AUG-CC-PVTZ AUX)
    Blend: AUG-CC-PVTZ-RI
    Molecular point group: c1

    Geometry (in Angstrom), charge = -1, multiplicity = 1:

       Center              X                  Y                   Z               Mass
    ------------   -----------------  -----------------  -----------------  -----------------
         O            0.679713085652    -1.137621443576    -0.366600569068    15.994914619570
         O           -2.120608914348    -0.524653443576     1.097952430932    15.994914619570
         O           -2.386854914348     0.189688556424    -1.046386569068    15.994914619570
         C            2.109149085652     0.715803556424     0.161014430932    12.000000000000
         C            0.754191185652     0.060944156424    -0.045743869068    12.000000000000
         C           -0.461299914348     0.915710556424     0.178602430932    12.000000000000
         C            3.289354085652    -0.228834443576    -0.022937569068    12.000000000000
         C           -1.784618914348     0.127481556424     0.066059430932    12.000000000000
         H            2.141854585652     1.543107156424    -0.560273169068     1.007825032230
         H            2.122460085652     1.181329556424     1.153833430932     1.007825032230
         H           -0.380303914348     1.385797556424     1.166959430932     1.007825032230
         H           -0.418837914348     1.721756556424    -0.565691569068     1.007825032230
         H            3.256390085652    -1.039931443576     0.708210430932     1.007825032230
         H            3.277836085652    -0.675604443576    -1.019151569068     1.007825032230
         H            4.232476085652     0.309539556424     0.103402430932     1.007825032230

  Basis Set: AUG-CC-PVTZ
    Blend: AUG-CC-PVTZ
  Basis Set: (AUG-CC-PVTZ AUX)
    Blend: AUG-CC-PVTZ-JKFIT
	 Reference Energy          =    -418.1937101569228048 [Eh]
	 Singles Energy            =      -0.0000000000000000 [Eh]
	 Same-Spin Energy          =      -0.4165928819505390 [Eh]
	 Opposite-Spin Energy      =      -1.2932946219364823 [Eh]
	 Correlation Energy        =      -1.7098875038870212 [Eh]
	 Total Energy              =    -419.9035976608098508 [Eh]

	 ================> DF-SCS-MP2 Energies <==================
	-----------------------------------------------------------
	 SCS Same-Spin Scale       =       0.3333333333333333 [-]
	 SCS Opposite-Spin Scale   =       1.2000000000000000 [-]
	 SCS Same-Spin Energy      =      -0.1388642939835130 [Eh]
	 SCS Opposite-Spin Energy  =      -1.5519535463237786 [Eh]
	 SCS Correlation Energy    =      -1.6908178403072915 [Eh]
	 SCS Total Energy          =    -419.8845279972301228 [Eh]
	-----------------------------------------------------------

  Dipole Moment: [D]
     X:     9.9449      Y:     3.5095      Z:     0.6320     Total:    10.5649

*** Psi4 exiting successfully. Buy a developer a beer!
