                               Psi4 1.4a3.dev225

  ==> Input File <==

--------------------------------------------------------------------------
#psi4
#
memory 32 gb

molecule  {
-1 1
  O        1.0745520     1.3418620    -0.8745480
  O       -1.1230780    -1.1034960    -0.8170800
  O       -2.9206860    -0.1812610     0.2330210
  C        1.4738630    -0.3704550     0.7611780
  C        0.6286860     0.6706690     0.0605170
  C       -0.7798250     0.8397660     0.5534010
  C        2.7202340    -0.7612590    -0.0182770
  C       -1.6911362    -0.2700198    -0.0829029
  H        1.7414500     0.0432240     1.7443780
  H        0.8355880    -1.2371210     0.9565080
  H       -0.8294850     0.7587360     1.6458800
  H       -1.1523820     1.8284630     0.2671350
  H        2.4446610    -1.1885100    -0.9860420
  H        3.3521650     0.1095510    -0.2043800
  H        3.3054110    -1.5035610     0.5312540
units angstrom
no_reorient  #important for SAPT in psi4, default
symmetry c1  #important for SAPT in psi4, default
}

set PROPERTIES_ORIGIN ["COM"]
properties('MP2/aug-cc-pvtz', properties = ['dipole'])
--------------------------------------------------------------------------

    Molecular point group: c1
  Charge       = -1
  Multiplicity = 1
  Basis Set: AUG-CC-PVTZ
    Blend: AUG-CC-PVTZ
  Basis Set: (AUG-CC-PVTZ AUX)
    Blend: AUG-CC-PVTZ-JKFIT

    Orbital Energies [Eh]
    ---------------------

    Doubly Occupied:

       1A    -20.400181     2A    -20.318479     3A    -20.307680
       4A    -11.189282     5A    -11.164487     6A    -11.108265
       7A    -11.102655     8A    -11.079588     9A     -1.230529
      10A     -1.187146    11A     -1.085630    12A     -0.932834
      13A     -0.861639    14A     -0.752017    15A     -0.600336
      16A     -0.546206    17A     -0.513736    18A     -0.504866
      19A     -0.480647    20A     -0.450064    21A     -0.441295
      22A     -0.409459    23A     -0.398810    24A     -0.390662
      25A     -0.379168    26A     -0.349878    27A     -0.338687
      28A     -0.276488    29A     -0.231876    30A     -0.213788
      31A     -0.212260

  @DF-RHF Final Energy:  -418.20958376341082

   => Energetics <=

    Nuclear Repulsion Energy =            362.6603085088403873
    One-Electron Energy =               -1302.8225086461675346
    Two-Electron Energy =                 521.9526163739162712
    Total Energy =                       -418.2095837634108193
  Basis Set: (AUG-CC-PVTZ AUX)
    Blend: AUG-CC-PVTZ-RI
    Molecular point group: c1

    Geometry (in Angstrom), charge = -1, multiplicity = 1:

       Center              X                  Y                   Z               Mass
    ------------   -----------------  -----------------  -----------------  -----------------
         O            1.157107458966     1.333001737559    -0.839276448557    15.994914619570
         O           -1.040522541034    -1.112356262441    -0.781808448557    15.994914619570
         O           -2.838130541034    -0.190121262441     0.268292551443    15.994914619570
         C            1.556418458966    -0.379315262441     0.796449551443    12.000000000000
         C            0.711241458966     0.661808737559     0.095788551443    12.000000000000
         C           -0.697269541034     0.830905737559     0.588672551443    12.000000000000
         C            2.802789458966    -0.770119262441     0.016994551443    12.000000000000
         C           -1.608580741034    -0.278880062441    -0.047631348557    12.000000000000
         H            1.824005458966     0.034363737559     1.779649551443     1.007825032230
         H            0.918143458966    -1.245981262441     0.991779551443     1.007825032230
         H           -0.746929541034     0.749875737559     1.681151551443     1.007825032230
         H           -1.069826541034     1.819602737559     0.302406551443     1.007825032230
         H            2.527216458966    -1.197370262441    -0.950770448557     1.007825032230
         H            3.434720458966     0.100690737559    -0.169108448557     1.007825032230
         H            3.387966458966    -1.512421262441     0.566525551443     1.007825032230

  Basis Set: AUG-CC-PVTZ
    Blend: AUG-CC-PVTZ
  Basis Set: (AUG-CC-PVTZ AUX)
    Blend: AUG-CC-PVTZ-JKFIT
	 Reference Energy          =    -418.2095837634108193 [Eh]
	 Singles Energy            =      -0.0000000000000000 [Eh]
	 Same-Spin Energy          =      -0.4166012557788967 [Eh]
	 Opposite-Spin Energy      =      -1.2919171421638294 [Eh]
	 Correlation Energy        =      -1.7085183979427261 [Eh]
	 Total Energy              =    -419.9181021613535449 [Eh]

	 ================> DF-SCS-MP2 Energies <==================
	-----------------------------------------------------------
	 SCS Same-Spin Scale       =       0.3333333333333333 [-]
	 SCS Opposite-Spin Scale   =       1.2000000000000000 [-]
	 SCS Same-Spin Energy      =      -0.1388670852596322 [Eh]
	 SCS Opposite-Spin Energy  =      -1.5503005705965951 [Eh]
	 SCS Correlation Energy    =      -1.6891676558562274 [Eh]
	 SCS Total Energy          =    -419.8987514192670574 [Eh]
	-----------------------------------------------------------

  Dipole Moment: [D]
     X:     6.8525      Y:     1.1506      Z:     3.0941     Total:     7.6062

*** Psi4 exiting successfully. Buy a developer a beer!
