                               Psi4 1.3.2 release

  ==> Input File <==

--------------------------------------------------------------------------
#psi4
#
memory 32 gb

molecule  {
-1 1
  O        0.5632720    -1.1719080    -0.3765930
  O       -2.2279464    -0.5553837     1.0931126
  O       -2.5032960     0.1554020    -1.0563790
  C        1.9927080     0.6815170     0.1510220
  C        0.6435570     0.0091630    -0.0366810
  C       -0.5762407     0.8769858     0.1812468
  C        3.1729130    -0.2631210    -0.0329300
  C       -1.9010600     0.0931950     0.0560670
  H        2.0429660     1.5133360    -0.5640360
  H        2.0060190     1.1470430     1.1438410
  H       -0.4967450     1.3515110     1.1569670
  H       -0.5352790     1.6874700    -0.5756840
  H        3.1399490    -1.0742180     0.6982180
  H        3.1613950    -0.7098910    -1.0291440
  H        4.1160350     0.2752530     0.0934100
units angstrom
no_reorient  #important for SAPT in psi4, default
symmetry c1  #important for SAPT in psi4, default
}

set PROPERTIES_ORIGIN ["COM"]
properties('MP2/aug-cc-pvtz', properties = ['dipole'])
--------------------------------------------------------------------------

    Molecular point group: c1
  Charge       = -1
  Multiplicity = 1
  Basis Set: AUG-CC-PVTZ
    Blend: AUG-CC-PVTZ
  Basis Set: (AUG-CC-PVTZ AUX)
    Blend: AUG-CC-PVTZ-JKFIT

    Orbital Energies [Eh]
    ---------------------

    Doubly Occupied:

       1A    -20.409832     2A    -20.297452     3A    -20.294787
       4A    -11.199695     5A    -11.146490     6A    -11.129996
       7A    -11.120688     8A    -11.082369     9A     -1.239219
      10A     -1.164045    11A     -1.065008    12A     -0.949642
      13A     -0.867884    14A     -0.766593    15A     -0.611582
      16A     -0.538227    17A     -0.529970    18A     -0.526052
      19A     -0.471147    20A     -0.454059    21A     -0.439506
      22A     -0.410683    23A     -0.407686    24A     -0.403351
      25A     -0.377320    26A     -0.345977    27A     -0.336513
      28A     -0.280197    29A     -0.211302    30A     -0.206558
      31A     -0.193166

  @DF-RHF Final Energy:  -418.19544555869101

   => Energetics <=

    Nuclear Repulsion Energy =            356.8034353760713202
    One-Electron Energy =               -1291.0437689615712316
    Two-Electron Energy =                 516.0448880268088487
    Total Energy =                       -418.1954455586910626
  Basis Set: (AUG-CC-PVTZ AUX)
    Blend: AUG-CC-PVTZ-RI
    Molecular point group: c1

    Geometry (in Angstrom), charge = -1, multiplicity = 1:

       Center              X                  Y                   Z               Mass
    ------------   -----------------  -----------------  -----------------  -----------------
         O            0.677531334931    -1.135867610167    -0.370677419768    15.994914619570
         O           -2.113687065069    -0.519343310167     1.099028180232    15.994914619570
         O           -2.389036665069     0.191442389833    -1.050463419768    15.994914619570
         C            2.106967334931     0.717557389833     0.156937580232    12.000000000000
         C            0.757816334931     0.045203389833    -0.030765419768    12.000000000000
         C           -0.461981365069     0.913026189833     0.187162380232    12.000000000000
         C            3.287172334931    -0.227080610167    -0.027014419768    12.000000000000
         C           -1.786800665069     0.129235389833     0.061982580232    12.000000000000
         H            2.157225334931     1.549376389833    -0.558120419768     1.007825032230
         H            2.120278334931     1.183083389833     1.149756580232     1.007825032230
         H           -0.382485665069     1.387551389833     1.162882580232     1.007825032230
         H           -0.421019665069     1.723510389833    -0.569768419768     1.007825032230
         H            3.254208334931    -1.038177610167     0.704133580232     1.007825032230
         H            3.275654334931    -0.673850610167    -1.023228419768     1.007825032230
         H            4.230294334931     0.311293389833     0.099325580232     1.007825032230

  Basis Set: AUG-CC-PVTZ
    Blend: AUG-CC-PVTZ
  Basis Set: (AUG-CC-PVTZ AUX)
    Blend: AUG-CC-PVTZ-JKFIT
	 Reference Energy          =    -418.1954455586910058 [Eh]
	 Singles Energy            =      -0.0000000000000000 [Eh]
	 Same-Spin Energy          =      -0.4162297489793552 [Eh]
	 Opposite-Spin Energy      =      -1.2925823541890251 [Eh]
	 Correlation Energy        =      -1.7088121031683803 [Eh]
	 Total Energy              =    -419.9042576618593898 [Eh]

	 ================> DF-SCS-MP2 Energies <==================
	-----------------------------------------------------------
	 SCS Same-Spin Scale       =       0.3333333333333333 [-]
	 SCS Opposite-Spin Scale   =       1.2000000000000000 [-]
	 SCS Same-Spin Energy      =      -0.1387432496597850 [Eh]
	 SCS Opposite-Spin Energy  =      -1.5510988250268301 [Eh]
	 SCS Correlation Energy    =      -1.6898420746866152 [Eh]
	 SCS Total Energy          =    -419.8852876333776294 [Eh]
	-----------------------------------------------------------

  Dipole Moment: [D]
     X:     9.9545      Y:     3.4460      Z:     0.6407     Total:    10.5536

*** Psi4 exiting successfully. Buy a developer a beer!
