                               Psi4 1.3.2 release

  ==> Input File <==

--------------------------------------------------------------------------
#psi4
#
memory 32 gb

molecule  {
-1 1
  O        0.5632720    -1.1719080    -0.3765930
  O       -2.2370500    -0.5589400     1.0879600
  O       -2.5032960     0.1554020    -1.0563790
  C        1.9927080     0.6815170     0.1510220
  C        0.6435570     0.0091630    -0.0366810
  C       -0.5777410     0.8814240     0.1686100
  C        3.1729130    -0.2631210    -0.0329300
  C       -1.9086090     0.1092292     0.0357580
  H        2.0429660     1.5133360    -0.5640360
  H        2.0060190     1.1470430     1.1438410
  H       -0.4967450     1.3515110     1.1569670
  H       -0.5525884     1.6822724    -0.5820537
  H        3.1399490    -1.0742180     0.6982180
  H        3.1613950    -0.7098910    -1.0291440
  H        4.1160350     0.2752530     0.0934100
units angstrom
no_reorient  #important for SAPT in psi4, default
symmetry c1  #important for SAPT in psi4, default
}

set PROPERTIES_ORIGIN ["COM"]
properties('MP2/aug-cc-pvtz', properties = ['dipole'])
--------------------------------------------------------------------------

    Molecular point group: c1
  Charge       = -1
  Multiplicity = 1
  Basis Set: AUG-CC-PVTZ
    Blend: AUG-CC-PVTZ
  Basis Set: (AUG-CC-PVTZ AUX)
    Blend: AUG-CC-PVTZ-JKFIT

    Orbital Energies [Eh]
    ---------------------

    Doubly Occupied:

       1A    -20.410078     2A    -20.302536     3A    -20.288642
       4A    -11.200167     5A    -11.145893     6A    -11.130267
       7A    -11.120818     8A    -11.082748     9A     -1.239251
      10A     -1.167107    11A     -1.060975    12A     -0.949726
      13A     -0.867727    14A     -0.766984    15A     -0.612103
      16A     -0.537904    17A     -0.529664    18A     -0.526191
      19A     -0.471265    20A     -0.455064    21A     -0.439737
      22A     -0.411070    23A     -0.407708    24A     -0.403385
      25A     -0.376886    26A     -0.346280    27A     -0.337328
      28A     -0.280139    29A     -0.212331    30A     -0.203869
      31A     -0.191679

  @DF-RHF Final Energy:  -418.19437139416698

   => Energetics <=

    Nuclear Repulsion Energy =            356.6476803920709244
    One-Electron Energy =               -1290.7330627329015442
    Two-Electron Energy =                 515.8910109466636413
    Total Energy =                       -418.1943713941669785
  Basis Set: (AUG-CC-PVTZ AUX)
    Blend: AUG-CC-PVTZ-RI
    Molecular point group: c1

    Geometry (in Angstrom), charge = -1, multiplicity = 1:

       Center              X                  Y                   Z               Mass
    ------------   -----------------  -----------------  -----------------  -----------------
         O            0.679892677829    -1.137463129821    -0.366468565767    15.994914619570
         O           -2.120429322171    -0.524495129821     1.098084434233    15.994914619570
         O           -2.386675322171     0.189846870179    -1.046254565767    15.994914619570
         C            2.109328677829     0.715961870179     0.161146434233    12.000000000000
         C            0.760177677829     0.043607870179    -0.026556565767    12.000000000000
         C           -0.461120322171     0.915868870179     0.178734434233    12.000000000000
         C            3.289533677829    -0.228676129821    -0.022805565767    12.000000000000
         C           -1.791988322171     0.143674070179     0.045882434233    12.000000000000
         H            2.159586677829     1.547780870179    -0.553911565767     1.007825032230
         H            2.122639677829     1.181487870179     1.153965434233     1.007825032230
         H           -0.380124322171     1.385955870179     1.167091434233     1.007825032230
         H           -0.435967722171     1.716717270179    -0.571929265767     1.007825032230
         H            3.256569677829    -1.039773129821     0.708342434233     1.007825032230
         H            3.278015677829    -0.675446129821    -1.019019565767     1.007825032230
         H            4.232655677829     0.309697870179     0.103534434233     1.007825032230

  Basis Set: AUG-CC-PVTZ
    Blend: AUG-CC-PVTZ
  Basis Set: (AUG-CC-PVTZ AUX)
    Blend: AUG-CC-PVTZ-JKFIT
	 Reference Energy          =    -418.1943713941669785 [Eh]
	 Singles Energy            =      -0.0000000000000000 [Eh]
	 Same-Spin Energy          =      -0.4162076101732332 [Eh]
	 Opposite-Spin Energy      =      -1.2926118085743510 [Eh]
	 Correlation Energy        =      -1.7088194187475843 [Eh]
	 Total Energy              =    -419.9031908129145449 [Eh]

	 ================> DF-SCS-MP2 Energies <==================
	-----------------------------------------------------------
	 SCS Same-Spin Scale       =       0.3333333333333333 [-]
	 SCS Opposite-Spin Scale   =       1.2000000000000000 [-]
	 SCS Same-Spin Energy      =      -0.1387358700577444 [Eh]
	 SCS Opposite-Spin Energy  =      -1.5511341702892212 [Eh]
	 SCS Correlation Energy    =      -1.6898700403469655 [Eh]
	 SCS Total Energy          =    -419.8842414345139673 [Eh]
	-----------------------------------------------------------

  Dipole Moment: [D]
     X:     9.9562      Y:     3.5404      Z:     0.3778     Total:    10.5737

*** Psi4 exiting successfully. Buy a developer a beer!
