                               Psi4 1.3.2 release

  ==> Input File <==

--------------------------------------------------------------------------
#psi4
#
memory 32 gb

molecule  {
-1 1
  O        0.5632720    -1.1719080    -0.3765930
  O       -2.2370500    -0.5589400     1.0879600
  O       -2.5032960     0.1554020    -1.0563790
  C        1.9927080     0.6815170     0.1510220
  C        0.6435570     0.0091630    -0.0366810
  C       -0.5777410     0.8814240     0.1686100
  C        3.1729130    -0.2631210    -0.0329300
  C       -1.8971342     0.0852676     0.0662347
  H        2.0429660     1.5133360    -0.5640360
  H        2.0060190     1.1470430     1.1438410
  H       -0.4967450     1.3515110     1.1569670
  H       -0.5266288     1.6899768    -0.5724140
  H        3.1399490    -1.0742180     0.6982180
  H        3.1613950    -0.7098910    -1.0291440
  H        4.1160350     0.2752530     0.0934100
units angstrom
no_reorient  #important for SAPT in psi4, default
symmetry c1  #important for SAPT in psi4, default
}

set PROPERTIES_ORIGIN ["COM"]
properties('MP2/aug-cc-pvtz', properties = ['dipole'])
--------------------------------------------------------------------------

    Molecular point group: c1
  Charge       = -1
  Multiplicity = 1
  Basis Set: AUG-CC-PVTZ
    Blend: AUG-CC-PVTZ
  Basis Set: (AUG-CC-PVTZ AUX)
    Blend: AUG-CC-PVTZ-JKFIT

    Orbital Energies [Eh]
    ---------------------

    Doubly Occupied:

       1A    -20.410251     2A    -20.297698     3A    -20.293443
       4A    -11.200003     5A    -11.146264     6A    -11.130261
       7A    -11.120896     8A    -11.082961     9A     -1.239608
      10A     -1.164722    11A     -1.063360    12A     -0.949893
      13A     -0.868279    14A     -0.766886    15A     -0.611545
      16A     -0.538642    17A     -0.530104    18A     -0.526352
      19A     -0.471330    20A     -0.454475    21A     -0.439719
      22A     -0.411113    23A     -0.407875    24A     -0.403319
      25A     -0.377137    26A     -0.347166    27A     -0.335892
      28A     -0.280407    29A     -0.210796    30A     -0.206502
      31A     -0.192420

  @DF-RHF Final Energy:  -418.19535897549434

   => Energetics <=

    Nuclear Repulsion Energy =            356.7494903199329883
    One-Electron Energy =               -1290.9310585920989070
    Two-Electron Energy =                 515.9862092966716318
    Total Energy =                       -418.1953589754942868
  Basis Set: (AUG-CC-PVTZ AUX)
    Blend: AUG-CC-PVTZ-RI
    Molecular point group: c1

    Geometry (in Angstrom), charge = -1, multiplicity = 1:

       Center              X                  Y                   Z               Mass
    ------------   -----------------  -----------------  -----------------  -----------------
         O            0.678468294834    -1.135031143709    -0.369732101063    15.994914619570
         O           -2.121853705166    -0.522063143709     1.094820898937    15.994914619570
         O           -2.388099705166     0.192278856291    -1.049518101063    15.994914619570
         C            2.107904294834     0.718393856291     0.157882898937    12.000000000000
         C            0.758753294834     0.046039856291    -0.029820101063    12.000000000000
         C           -0.462544705166     0.918300856291     0.175470898937    12.000000000000
         C            3.288109294834    -0.226244143709    -0.026069101063    12.000000000000
         C           -1.781937905166     0.122144456291     0.073095598937    12.000000000000
         H            2.158162294834     1.550212856291    -0.557175101063     1.007825032230
         H            2.121215294834     1.183919856291     1.150701898937     1.007825032230
         H           -0.381548705166     1.388387856291     1.163827898937     1.007825032230
         H           -0.411432505166     1.726853656291    -0.565553101063     1.007825032230
         H            3.255145294834    -1.037341143709     0.705078898937     1.007825032230
         H            3.276591294834    -0.673014143709    -1.022283101063     1.007825032230
         H            4.231231294834     0.312129856291     0.100270898937     1.007825032230

  Basis Set: AUG-CC-PVTZ
    Blend: AUG-CC-PVTZ
  Basis Set: (AUG-CC-PVTZ AUX)
    Blend: AUG-CC-PVTZ-JKFIT
	 Reference Energy          =    -418.1953589754943437 [Eh]
	 Singles Energy            =      -0.0000000000000000 [Eh]
	 Same-Spin Energy          =      -0.4161903450828729 [Eh]
	 Opposite-Spin Energy      =      -1.2925124053313777 [Eh]
	 Correlation Energy        =      -1.7087027504142507 [Eh]
	 Total Energy              =    -419.9040617259086048 [Eh]

	 ================> DF-SCS-MP2 Energies <==================
	-----------------------------------------------------------
	 SCS Same-Spin Scale       =       0.3333333333333333 [-]
	 SCS Opposite-Spin Scale   =       1.2000000000000000 [-]
	 SCS Same-Spin Energy      =      -0.1387301150276243 [Eh]
	 SCS Opposite-Spin Energy  =      -1.5510148863976532 [Eh]
	 SCS Correlation Energy    =      -1.6897450014252775 [Eh]
	 SCS Total Energy          =    -419.8851039769195950 [Eh]
	-----------------------------------------------------------

  Dipole Moment: [D]
     X:    10.0098      Y:     3.4183      Z:     0.7608     Total:    10.6046

*** Psi4 exiting successfully. Buy a developer a beer!
