                               Psi4 1.3.2 release

  ==> Input File <==

--------------------------------------------------------------------------
#psi4
#
memory 32 gb

molecule  {
-1 1
  O        0.5632720    -1.1719080    -0.3765930
  O       -2.2370500    -0.5589400     1.0879600
  O       -2.5032960     0.1554020    -1.0563790
  C        1.9927080     0.6815170     0.1510220
  C        0.6185912    -0.0363061     0.0233063
  C       -0.5777410     0.8814240     0.1686100
  C        3.1729130    -0.2631210    -0.0329300
  C       -1.9010600     0.0931950     0.0560670
  H        2.0429660     1.5133360    -0.5640360
  H        2.0060190     1.1470430     1.1438410
  H       -0.4967450     1.3515110     1.1569670
  H       -0.5845964     1.7077966    -0.5542649
  H        3.1399490    -1.0742180     0.6982180
  H        3.1613950    -0.7098910    -1.0291440
  H        4.1160350     0.2752530     0.0934100
units angstrom
no_reorient  #important for SAPT in psi4, default
symmetry c1  #important for SAPT in psi4, default
}

set PROPERTIES_ORIGIN ["COM"]
properties('MP2/aug-cc-pvtz', properties = ['dipole'])
--------------------------------------------------------------------------

    Molecular point group: c1
  Charge       = -1
  Multiplicity = 1
  Basis Set: AUG-CC-PVTZ
    Blend: AUG-CC-PVTZ
  Basis Set: (AUG-CC-PVTZ AUX)
    Blend: AUG-CC-PVTZ-JKFIT

    Orbital Energies [Eh]
    ---------------------

    Doubly Occupied:

       1A    -20.414024     2A    -20.296890     3A    -20.294531
       4A    -11.199791     5A    -11.145398     6A    -11.127857
       7A    -11.119058     8A    -11.081706     9A     -1.258599
      10A     -1.164327    11A     -1.064269    12A     -0.943137
      13A     -0.866627    14A     -0.760875    15A     -0.611569
      16A     -0.538472    17A     -0.532647    18A     -0.522561
      19A     -0.477606    20A     -0.453363    21A     -0.440270
      22A     -0.409675    23A     -0.408178    24A     -0.401901
      25A     -0.378113    26A     -0.355505    27A     -0.336686
      28A     -0.277237    29A     -0.210523    30A     -0.205414
      31A     -0.193011

  @DF-RHF Final Energy:  -418.19389622509527

   => Energetics <=

    Nuclear Repulsion Energy =            356.9035035560954725
    One-Electron Energy =               -1291.2151603967713527
    Two-Electron Energy =                 516.1177606155805506
    Total Energy =                       -418.1938962250952727
  Basis Set: (AUG-CC-PVTZ AUX)
    Blend: AUG-CC-PVTZ-RI
    Molecular point group: c1

    Geometry (in Angstrom), charge = -1, multiplicity = 1:

       Center              X                  Y                   Z               Mass
    ------------   -----------------  -----------------  -----------------  -----------------
         O            0.681989870738    -1.131271208315    -0.375087880731    15.994914619570
         O           -2.118332129262    -0.518303208315     1.089465119269    15.994914619570
         O           -2.384578129262     0.196038791685    -1.054873880731    15.994914619570
         C            2.111425870738     0.722153791685     0.152527119269    12.000000000000
         C            0.737309070738     0.004330691685     0.024811419269    12.000000000000
         C           -0.459023129262     0.922060791685     0.170115119269    12.000000000000
         C            3.291630870738    -0.222484208315    -0.031424880731    12.000000000000
         C           -1.782342129262     0.133831791685     0.057572119269    12.000000000000
         H            2.161683870738     1.553972791685    -0.562530880731     1.007825032230
         H            2.124736870738     1.187679791685     1.145346119269     1.007825032230
         H           -0.378027129262     1.392147791685     1.158472119269     1.007825032230
         H           -0.465878529262     1.748433391685    -0.552759780731     1.007825032230
         H            3.258666870738    -1.033581208315     0.699723119269     1.007825032230
         H            3.280112870738    -0.669254208315    -1.027638880731     1.007825032230
         H            4.234752870738     0.315889791685     0.094915119269     1.007825032230

  Basis Set: AUG-CC-PVTZ
    Blend: AUG-CC-PVTZ
  Basis Set: (AUG-CC-PVTZ AUX)
    Blend: AUG-CC-PVTZ-JKFIT
	 Reference Energy          =    -418.1938962250952727 [Eh]
	 Singles Energy            =      -0.0000000000000000 [Eh]
	 Same-Spin Energy          =      -0.4155595618516339 [Eh]
	 Opposite-Spin Energy      =      -1.2914198032731314 [Eh]
	 Correlation Energy        =      -1.7069793651247653 [Eh]
	 Total Energy              =    -419.9008755902200392 [Eh]

	 ================> DF-SCS-MP2 Energies <==================
	-----------------------------------------------------------
	 SCS Same-Spin Scale       =       0.3333333333333333 [-]
	 SCS Opposite-Spin Scale   =       1.2000000000000000 [-]
	 SCS Same-Spin Energy      =      -0.1385198539505446 [Eh]
	 SCS Opposite-Spin Energy  =      -1.5497037639277578 [Eh]
	 SCS Correlation Energy    =      -1.6882236178783023 [Eh]
	 SCS Total Energy          =    -419.8821198429735659 [Eh]
	-----------------------------------------------------------

  Dipole Moment: [D]
     X:     9.8408      Y:     3.3220      Z:     0.6478     Total:    10.4065

*** Psi4 exiting successfully. Buy a developer a beer!
