                               Psi4 1.3.2 release

  ==> Input File <==

--------------------------------------------------------------------------
#psi4
#
memory 32 gb

molecule  {
-1 1
  O        0.5632720    -1.1719080    -0.3765930
  O       -2.2370500    -0.5589400     1.0879600
  O       -2.5032960     0.1554020    -1.0563790
  C        1.9927080     0.6815170     0.1510220
  C        0.6396268     0.0014153    -0.0267178
  C       -0.5777410     0.8814240     0.1686100
  C        3.1729130    -0.2631210    -0.0329300
  C       -1.9010600     0.0931950     0.0560670
  H        2.0429660     1.5133360    -0.5640360
  H        2.0060190     1.1470430     1.1438410
  H       -0.4967450     1.3515110     1.1569670
  H       -0.5434941     1.6910128    -0.5722543
  H        3.1399490    -1.0742180     0.6982180
  H        3.1613950    -0.7098910    -1.0291440
  H        4.1160350     0.2752530     0.0934100
units angstrom
no_reorient  #important for SAPT in psi4, default
symmetry c1  #important for SAPT in psi4, default
}

set PROPERTIES_ORIGIN ["COM"]
properties('MP2/aug-cc-pvtz', properties = ['dipole'])
--------------------------------------------------------------------------

    Molecular point group: c1
  Charge       = -1
  Multiplicity = 1
  Basis Set: AUG-CC-PVTZ
    Blend: AUG-CC-PVTZ
  Basis Set: (AUG-CC-PVTZ AUX)
    Blend: AUG-CC-PVTZ-JKFIT

    Orbital Energies [Eh]
    ---------------------

    Doubly Occupied:

       1A    -20.410772     2A    -20.296519     3A    -20.294626
       4A    -11.199877     5A    -11.146031     6A    -11.129862
       7A    -11.120579     8A    -11.082611     9A     -1.242850
      10A     -1.163946    11A     -1.064018    12A     -0.948738
      13A     -0.867790    14A     -0.765927    15A     -0.611625
      16A     -0.538051    17A     -0.530638    18A     -0.525732
      19A     -0.472213    20A     -0.454483    21A     -0.439686
      22A     -0.410406    23A     -0.408085    24A     -0.403131
      25A     -0.377291    26A     -0.348567    27A     -0.336098
      28A     -0.279932    29A     -0.210307    30A     -0.206855
      31A     -0.192568

  @DF-RHF Final Energy:  -418.19606344841043

   => Energetics <=

    Nuclear Repulsion Energy =            356.7514964003765385
    One-Electron Energy =               -1290.9354952594742372
    Two-Electron Energy =                 515.9879354106873279
    Total Energy =                       -418.1960634484104276
  Basis Set: (AUG-CC-PVTZ AUX)
    Blend: AUG-CC-PVTZ-RI
    Molecular point group: c1

    Geometry (in Angstrom), charge = -1, multiplicity = 1:

       Center              X                  Y                   Z               Mass
    ------------   -----------------  -----------------  -----------------  -----------------
         O            0.679435521335    -1.135058964642    -0.369712168345    15.994914619570
         O           -2.120886478665    -0.522090964642     1.094840831655    15.994914619570
         O           -2.387132478665     0.192251035358    -1.049498168345    15.994914619570
         C            2.108871521335     0.718366035358     0.157902831655    12.000000000000
         C            0.755790321335     0.038264335358    -0.019836968345    12.000000000000
         C           -0.461577478665     0.918273035358     0.175490831655    12.000000000000
         C            3.289076521335    -0.226271964642    -0.026049168345    12.000000000000
         C           -1.784896478665     0.130044035358     0.062947831655    12.000000000000
         H            2.159129521335     1.550185035358    -0.557155168345     1.007825032230
         H            2.122182521335     1.183892035358     1.150721831655     1.007825032230
         H           -0.380581478665     1.388360035358     1.163847831655     1.007825032230
         H           -0.427330578665     1.727861835358    -0.565373468345     1.007825032230
         H            3.256112521335    -1.037368964642     0.705098831655     1.007825032230
         H            3.277558521335    -0.673041964642    -1.022263168345     1.007825032230
         H            4.232198521335     0.312102035358     0.100290831655     1.007825032230

  Basis Set: AUG-CC-PVTZ
    Blend: AUG-CC-PVTZ
  Basis Set: (AUG-CC-PVTZ AUX)
    Blend: AUG-CC-PVTZ-JKFIT
	 Reference Energy          =    -418.1960634484104276 [Eh]
	 Singles Energy            =      -0.0000000000000000 [Eh]
	 Same-Spin Energy          =      -0.4160447403895247 [Eh]
	 Opposite-Spin Energy      =      -1.2922520281746397 [Eh]
	 Correlation Energy        =      -1.7082967685641643 [Eh]
	 Total Energy              =    -419.9043602169745668 [Eh]

	 ================> DF-SCS-MP2 Energies <==================
	-----------------------------------------------------------
	 SCS Same-Spin Scale       =       0.3333333333333333 [-]
	 SCS Opposite-Spin Scale   =       1.2000000000000000 [-]
	 SCS Same-Spin Energy      =      -0.1386815801298416 [Eh]
	 SCS Opposite-Spin Energy  =      -1.5507024338095676 [Eh]
	 SCS Correlation Energy    =      -1.6893840139394092 [Eh]
	 SCS Total Energy          =    -419.8854474623498163 [Eh]
	-----------------------------------------------------------

  Dipole Moment: [D]
     X:     9.9686      Y:     3.4374      Z:     0.6350     Total:    10.5637

*** Psi4 exiting successfully. Buy a developer a beer!
