                               Psi4 1.4a3.dev225

  ==> Input File <==

--------------------------------------------------------------------------
#psi4
#
memory 32 gb

molecule  {
-1 1
  O        1.0745520     1.3418620    -0.8745480
  O       -1.1230780    -1.1034960    -0.8170800
  O       -2.9206860    -0.1812610     0.2330210
  C        1.4738630    -0.3704550     0.7611780
  C        0.6214618     0.6597938     0.0756676
  C       -0.7798250     0.8397660     0.5534010
  C        2.7202340    -0.7612590    -0.0182770
  C       -1.7002430    -0.2566580    -0.0711330
  H        1.7414500     0.0432240     1.7443780
  H        0.8355880    -1.2371210     0.9565080
  H       -0.8294850     0.7587360     1.6458800
  H       -1.1523820     1.8284630     0.2671350
  H        2.4446610    -1.1885100    -0.9860420
  H        3.3521650     0.1095510    -0.2043800
  H        3.3054110    -1.5035610     0.5312540
units angstrom
no_reorient  #important for SAPT in psi4, default
symmetry c1  #important for SAPT in psi4, default
}

set PROPERTIES_ORIGIN ["COM"]
properties('MP2/aug-cc-pvtz', properties = ['dipole'])
--------------------------------------------------------------------------

    Molecular point group: c1
  Charge       = -1
  Multiplicity = 1
  Basis Set: AUG-CC-PVTZ
    Blend: AUG-CC-PVTZ
  Basis Set: (AUG-CC-PVTZ AUX)
    Blend: AUG-CC-PVTZ-JKFIT

    Orbital Energies [Eh]
    ---------------------

    Doubly Occupied:

       1A    -20.398122     2A    -20.314517     3A    -20.312114
       4A    -11.191458     5A    -11.165397     6A    -11.108997
       7A    -11.102840     8A    -11.081465     9A     -1.217525
      10A     -1.183576    11A     -1.085088    12A     -0.934803
      13A     -0.865916    14A     -0.754924    15A     -0.601848
      16A     -0.546990    17A     -0.512917    18A     -0.503837
      19A     -0.480525    20A     -0.449603    21A     -0.439685
      22A     -0.409098    23A     -0.397636    24A     -0.390171
      25A     -0.378576    26A     -0.344868    27A     -0.334692
      28A     -0.278532    29A     -0.230260    30A     -0.217590
      31A     -0.212250

  @DF-RHF Final Energy:  -418.20648142561532

   => Energetics <=

    Nuclear Repulsion Energy =            362.5249041967443304
    One-Electron Energy =               -1302.5711264477663462
    Two-Electron Energy =                 521.8397408254066931
    Total Energy =                       -418.2064814256153795
  Basis Set: (AUG-CC-PVTZ AUX)
    Blend: AUG-CC-PVTZ-RI
    Molecular point group: c1

    Geometry (in Angstrom), charge = -1, multiplicity = 1:

       Center              X                  Y                   Z               Mass
    ------------   -----------------  -----------------  -----------------  -----------------
         O            1.158810977910     1.332742355390    -0.842084579212    15.994914619570
         O           -1.038819022090    -1.112615644610    -0.784616579212    15.994914619570
         O           -2.836427022090    -0.190380644610     0.265484420788    15.994914619570
         C            1.558121977910    -0.379574644610     0.793641420788    12.000000000000
         C            0.705720777910     0.650674155390     0.108131020788    12.000000000000
         C           -0.695566022090     0.830646355390     0.585864420788    12.000000000000
         C            2.804492977910    -0.770378644610     0.014186420788    12.000000000000
         C           -1.615984022090    -0.265777644610    -0.038669579212    12.000000000000
         H            1.825708977910     0.034104355390     1.776841420788     1.007825032230
         H            0.919846977910    -1.246240644610     0.988971420788     1.007825032230
         H           -0.745226022090     0.749616355390     1.678343420788     1.007825032230
         H           -1.068123022090     1.819343355390     0.299598420788     1.007825032230
         H            2.528919977910    -1.197629644610    -0.953578579212     1.007825032230
         H            3.436423977910     0.100431355390    -0.171916579212     1.007825032230
         H            3.389669977910    -1.512680644610     0.563717420788     1.007825032230

  Basis Set: AUG-CC-PVTZ
    Blend: AUG-CC-PVTZ
  Basis Set: (AUG-CC-PVTZ AUX)
    Blend: AUG-CC-PVTZ-JKFIT
	 Reference Energy          =    -418.2064814256153227 [Eh]
	 Singles Energy            =      -0.0000000000000000 [Eh]
	 Same-Spin Energy          =      -0.4173556913580293 [Eh]
	 Opposite-Spin Energy      =      -1.2934559934222656 [Eh]
	 Correlation Energy        =      -1.7108116847802948 [Eh]
	 Total Energy              =    -419.9172931103956330 [Eh]

	 ================> DF-SCS-MP2 Energies <==================
	-----------------------------------------------------------
	 SCS Same-Spin Scale       =       0.3333333333333333 [-]
	 SCS Opposite-Spin Scale   =       1.2000000000000000 [-]
	 SCS Same-Spin Energy      =      -0.1391185637860098 [Eh]
	 SCS Opposite-Spin Energy  =      -1.5521471921067187 [Eh]
	 SCS Correlation Energy    =      -1.6912657558927284 [Eh]
	 SCS Total Energy          =    -419.8977471815080662 [Eh]
	-----------------------------------------------------------

  Dipole Moment: [D]
     X:     6.6892      Y:     1.1901      Z:     3.2595     Total:     7.5357

*** Psi4 exiting successfully. Buy a developer a beer!
