                               Psi4 1.3.2 release

  ==> Input File <==

--------------------------------------------------------------------------
#psi4
#
memory 32 gb

molecule  {
-1 1
  O        0.5632720    -1.1719080    -0.3765930
  O       -2.2370500    -0.5589400     1.0879600
  O       -2.5032960     0.1554020    -1.0563790
  C        1.9927080     0.6815170     0.1510220
  C        0.6583450     0.0408119    -0.0763700
  C       -0.5777410     0.8814240     0.1686100
  C        3.1729130    -0.2631210    -0.0329300
  C       -1.9010600     0.0931950     0.0560670
  H        2.0429660     1.5133360    -0.5640360
  H        2.0060190     1.1470430     1.1438410
  H       -0.4967450     1.3515110     1.1569670
  H       -0.5024570     1.6726879    -0.5888334
  H        3.1399490    -1.0742180     0.6982180
  H        3.1613950    -0.7098910    -1.0291440
  H        4.1160350     0.2752530     0.0934100
units angstrom
no_reorient  #important for SAPT in psi4, default
symmetry c1  #important for SAPT in psi4, default
}

set PROPERTIES_ORIGIN ["COM"]
properties('MP2/aug-cc-pvtz', properties = ['dipole'])
--------------------------------------------------------------------------

    Molecular point group: c1
  Charge       = -1
  Multiplicity = 1
  Basis Set: AUG-CC-PVTZ
    Blend: AUG-CC-PVTZ
  Basis Set: (AUG-CC-PVTZ AUX)
    Blend: AUG-CC-PVTZ-JKFIT

    Orbital Energies [Eh]
    ---------------------

    Doubly Occupied:

       1A    -20.408085     2A    -20.296324     3A    -20.294912
       4A    -11.201256     5A    -11.146870     6A    -11.131842
       7A    -11.121977     8A    -11.084118     9A     -1.225446
      10A     -1.163696    11A     -1.063958    12A     -0.954106
      13A     -0.869482    14A     -0.770729    15A     -0.612264
      16A     -0.539518    17A     -0.529155    18A     -0.526271
      19A     -0.467595    20A     -0.455511    21A     -0.438363
      22A     -0.412523    23A     -0.406169    24A     -0.404271
      25A     -0.376938    26A     -0.339313    27A     -0.334918
      28A     -0.281174    29A     -0.210258    30A     -0.208192
      31A     -0.192305

  @DF-RHF Final Energy:  -418.19042847726615

   => Energetics <=

    Nuclear Repulsion Energy =            356.5210640269283999
    One-Electron Energy =               -1290.4879140349048612
    Two-Electron Energy =                 515.7764215307103086
    Total Energy =                       -418.1904284772662095
  Basis Set: (AUG-CC-PVTZ AUX)
    Blend: AUG-CC-PVTZ-RI
    Molecular point group: c1

    Geometry (in Angstrom), charge = -1, multiplicity = 1:

       Center              X                  Y                   Z               Mass
    ------------   -----------------  -----------------  -----------------  -----------------
         O            0.677123475712    -1.139007963305    -0.364387604778    15.994914619570
         O           -2.123198524288    -0.526039963305     1.100165395222    15.994914619570
         O           -2.389444524288     0.188302036695    -1.044173604778    15.994914619570
         C            2.106559475712     0.714417036695     0.163227395222    12.000000000000
         C            0.772196475712     0.073711936695    -0.064164604778    12.000000000000
         C           -0.463889524288     0.914324036695     0.180815395222    12.000000000000
         C            3.286764475712    -0.230220963305    -0.020724604778    12.000000000000
         C           -1.787208524288     0.126095036695     0.068272395222    12.000000000000
         H            2.156817475712     1.546236036695    -0.551830604778     1.007825032230
         H            2.119870475712     1.179943036695     1.156046395222     1.007825032230
         H           -0.382893524288     1.384411036695     1.169172395222     1.007825032230
         H           -0.388605524288     1.705587936695    -0.576628004778     1.007825032230
         H            3.253800475712    -1.041317963305     0.710423395222     1.007825032230
         H            3.275246475712    -0.676990963305    -1.016938604778     1.007825032230
         H            4.229886475712     0.308153036695     0.105615395222     1.007825032230

  Basis Set: AUG-CC-PVTZ
    Blend: AUG-CC-PVTZ
  Basis Set: (AUG-CC-PVTZ AUX)
    Blend: AUG-CC-PVTZ-JKFIT
	 Reference Energy          =    -418.1904284772661526 [Eh]
	 Singles Energy            =      -0.0000000000000000 [Eh]
	 Same-Spin Energy          =      -0.4169499678827726 [Eh]
	 Opposite-Spin Energy      =      -1.2940648380507895 [Eh]
	 Correlation Energy        =      -1.7110148059335621 [Eh]
	 Total Energy              =    -419.9014432831997397 [Eh]

	 ================> DF-SCS-MP2 Energies <==================
	-----------------------------------------------------------
	 SCS Same-Spin Scale       =       0.3333333333333333 [-]
	 SCS Opposite-Spin Scale   =       1.2000000000000000 [-]
	 SCS Same-Spin Energy      =      -0.1389833226275908 [Eh]
	 SCS Opposite-Spin Energy  =      -1.5528778056609474 [Eh]
	 SCS Correlation Energy    =      -1.6918611282885383 [Eh]
	 SCS Total Energy          =    -419.8822896055547176 [Eh]
	-----------------------------------------------------------

  Dipole Moment: [D]
     X:    10.0678      Y:     3.5387      Z:     0.6268     Total:    10.6900

*** Psi4 exiting successfully. Buy a developer a beer!
