                               Psi4 1.3.2 release

  ==> Input File <==

--------------------------------------------------------------------------
#psi4
#
memory 32 gb

molecule  {
-1 1
  O        0.5632720    -1.1719080    -0.3765930
  O       -2.2551798    -0.5659034     1.0774195
  O       -2.5032960     0.1554020    -1.0563790
  C        1.9927080     0.6815170     0.1510220
  C        0.6435570     0.0091630    -0.0366810
  C       -0.5810437     0.8901200     0.1433116
  C        3.1729130    -0.2631210    -0.0329300
  C       -1.9010600     0.0931950     0.0560670
  H        2.0429660     1.5133360    -0.5640360
  H        2.0060190     1.1470430     1.1438410
  H       -0.4967450     1.3515110     1.1569670
  H       -0.5352790     1.6874700    -0.5756840
  H        3.1399490    -1.0742180     0.6982180
  H        3.1613950    -0.7098910    -1.0291440
  H        4.1160350     0.2752530     0.0934100
units angstrom
no_reorient  #important for SAPT in psi4, default
symmetry c1  #important for SAPT in psi4, default
}

set PROPERTIES_ORIGIN ["COM"]
properties('MP2/aug-cc-pvtz', properties = ['dipole'])
--------------------------------------------------------------------------

    Molecular point group: c1
  Charge       = -1
  Multiplicity = 1
  Basis Set: AUG-CC-PVTZ
    Blend: AUG-CC-PVTZ
  Basis Set: (AUG-CC-PVTZ AUX)
    Blend: AUG-CC-PVTZ-JKFIT

    Orbital Energies [Eh]
    ---------------------

    Doubly Occupied:

       1A    -20.410900     2A    -20.294544     3A    -20.294479
       4A    -11.200835     5A    -11.145662     6A    -11.130789
       7A    -11.121226     8A    -11.084037     9A     -1.240004
      10A     -1.163676    11A     -1.062035    12A     -0.950206
      13A     -0.868489    14A     -0.767568    15A     -0.611982
      16A     -0.538755    17A     -0.530480    18A     -0.526473
      19A     -0.472353    20A     -0.454985    21A     -0.439409
      22A     -0.411053    23A     -0.408079    24A     -0.403437
      25A     -0.376648    26A     -0.348363    27A     -0.334820
      28A     -0.280402    29A     -0.209019    30A     -0.207360
      31A     -0.191221

  @DF-RHF Final Energy:  -418.19443772551728

   => Energetics <=

    Nuclear Repulsion Energy =            356.5302456340116350
    One-Electron Energy =               -1290.4907847006484189
    Two-Electron Energy =                 515.7661013411194517
    Total Energy =                       -418.1944377255173322
  Basis Set: (AUG-CC-PVTZ AUX)
    Blend: AUG-CC-PVTZ-RI
    Molecular point group: c1

    Geometry (in Angstrom), charge = -1, multiplicity = 1:

       Center              X                  Y                   Z               Mass
    ------------   -----------------  -----------------  -----------------  -----------------
         O            0.681818834668    -1.135775021955    -0.364538379895    15.994914619570
         O           -2.136632965332    -0.529770421955     1.089474120105    15.994914619570
         O           -2.384749165332     0.191534978045    -1.044324379895    15.994914619570
         C            2.111254834668     0.717649978045     0.163076620105    12.000000000000
         C            0.762103834668     0.045295978045    -0.024626379895    12.000000000000
         C           -0.462496865332     0.926252978045     0.155366220105    12.000000000000
         C            3.291459834668    -0.226988021955    -0.020875379895    12.000000000000
         C           -1.782513165332     0.129327978045     0.068121620105    12.000000000000
         H            2.161512834668     1.549468978045    -0.551981379895     1.007825032230
         H            2.124565834668     1.183175978045     1.155895620105     1.007825032230
         H           -0.378198165332     1.387643978045     1.169021620105     1.007825032230
         H           -0.416732165332     1.723602978045    -0.563629379895     1.007825032230
         H            3.258495834668    -1.038085021955     0.710272620105     1.007825032230
         H            3.279941834668    -0.673758021955    -1.017089379895     1.007825032230
         H            4.234581834668     0.311385978045     0.105464620105     1.007825032230

  Basis Set: AUG-CC-PVTZ
    Blend: AUG-CC-PVTZ
  Basis Set: (AUG-CC-PVTZ AUX)
    Blend: AUG-CC-PVTZ-JKFIT
	 Reference Energy          =    -418.1944377255172753 [Eh]
	 Singles Energy            =      -0.0000000000000000 [Eh]
	 Same-Spin Energy          =      -0.4161496587170115 [Eh]
	 Opposite-Spin Energy      =      -1.2925243631800418 [Eh]
	 Correlation Energy        =      -1.7086740218970533 [Eh]
	 Total Energy              =    -419.9031117474143002 [Eh]

	 ================> DF-SCS-MP2 Energies <==================
	-----------------------------------------------------------
	 SCS Same-Spin Scale       =       0.3333333333333333 [-]
	 SCS Opposite-Spin Scale   =       1.2000000000000000 [-]
	 SCS Same-Spin Energy      =      -0.1387165529056705 [Eh]
	 SCS Opposite-Spin Energy  =      -1.5510292358160502 [Eh]
	 SCS Correlation Energy    =      -1.6897457887217207 [Eh]
	 SCS Total Energy          =    -419.8841835142389982 [Eh]
	-----------------------------------------------------------

  Dipole Moment: [D]
     X:    10.0601      Y:     3.4813      Z:     0.6184     Total:    10.6634

*** Psi4 exiting successfully. Buy a developer a beer!
