                               Psi4 1.3.2 release

  ==> Input File <==

--------------------------------------------------------------------------
#psi4
#
memory 32 gb

molecule  {
-1 1
  O        0.6276654    -1.1749382    -0.3751575
  O       -2.2370500    -0.5589400     1.0879600
  O       -2.5032960     0.1554020    -1.0563790
  C        1.9927080     0.6815170     0.1510220
  C        0.6435570     0.0091630    -0.0366810
  C       -0.5292484     0.9412876     0.1874256
  C        3.1729130    -0.2631210    -0.0329300
  C       -1.9010600     0.0931950     0.0560670
  H        2.0429660     1.5133360    -0.5640360
  H        2.0060190     1.1470430     1.1438410
  H       -0.4967450     1.3515110     1.1569670
  H       -0.5352790     1.6874700    -0.5756840
  H        3.1399490    -1.0742180     0.6982180
  H        3.1613950    -0.7098910    -1.0291440
  H        4.1160350     0.2752530     0.0934100
units angstrom
no_reorient  #important for SAPT in psi4, default
symmetry c1  #important for SAPT in psi4, default
}

set PROPERTIES_ORIGIN ["COM"]
properties('MP2/aug-cc-pvtz', properties = ['dipole'])
--------------------------------------------------------------------------

    Molecular point group: c1
  Charge       = -1
  Multiplicity = 1
  Basis Set: AUG-CC-PVTZ
    Blend: AUG-CC-PVTZ
  Basis Set: (AUG-CC-PVTZ AUX)
    Blend: AUG-CC-PVTZ-JKFIT

    Orbital Energies [Eh]
    ---------------------

    Doubly Occupied:

       1A    -20.412198     2A    -20.300281     3A    -20.298551
       4A    -11.200672     5A    -11.153307     6A    -11.124108
       7A    -11.116826     8A    -11.080410     9A     -1.240470
      10A     -1.165002    11A     -1.066494    12A     -0.946836
      13A     -0.869605    14A     -0.762151    15A     -0.608092
      16A     -0.532827    17A     -0.527881    18A     -0.525031
      19A     -0.475754    20A     -0.465360    21A     -0.436507
      22A     -0.405612    23A     -0.404091    24A     -0.401587
      25A     -0.382405    26A     -0.352397    27A     -0.340629
      28A     -0.281634    29A     -0.213874    30A     -0.200617
      31A     -0.195863

  @DF-RHF Final Energy:  -418.18977834690844

   => Energetics <=

    Nuclear Repulsion Energy =            355.6407701950848832
    One-Electron Energy =               -1288.6869559768440467
    Two-Electron Energy =                 514.8564074348507802
    Total Energy =                       -418.1897783469083834
  Basis Set: (AUG-CC-PVTZ AUX)
    Blend: AUG-CC-PVTZ-RI
    Molecular point group: c1

    Geometry (in Angstrom), charge = -1, multiplicity = 1:

       Center              X                  Y                   Z               Mass
    ------------   -----------------  -----------------  -----------------  -----------------
         O            0.729335467853    -1.144689481587    -0.369369622865    15.994914619570
         O           -2.135379932147    -0.528691281587     1.093747877135    15.994914619570
         O           -2.401625932147     0.185650718413    -1.050591122865    15.994914619570
         C            2.094378067853     0.711765718413     0.156809877135    12.000000000000
         C            0.745227067853     0.039411718413    -0.030893122865    12.000000000000
         C           -0.427578332147     0.971536318413     0.193213477135    12.000000000000
         C            3.274583067853    -0.232872281587    -0.027142122865    12.000000000000
         C           -1.799389932147     0.123443718413     0.061854877135    12.000000000000
         H            2.144636067853     1.543584718413    -0.558248122865     1.007825032230
         H            2.107689067853     1.177291718413     1.149628877135     1.007825032230
         H           -0.395074932147     1.381759718413     1.162754877135     1.007825032230
         H           -0.433608932147     1.717718718413    -0.569896122865     1.007825032230
         H            3.241619067853    -1.043969281587     0.704005877135     1.007825032230
         H            3.263065067853    -0.679642281587    -1.023356122865     1.007825032230
         H            4.217705067853     0.305501718413     0.099197877135     1.007825032230

  Basis Set: AUG-CC-PVTZ
    Blend: AUG-CC-PVTZ
  Basis Set: (AUG-CC-PVTZ AUX)
    Blend: AUG-CC-PVTZ-JKFIT
	 Reference Energy          =    -418.1897783469084402 [Eh]
	 Singles Energy            =      -0.0000000000000000 [Eh]
	 Same-Spin Energy          =      -0.4163954751569974 [Eh]
	 Opposite-Spin Energy      =      -1.2929034012471288 [Eh]
	 Correlation Energy        =      -1.7092988764041261 [Eh]
	 Total Energy              =    -419.8990772233125881 [Eh]

	 ================> DF-SCS-MP2 Energies <==================
	-----------------------------------------------------------
	 SCS Same-Spin Scale       =       0.3333333333333333 [-]
	 SCS Opposite-Spin Scale   =       1.2000000000000000 [-]
	 SCS Same-Spin Energy      =      -0.1387984917189991 [Eh]
	 SCS Opposite-Spin Energy  =      -1.5514840814965545 [Eh]
	 SCS Correlation Energy    =      -1.6902825732155535 [Eh]
	 SCS Total Energy          =    -419.8800609201239808 [Eh]
	-----------------------------------------------------------

  Dipole Moment: [D]
     X:     9.6743      Y:     3.4342      Z:     0.6379     Total:    10.2855

*** Psi4 exiting successfully. Buy a developer a beer!
