                               Psi4 1.3.2 release

  ==> Input File <==

--------------------------------------------------------------------------
#psi4
#
memory 32 gb

molecule  {
-1 1
  O        0.5632720    -1.1719080    -0.3765930
  O       -2.1820688    -0.5368666     1.1176832
  O       -2.5032960     0.1554020    -1.0563790
  C        1.9927080     0.6815170     0.1510220
  C        0.6435570     0.0091630    -0.0366810
  C       -0.5702548     0.8539064     0.2442688
  C        3.1729130    -0.2631210    -0.0329300
  C       -1.9010600     0.0931950     0.0560670
  H        2.0429660     1.5133360    -0.5640360
  H        2.0060190     1.1470430     1.1438410
  H       -0.4967450     1.3515110     1.1569670
  H       -0.5352790     1.6874700    -0.5756840
  H        3.1399490    -1.0742180     0.6982180
  H        3.1613950    -0.7098910    -1.0291440
  H        4.1160350     0.2752530     0.0934100
units angstrom
no_reorient  #important for SAPT in psi4, default
symmetry c1  #important for SAPT in psi4, default
}

set PROPERTIES_ORIGIN ["COM"]
properties('MP2/aug-cc-pvtz', properties = ['dipole'])
--------------------------------------------------------------------------

    Molecular point group: c1
  Charge       = -1
  Multiplicity = 1
  Basis Set: AUG-CC-PVTZ
    Blend: AUG-CC-PVTZ
  Basis Set: (AUG-CC-PVTZ AUX)
    Blend: AUG-CC-PVTZ-JKFIT

    Orbital Energies [Eh]
    ---------------------

    Doubly Occupied:

       1A    -20.408040     2A    -20.302591     3A    -20.295710
       4A    -11.198274     5A    -11.148508     6A    -11.128669
       7A    -11.119765     8A    -11.080821     9A     -1.237952
      10A     -1.165378    11A     -1.070523    12A     -0.948593
      13A     -0.866831    14A     -0.765153    15A     -0.611043
      16A     -0.540292    17A     -0.531397    18A     -0.523772
      19A     -0.474083    20A     -0.448723    21A     -0.438953
      22A     -0.410904    23A     -0.407220    24A     -0.403202
      25A     -0.376588    26A     -0.340987    27A     -0.339017
      28A     -0.279279    29A     -0.216685    30A     -0.202581
      31A     -0.196763

  @DF-RHF Final Energy:  -418.18804575817205

   => Energetics <=

    Nuclear Repulsion Energy =            357.2771238247706265
    One-Electron Energy =               -1291.9737459949883487
    Two-Electron Energy =                 516.5085764120457270
    Total Energy =                       -418.1880457581720520
  Basis Set: (AUG-CC-PVTZ AUX)
    Blend: AUG-CC-PVTZ-RI
    Molecular point group: c1

    Geometry (in Angstrom), charge = -1, multiplicity = 1:

       Center              X                  Y                   Z               Mass
    ------------   -----------------  -----------------  -----------------  -----------------
         O            0.670528184176    -1.136034740851    -0.380667627118    15.994914619570
         O           -2.074812615824    -0.500993340851     1.113608572882    15.994914619570
         O           -2.396039815824     0.191275259149    -1.060453627118    15.994914619570
         C            2.099964184176     0.717390259149     0.146947372882    12.000000000000
         C            0.750813184176     0.045036259149    -0.040755627118    12.000000000000
         C           -0.462998615824     0.889779659149     0.240194172882    12.000000000000
         C            3.280169184176    -0.227247740851    -0.037004627118    12.000000000000
         C           -1.793803815824     0.129068259149     0.051992372882    12.000000000000
         H            2.150222184176     1.549209259149    -0.568110627118     1.007825032230
         H            2.113275184176     1.182916259149     1.139766372882     1.007825032230
         H           -0.389488815824     1.387384259149     1.152892372882     1.007825032230
         H           -0.428022815824     1.723343259149    -0.579758627118     1.007825032230
         H            3.247205184176    -1.038344740851     0.694143372882     1.007825032230
         H            3.268651184176    -0.674017740851    -1.033218627118     1.007825032230
         H            4.223291184176     0.311126259149     0.089335372882     1.007825032230

  Basis Set: AUG-CC-PVTZ
    Blend: AUG-CC-PVTZ
  Basis Set: (AUG-CC-PVTZ AUX)
    Blend: AUG-CC-PVTZ-JKFIT
	 Reference Energy          =    -418.1880457581720520 [Eh]
	 Singles Energy            =      -0.0000000000000000 [Eh]
	 Same-Spin Energy          =      -0.4165841613421485 [Eh]
	 Opposite-Spin Energy      =      -1.2932241311801786 [Eh]
	 Correlation Energy        =      -1.7098082925223272 [Eh]
	 Total Energy              =    -419.8978540506943773 [Eh]

	 ================> DF-SCS-MP2 Energies <==================
	-----------------------------------------------------------
	 SCS Same-Spin Scale       =       0.3333333333333333 [-]
	 SCS Opposite-Spin Scale   =       1.2000000000000000 [-]
	 SCS Same-Spin Energy      =      -0.1388613871140495 [Eh]
	 SCS Opposite-Spin Energy  =      -1.5518689574162143 [Eh]
	 SCS Correlation Energy    =      -1.6907303445302637 [Eh]
	 SCS Total Energy          =    -419.8787761027023180 [Eh]
	-----------------------------------------------------------

  Dipole Moment: [D]
     X:     9.7565      Y:     3.3621      Z:     0.6849     Total:    10.3422

*** Psi4 exiting successfully. Buy a developer a beer!
