                               Psi4 1.3.2 release

  ==> Input File <==

--------------------------------------------------------------------------
#psi4
#
memory 32 gb

molecule  {
-1 1
  O        0.6061874    -1.1742885    -0.3757393
  O       -2.2370500    -0.5589400     1.0879600
  O       -2.5032960     0.1554020    -1.0563790
  C        1.9927080     0.6815170     0.1510220
  C        0.6435570     0.0091630    -0.0366810
  C       -0.5457765     0.9216090     0.1812195
  C        3.1729130    -0.2631210    -0.0329300
  C       -1.9010600     0.0931950     0.0560670
  H        2.0429660     1.5133360    -0.5640360
  H        2.0060190     1.1470430     1.1438410
  H       -0.4967450     1.3515110     1.1569670
  H       -0.5352790     1.6874700    -0.5756840
  H        3.1399490    -1.0742180     0.6982180
  H        3.1613950    -0.7098910    -1.0291440
  H        4.1160350     0.2752530     0.0934100
units angstrom
no_reorient  #important for SAPT in psi4, default
symmetry c1  #important for SAPT in psi4, default
}

set PROPERTIES_ORIGIN ["COM"]
properties('MP2/aug-cc-pvtz', properties = ['dipole'])
--------------------------------------------------------------------------

    Molecular point group: c1
  Charge       = -1
  Multiplicity = 1
  Basis Set: AUG-CC-PVTZ
    Blend: AUG-CC-PVTZ
  Basis Set: (AUG-CC-PVTZ AUX)
    Blend: AUG-CC-PVTZ-JKFIT

    Orbital Energies [Eh]
    ---------------------

    Doubly Occupied:

       1A    -20.411568     2A    -20.298893     3A    -20.297150
       4A    -11.200410     5A    -11.150902     6A    -11.126192
       7A    -11.118199     8A    -11.081100     9A     -1.240080
      10A     -1.164486    11A     -1.065551    12A     -0.947826
      13A     -0.869129    14A     -0.763680    15A     -0.609030
      16A     -0.534071    17A     -0.529082    18A     -0.525353
      19A     -0.474187    20A     -0.461658    21A     -0.437537
      22A     -0.406859    23A     -0.405879    24A     -0.402181
      25A     -0.380644    26A     -0.350872    27A     -0.339100
      28A     -0.281445    29A     -0.212623    30A     -0.202965
      31A     -0.194652

  @DF-RHF Final Energy:  -418.19329799189455

   => Energetics <=

    Nuclear Repulsion Energy =            355.9808130698282866
    One-Electron Energy =               -1289.3816129343319972
    Two-Electron Energy =                 515.2075018726091002
    Total Energy =                       -418.1932979918946103
  Basis Set: (AUG-CC-PVTZ AUX)
    Blend: AUG-CC-PVTZ-RI
    Molecular point group: c1

    Geometry (in Angstrom), charge = -1, multiplicity = 1:

       Center              X                  Y                   Z               Mass
    ------------   -----------------  -----------------  -----------------  -----------------
         O            0.712567814180    -1.142077401130    -0.369223159726    15.994914619570
         O           -2.130669585820    -0.526728901130     1.094476140274    15.994914619570
         O           -2.396915585820     0.187613098870    -1.049862859726    15.994914619570
         C            2.099088414180     0.713728098870     0.157538140274    12.000000000000
         C            0.749937414180     0.041374098870    -0.030164859726    12.000000000000
         C           -0.439396085820     0.953820098870     0.187735640274    12.000000000000
         C            3.279293414180    -0.230909901130    -0.026413859726    12.000000000000
         C           -1.794679585820     0.125406098870     0.062583140274    12.000000000000
         H            2.149346414180     1.545547098870    -0.557519859726     1.007825032230
         H            2.112399414180     1.179254098870     1.150357140274     1.007825032230
         H           -0.390364585820     1.383722098870     1.163483140274     1.007825032230
         H           -0.428898585820     1.719681098870    -0.569167859726     1.007825032230
         H            3.246329414180    -1.042006901130     0.704734140274     1.007825032230
         H            3.267775414180    -0.677679901130    -1.022627859726     1.007825032230
         H            4.222415414180     0.307464098870     0.099926140274     1.007825032230

  Basis Set: AUG-CC-PVTZ
    Blend: AUG-CC-PVTZ
  Basis Set: (AUG-CC-PVTZ AUX)
    Blend: AUG-CC-PVTZ-JKFIT
	 Reference Energy          =    -418.1932979918945534 [Eh]
	 Singles Energy            =      -0.0000000000000000 [Eh]
	 Same-Spin Energy          =      -0.4162442584025315 [Eh]
	 Opposite-Spin Energy      =      -1.2926151370656784 [Eh]
	 Correlation Energy        =      -1.7088593954682101 [Eh]
	 Total Energy              =    -419.9021573873627631 [Eh]

	 ================> DF-SCS-MP2 Energies <==================
	-----------------------------------------------------------
	 SCS Same-Spin Scale       =       0.3333333333333333 [-]
	 SCS Opposite-Spin Scale   =       1.2000000000000000 [-]
	 SCS Same-Spin Energy      =      -0.1387480861341772 [Eh]
	 SCS Opposite-Spin Energy  =      -1.5511381644788140 [Eh]
	 SCS Correlation Energy    =      -1.6898862506129912 [Eh]
	 SCS Total Energy          =    -419.8831842425075251 [Eh]
	-----------------------------------------------------------

  Dipole Moment: [D]
     X:     9.7870      Y:     3.4484      Z:     0.6377     Total:    10.3963

*** Psi4 exiting successfully. Buy a developer a beer!
