                               Psi4 1.3.2 release

  ==> Input File <==

--------------------------------------------------------------------------
#psi4
#
memory 32 gb

molecule  {
-1 1
  O        0.5632720    -1.1719080    -0.3765930
  O       -2.2370500    -0.5589400     1.0879600
  O       -2.5032960     0.1554020    -1.0563790
  C        1.9927080     0.6815170     0.1510220
  C        0.6435570     0.0091630    -0.0366810
  C       -0.5777410     0.8814240     0.1686100
  C        3.1729130    -0.2631210    -0.0329300
  C       -1.9157526     0.1254987     0.0154895
  H        2.0429660     1.5133360    -0.5640360
  H        2.0060190     1.1470430     1.1438410
  H       -0.4967450     1.3515110     1.1569670
  H       -0.5699055     1.6768308    -0.5881947
  H        3.1399490    -1.0742180     0.6982180
  H        3.1613950    -0.7098910    -1.0291440
  H        4.1160350     0.2752530     0.0934100
units angstrom
no_reorient  #important for SAPT in psi4, default
symmetry c1  #important for SAPT in psi4, default
}

set PROPERTIES_ORIGIN ["COM"]
properties('MP2/aug-cc-pvtz', properties = ['dipole'])
--------------------------------------------------------------------------

    Molecular point group: c1
  Charge       = -1
  Multiplicity = 1
  Basis Set: AUG-CC-PVTZ
    Blend: AUG-CC-PVTZ
  Basis Set: (AUG-CC-PVTZ AUX)
    Blend: AUG-CC-PVTZ-JKFIT

    Orbital Energies [Eh]
    ---------------------

    Doubly Occupied:

       1A    -20.409986     2A    -20.308615     3A    -20.282683
       4A    -11.200309     5A    -11.145446     6A    -11.130281
       7A    -11.120773     8A    -11.082725     9A     -1.239065
      10A     -1.175823    11A     -1.053271    12A     -0.949623
      13A     -0.867407    14A     -0.767100    15A     -0.612587
      16A     -0.538186    17A     -0.529238    18A     -0.526008
      19A     -0.471917    20A     -0.455280    21A     -0.440788
      22A     -0.412360    23A     -0.407687    24A     -0.403310
      25A     -0.376257    26A     -0.345880    27A     -0.340336
      28A     -0.280060    29A     -0.213983    30A     -0.199066
      31A     -0.189616

  @DF-RHF Final Energy:  -418.19098230987828

   => Energetics <=

    Nuclear Repulsion Energy =            356.6002974794193960
    One-Electron Energy =               -1290.6312216939004429
    Two-Electron Energy =                 515.8399419046028243
    Total Energy =                       -418.1909823098782226
  Basis Set: (AUG-CC-PVTZ AUX)
    Blend: AUG-CC-PVTZ-RI
    Molecular point group: c1

    Geometry (in Angstrom), charge = -1, multiplicity = 1:

       Center              X                  Y                   Z               Mass
    ------------   -----------------  -----------------  -----------------  -----------------
         O            0.680789550553    -1.139112561432    -0.364300519034    15.994914619570
         O           -2.119532449447    -0.526144561432     1.100252480966    15.994914619570
         O           -2.385778449447     0.188197438568    -1.044086519034    15.994914619570
         C            2.110225550553     0.714312438568     0.163314480966    12.000000000000
         C            0.761074550553     0.041958438568    -0.024388519034    12.000000000000
         C           -0.460223449447     0.914219438568     0.180902480966    12.000000000000
         C            3.290430550553    -0.230325561432    -0.020637519034    12.000000000000
         C           -1.798235049447     0.158294138568     0.027781980966    12.000000000000
         H            2.160483550553     1.546131438568    -0.551743519034     1.007825032230
         H            2.123536550553     1.179838438568     1.156133480966     1.007825032230
         H           -0.379227449447     1.384306438568     1.169259480966     1.007825032230
         H           -0.452387949447     1.709626238568    -0.575902219034     1.007825032230
         H            3.257466550553    -1.041422561432     0.710510480966     1.007825032230
         H            3.278912550553    -0.677095561432    -1.016851519034     1.007825032230
         H            4.233552550553     0.308048438568     0.105702480966     1.007825032230

  Basis Set: AUG-CC-PVTZ
    Blend: AUG-CC-PVTZ
  Basis Set: (AUG-CC-PVTZ AUX)
    Blend: AUG-CC-PVTZ-JKFIT
	 Reference Energy          =    -418.1909823098782795 [Eh]
	 Singles Energy            =      -0.0000000000000000 [Eh]
	 Same-Spin Energy          =      -0.4162408970607827 [Eh]
	 Opposite-Spin Energy      =      -1.2927322855998651 [Eh]
	 Correlation Energy        =      -1.7089731826606478 [Eh]
	 Total Energy              =    -419.8999554925389361 [Eh]

	 ================> DF-SCS-MP2 Energies <==================
	-----------------------------------------------------------
	 SCS Same-Spin Scale       =       0.3333333333333333 [-]
	 SCS Opposite-Spin Scale   =       1.2000000000000000 [-]
	 SCS Same-Spin Energy      =      -0.1387469656869276 [Eh]
	 SCS Opposite-Spin Energy  =      -1.5512787427198380 [Eh]
	 SCS Correlation Energy    =      -1.6900257084067656 [Eh]
	 SCS Total Energy          =    -419.8810080182850584 [Eh]
	-----------------------------------------------------------

  Dipole Moment: [D]
     X:     9.9260      Y:     3.6218      Z:     0.1228     Total:    10.5668

*** Psi4 exiting successfully. Buy a developer a beer!
