                               Psi4 1.3.2 release

  ==> Input File <==

--------------------------------------------------------------------------
#psi4
#
memory 32 gb

molecule  {
-1 1
  O        0.5632720    -1.1719080    -0.3765930
  O       -2.2370500    -0.5589400     1.0879600
  O       -2.5032960     0.1554020    -1.0563790
  C        1.9927080     0.6815170     0.1510220
  C        0.6277515    -0.0117281    -0.0402431
  C       -0.5777410     0.8814240     0.1686100
  C        3.1729130    -0.2631210    -0.0329300
  C       -1.8869852     0.0707073     0.0512979
  H        2.0429660     1.5133360    -0.5640360
  H        2.0060190     1.1470430     1.1438410
  H       -0.4967450     1.3515110     1.1569670
  H       -0.5352790     1.6874700    -0.5756840
  H        3.1399490    -1.0742180     0.6982180
  H        3.1613950    -0.7098910    -1.0291440
  H        4.1160350     0.2752530     0.0934100
units angstrom
no_reorient  #important for SAPT in psi4, default
symmetry c1  #important for SAPT in psi4, default
}

set PROPERTIES_ORIGIN ["COM"]
properties('MP2/aug-cc-pvtz', properties = ['dipole'])
--------------------------------------------------------------------------

    Molecular point group: c1
  Charge       = -1
  Multiplicity = 1
  Basis Set: AUG-CC-PVTZ
    Blend: AUG-CC-PVTZ
  Basis Set: (AUG-CC-PVTZ AUX)
    Blend: AUG-CC-PVTZ-JKFIT

    Orbital Energies [Eh]
    ---------------------

    Doubly Occupied:

       1A    -20.412374     2A    -20.295696     3A    -20.295451
       4A    -11.198434     5A    -11.145973     6A    -11.128222
       7A    -11.119624     8A    -11.082113     9A     -1.254901
      10A     -1.164158    11A     -1.063965    12A     -0.945421
      13A     -0.867609    14A     -0.762647    15A     -0.610342
      16A     -0.539344    17A     -0.531731    18A     -0.524120
      19A     -0.475265    20A     -0.455368    21A     -0.440368
      22A     -0.410085    23A     -0.408503    24A     -0.402351
      25A     -0.378114    26A     -0.354406    27A     -0.336750
      28A     -0.278019    29A     -0.210355    30A     -0.206027
      31A     -0.192791

  @DF-RHF Final Energy:  -418.19740183868493

   => Energetics <=

    Nuclear Repulsion Energy =            357.0635057902597396
    One-Electron Energy =               -1291.5407550090083078
    Two-Electron Energy =                 516.2798473800635293
    Total Energy =                       -418.1974018386849821
  Basis Set: (AUG-CC-PVTZ AUX)
    Blend: AUG-CC-PVTZ-RI
    Molecular point group: c1

    Geometry (in Angstrom), charge = -1, multiplicity = 1:

       Center              X                  Y                   Z               Mass
    ------------   -----------------  -----------------  -----------------  -----------------
         O            0.679134117229    -1.131311176699    -0.367773796737    15.994914619570
         O           -2.121187882771    -0.518343176699     1.096779203263    15.994914619570
         O           -2.387433882771     0.195998823301    -1.047559796737    15.994914619570
         C            2.108570117229     0.722113823301     0.159841203263    12.000000000000
         C            0.743613617229     0.028868723301    -0.031423896737    12.000000000000
         C           -0.461878882771     0.922020823301     0.177429203263    12.000000000000
         C            3.288775117229    -0.222524176699    -0.024110796737    12.000000000000
         C           -1.771123082771     0.111304123301     0.060117103263    12.000000000000
         H            2.158828117229     1.553932823301    -0.555216796737     1.007825032230
         H            2.121881117229     1.187639823301     1.152660203263     1.007825032230
         H           -0.380882882771     1.392107823301     1.165786203263     1.007825032230
         H           -0.419416882771     1.728066823301    -0.566864796737     1.007825032230
         H            3.255811117229    -1.033621176699     0.707037203263     1.007825032230
         H            3.277257117229    -0.669294176699    -1.020324796737     1.007825032230
         H            4.231897117229     0.315849823301     0.102229203263     1.007825032230

  Basis Set: AUG-CC-PVTZ
    Blend: AUG-CC-PVTZ
  Basis Set: (AUG-CC-PVTZ AUX)
    Blend: AUG-CC-PVTZ-JKFIT
	 Reference Energy          =    -418.1974018386849252 [Eh]
	 Singles Energy            =      -0.0000000000000000 [Eh]
	 Same-Spin Energy          =      -0.4155796626080147 [Eh]
	 Opposite-Spin Energy      =      -1.2912115032782783 [Eh]
	 Correlation Energy        =      -1.7067911658862929 [Eh]
	 Total Energy              =    -419.9041930045711979 [Eh]

	 ================> DF-SCS-MP2 Energies <==================
	-----------------------------------------------------------
	 SCS Same-Spin Scale       =       0.3333333333333333 [-]
	 SCS Opposite-Spin Scale   =       1.2000000000000000 [-]
	 SCS Same-Spin Energy      =      -0.1385265542026715 [Eh]
	 SCS Opposite-Spin Energy  =      -1.5494538039339338 [Eh]
	 SCS Correlation Energy    =      -1.6879803581366053 [Eh]
	 SCS Total Energy          =    -419.8853821968215243 [Eh]
	-----------------------------------------------------------

  Dipole Moment: [D]
     X:     9.9132      Y:     3.3503      Z:     0.6479     Total:    10.4840

*** Psi4 exiting successfully. Buy a developer a beer!
