                               Psi4 1.3.2 release

  ==> Input File <==

--------------------------------------------------------------------------
#psi4
#
memory 32 gb

molecule  {
-1 1
  O        0.5632720    -1.1719080    -0.3765930
  O       -2.2370500    -0.5589400     1.0879600
  O       -2.5032960     0.1554020    -1.0563790
  C        1.9927080     0.6815170     0.1510220
  C        0.7323727     0.0534246    -0.0243244
  C       -0.5777410     0.8814240     0.1686100
  C        3.1729130    -0.2631210    -0.0329300
  C       -1.9010600     0.0931950     0.0560670
  H        2.0429660     1.5133360    -0.5640360
  H        2.0060190     1.1470430     1.1438410
  H       -0.4967450     1.3515110     1.1569670
  H       -0.5352790     1.6874700    -0.5756840
  H        3.1399490    -1.0742180     0.6982180
  H        3.1613950    -0.7098910    -1.0291440
  H        4.1160350     0.2752530     0.0934100
units angstrom
no_reorient  #important for SAPT in psi4, default
symmetry c1  #important for SAPT in psi4, default
}

set PROPERTIES_ORIGIN ["COM"]
properties('MP2/aug-cc-pvtz', properties = ['dipole'])
--------------------------------------------------------------------------

    Molecular point group: c1
  Charge       = -1
  Multiplicity = 1
  Basis Set: AUG-CC-PVTZ
    Blend: AUG-CC-PVTZ
  Basis Set: (AUG-CC-PVTZ AUX)
    Blend: AUG-CC-PVTZ-JKFIT

    Orbital Energies [Eh]
    ---------------------

    Doubly Occupied:

       1A    -20.406663     2A    -20.294566     3A    -20.292378
       4A    -11.203599     5A    -11.145022     6A    -11.134189
       7A    -11.125488     8A    -11.084960     9A     -1.206225
      10A     -1.161135    11A     -1.061720    12A     -0.970913
      13A     -0.860970    14A     -0.781703    15A     -0.616250
      16A     -0.541159    17A     -0.537178    18A     -0.520949
      19A     -0.468046    20A     -0.450045    21A     -0.434850
      22A     -0.414853    23A     -0.408974    24A     -0.404323
      25A     -0.373768    26A     -0.333951    27A     -0.325860
      28A     -0.279735    29A     -0.208405    30A     -0.206751
      31A     -0.190007

  @DF-RHF Final Energy:  -418.17481914345751

   => Energetics <=

    Nuclear Repulsion Energy =            356.1175850778415111
    One-Electron Energy =               -1289.6955422747503235
    Two-Electron Energy =                 515.4031380534512436
    Total Energy =                       -418.1748191434575119
  Basis Set: (AUG-CC-PVTZ AUX)
    Blend: AUG-CC-PVTZ-RI
    Molecular point group: c1

    Geometry (in Angstrom), charge = -1, multiplicity = 1:

       Center              X                  Y                   Z               Mass
    ------------   -----------------  -----------------  -----------------  -----------------
         O            0.669689042974    -1.140453120341    -0.369931782115    15.994914619570
         O           -2.130632957026    -0.527485120341     1.094621217885    15.994914619570
         O           -2.396878957026     0.186856879659    -1.049717782115    15.994914619570
         C            2.099125042974     0.712971879659     0.157683217885    12.000000000000
         C            0.838789742974     0.084879479659    -0.017663182115    12.000000000000
         C           -0.471323957026     0.912878879659     0.175271217885    12.000000000000
         C            3.279330042974    -0.231666120341    -0.026268782115    12.000000000000
         C           -1.794642957026     0.124649879659     0.062728217885    12.000000000000
         H            2.149383042974     1.544790879659    -0.557374782115     1.007825032230
         H            2.112436042974     1.178497879659     1.150502217885     1.007825032230
         H           -0.390327957026     1.382965879659     1.163628217885     1.007825032230
         H           -0.428861957026     1.718924879659    -0.569022782115     1.007825032230
         H            3.246366042974    -1.042763120341     0.704879217885     1.007825032230
         H            3.267812042974    -0.678436120341    -1.022482782115     1.007825032230
         H            4.222452042974     0.306707879659     0.100071217885     1.007825032230

  Basis Set: AUG-CC-PVTZ
    Blend: AUG-CC-PVTZ
  Basis Set: (AUG-CC-PVTZ AUX)
    Blend: AUG-CC-PVTZ-JKFIT
	 Reference Energy          =    -418.1748191434575119 [Eh]
	 Singles Energy            =      -0.0000000000000000 [Eh]
	 Same-Spin Energy          =      -0.4182593239681744 [Eh]
	 Opposite-Spin Energy      =      -1.2967375951685471 [Eh]
	 Correlation Energy        =      -1.7149969191367216 [Eh]
	 Total Energy              =    -419.8898160625942069 [Eh]

	 ================> DF-SCS-MP2 Energies <==================
	-----------------------------------------------------------
	 SCS Same-Spin Scale       =       0.3333333333333333 [-]
	 SCS Opposite-Spin Scale   =       1.2000000000000000 [-]
	 SCS Same-Spin Energy      =      -0.1394197746560581 [Eh]
	 SCS Opposite-Spin Energy  =      -1.5560851142022565 [Eh]
	 SCS Correlation Energy    =      -1.6955048888583146 [Eh]
	 SCS Total Energy          =    -419.8703240323158070 [Eh]
	-----------------------------------------------------------

  Dipole Moment: [D]
     X:    10.4682      Y:     3.6189      Z:     0.6789     Total:    11.0969

*** Psi4 exiting successfully. Buy a developer a beer!
