                               Psi4 1.3.2 release

  ==> Input File <==

--------------------------------------------------------------------------
#psi4
#
memory 32 gb

molecule  {
-1 1
  O        0.5632720    -1.1719080    -0.3765930
  O       -2.2370500    -0.5589400     1.0879600
  O       -2.4710888     0.1816575    -1.0714682
  C        1.9927080     0.6815170     0.1510220
  C        0.6435570     0.0091630    -0.0366810
  C       -0.5841501     0.8976244     0.1175963
  C        3.1729130    -0.2631210    -0.0329300
  C       -1.9010600     0.0931950     0.0560670
  H        2.0429660     1.5133360    -0.5640360
  H        2.0060190     1.1470430     1.1438410
  H       -0.4967450     1.3515110     1.1569670
  H       -0.5352790     1.6874700    -0.5756840
  H        3.1399490    -1.0742180     0.6982180
  H        3.1613950    -0.7098910    -1.0291440
  H        4.1160350     0.2752530     0.0934100
units angstrom
no_reorient  #important for SAPT in psi4, default
symmetry c1  #important for SAPT in psi4, default
}

set PROPERTIES_ORIGIN ["COM"]
properties('MP2/aug-cc-pvtz', properties = ['dipole'])
--------------------------------------------------------------------------

    Molecular point group: c1
  Charge       = -1
  Multiplicity = 1
  Basis Set: AUG-CC-PVTZ
    Blend: AUG-CC-PVTZ
  Basis Set: (AUG-CC-PVTZ AUX)
    Blend: AUG-CC-PVTZ-JKFIT

    Orbital Energies [Eh]
    ---------------------

    Doubly Occupied:

       1A    -20.409489     2A    -20.298415     3A    -20.296710
       4A    -11.199354     5A    -11.147348     6A    -11.129512
       7A    -11.120285     8A    -11.080424     9A     -1.238597
      10A     -1.164404    11A     -1.067862    12A     -0.948791
      13A     -0.865530    14A     -0.766133    15A     -0.610282
      16A     -0.539275    17A     -0.529362    18A     -0.524655
      19A     -0.473372    20A     -0.452395    21A     -0.438585
      22A     -0.410658    23A     -0.406895    24A     -0.403454
      25A     -0.377806    26A     -0.348636    27A     -0.334593
      28A     -0.278279    29A     -0.214351    30A     -0.204393
      31A     -0.195095

  @DF-RHF Final Energy:  -418.19228006006369

   => Energetics <=

    Nuclear Repulsion Energy =            356.8095241089210958
    One-Electron Energy =               -1291.0537228561536267
    Two-Electron Energy =                 516.0519186871688362
    Total Energy =                       -418.1922800600636947
  Basis Set: (AUG-CC-PVTZ AUX)
    Blend: AUG-CC-PVTZ-RI
    Molecular point group: c1

    Geometry (in Angstrom), charge = -1, multiplicity = 1:

       Center              X                  Y                   Z               Mass
    ------------   -----------------  -----------------  -----------------  -----------------
         O            0.675144091734    -1.141176524623    -0.361223521913    15.994914619570
         O           -2.125177908266    -0.528208524623     1.103329478087    15.994914619570
         O           -2.359216708266     0.212388975377    -1.056098721913    15.994914619570
         C            2.104580091734     0.712248475377     0.166391478087    12.000000000000
         C            0.755429091734     0.039894475377    -0.021311521913    12.000000000000
         C           -0.472278008266     0.928355875377     0.132965778087    12.000000000000
         C            3.284785091734    -0.232389524623    -0.017560521913    12.000000000000
         C           -1.789187908266     0.123926475377     0.071436478087    12.000000000000
         H            2.154838091734     1.544067475377    -0.548666521913     1.007825032230
         H            2.117891091734     1.177774475377     1.159210478087     1.007825032230
         H           -0.384872908266     1.382242475377     1.172336478087     1.007825032230
         H           -0.423406908266     1.718201475377    -0.560314521913     1.007825032230
         H            3.251821091734    -1.043486524623     0.713587478087     1.007825032230
         H            3.273267091734    -0.679159524623    -1.013774521913     1.007825032230
         H            4.227907091734     0.305984475377     0.108779478087     1.007825032230

  Basis Set: AUG-CC-PVTZ
    Blend: AUG-CC-PVTZ
  Basis Set: (AUG-CC-PVTZ AUX)
    Blend: AUG-CC-PVTZ-JKFIT
	 Reference Energy          =    -418.1922800600636947 [Eh]
	 Singles Energy            =      -0.0000000000000000 [Eh]
	 Same-Spin Energy          =      -0.4162476897352713 [Eh]
	 Opposite-Spin Energy      =      -1.2927283236659504 [Eh]
	 Correlation Energy        =      -1.7089760134012217 [Eh]
	 Total Energy              =    -419.9012560734649355 [Eh]

	 ================> DF-SCS-MP2 Energies <==================
	-----------------------------------------------------------
	 SCS Same-Spin Scale       =       0.3333333333333333 [-]
	 SCS Opposite-Spin Scale   =       1.2000000000000000 [-]
	 SCS Same-Spin Energy      =      -0.1387492299117571 [Eh]
	 SCS Opposite-Spin Energy  =      -1.5512739883991404 [Eh]
	 SCS Correlation Energy    =      -1.6900232183108974 [Eh]
	 SCS Total Energy          =    -419.8823032783745930 [Eh]
	-----------------------------------------------------------

  Dipole Moment: [D]
     X:     9.8888      Y:     3.3985      Z:     0.5893     Total:    10.4731

*** Psi4 exiting successfully. Buy a developer a beer!
