                               Psi4 1.3.2 release

  ==> Input File <==

--------------------------------------------------------------------------
#psi4
#
memory 32 gb

molecule  {
-1 1
  O        0.5632720    -1.1719080    -0.3765930
  O       -2.2370500    -0.5589400     1.0879600
  O       -2.5032960     0.1554020    -1.0563790
  C        1.9927080     0.6815170     0.1510220
  C        0.6589905     0.0303198    -0.0330563
  C       -0.5777410     0.8814240     0.1686100
  C        3.1729130    -0.2631210    -0.0329300
  C       -1.9147317     0.1159228     0.0608704
  H        2.0429660     1.5133360    -0.5640360
  H        2.0060190     1.1470430     1.1438410
  H       -0.4967450     1.3515110     1.1569670
  H       -0.5352790     1.6874700    -0.5756840
  H        3.1399490    -1.0742180     0.6982180
  H        3.1613950    -0.7098910    -1.0291440
  H        4.1160350     0.2752530     0.0934100
units angstrom
no_reorient  #important for SAPT in psi4, default
symmetry c1  #important for SAPT in psi4, default
}

set PROPERTIES_ORIGIN ["COM"]
properties('MP2/aug-cc-pvtz', properties = ['dipole'])
--------------------------------------------------------------------------

    Molecular point group: c1
  Charge       = -1
  Multiplicity = 1
  Basis Set: AUG-CC-PVTZ
    Blend: AUG-CC-PVTZ
  Basis Set: (AUG-CC-PVTZ AUX)
    Blend: AUG-CC-PVTZ-JKFIT

    Orbital Energies [Eh]
    ---------------------

    Doubly Occupied:

       1A    -20.408076     2A    -20.297654     3A    -20.293824
       4A    -11.201818     5A    -11.146709     6A    -11.131998
       7A    -11.122066     8A    -11.083909     9A     -1.224620
      10A     -1.163507    11A     -1.063465    12A     -0.954369
      13A     -0.868753    14A     -0.771197    15A     -0.613209
      16A     -0.539110    17A     -0.528726    18A     -0.526709
      19A     -0.467946    20A     -0.454349    21A     -0.438225
      22A     -0.412079    23A     -0.406130    24A     -0.404591
      25A     -0.376439    26A     -0.339722    27A     -0.333926
      28A     -0.281942    29A     -0.210562    30A     -0.207649
      31A     -0.192015

  @DF-RHF Final Energy:  -418.19056320088458

   => Energetics <=

    Nuclear Repulsion Energy =            356.3534545005734344
    One-Electron Energy =               -1290.1574515103516205
    Two-Electron Energy =                 515.6134338088936602
    Total Energy =                       -418.1905632008845259
  Basis Set: (AUG-CC-PVTZ AUX)
    Blend: AUG-CC-PVTZ-RI
    Molecular point group: c1

    Geometry (in Angstrom), charge = -1, multiplicity = 1:

       Center              X                  Y                   Z               Mass
    ------------   -----------------  -----------------  -----------------  -----------------
         O            0.678769807639    -1.140413794724    -0.369521992502    15.994914619570
         O           -2.121552192361    -0.527445794724     1.095031007498    15.994914619570
         O           -2.387798192361     0.186896205276    -1.049307992502    15.994914619570
         C            2.108205807639     0.713011205276     0.158093007498    12.000000000000
         C            0.774488307639     0.061814005276    -0.025985292502    12.000000000000
         C           -0.462243192361     0.912918205276     0.175681007498    12.000000000000
         C            3.288410807639    -0.231626794724    -0.025858992502    12.000000000000
         C           -1.799233892361     0.147417005276     0.067941407498    12.000000000000
         H            2.158463807639     1.544830205276    -0.556964992502     1.007825032230
         H            2.121516807639     1.178537205276     1.150912007498     1.007825032230
         H           -0.381247192361     1.383005205276     1.164038007498     1.007825032230
         H           -0.419781192361     1.718964205276    -0.568612992502     1.007825032230
         H            3.255446807639    -1.042723794724     0.705289007498     1.007825032230
         H            3.276892807639    -0.678396794724    -1.022072992502     1.007825032230
         H            4.231532807639     0.306747205276     0.100481007498     1.007825032230

  Basis Set: AUG-CC-PVTZ
    Blend: AUG-CC-PVTZ
  Basis Set: (AUG-CC-PVTZ AUX)
    Blend: AUG-CC-PVTZ-JKFIT
	 Reference Energy          =    -418.1905632008845828 [Eh]
	 Singles Energy            =      -0.0000000000000000 [Eh]
	 Same-Spin Energy          =      -0.4169726655239413 [Eh]
	 Opposite-Spin Energy      =      -1.2942080739299542 [Eh]
	 Correlation Energy        =      -1.7111807394538956 [Eh]
	 Total Energy              =    -419.9017439403384628 [Eh]

	 ================> DF-SCS-MP2 Energies <==================
	-----------------------------------------------------------
	 SCS Same-Spin Scale       =       0.3333333333333333 [-]
	 SCS Opposite-Spin Scale   =       1.2000000000000000 [-]
	 SCS Same-Spin Energy      =      -0.1389908885079804 [Eh]
	 SCS Opposite-Spin Energy  =      -1.5530496887159451 [Eh]
	 SCS Correlation Energy    =      -1.6920405772239255 [Eh]
	 SCS Total Energy          =    -419.8826037781084892 [Eh]
	-----------------------------------------------------------

  Dipole Moment: [D]
     X:    10.0591      Y:     3.5616      Z:     0.6169     Total:    10.6889

*** Psi4 exiting successfully. Buy a developer a beer!
