                               Psi4 1.3.2 release

  ==> Input File <==

--------------------------------------------------------------------------
#psi4
#
memory 32 gb

molecule  {
-1 1
  O        0.5632720    -1.1719080    -0.3765930
  O       -2.2370500    -0.5589400     1.0879600
  O       -2.5032960     0.1554020    -1.0563790
  C        1.9927080     0.6815170     0.1510220
  C        0.6115787    -0.0323472    -0.0437417
  C       -0.5777410     0.8814240     0.1686100
  C        3.1729130    -0.2631210    -0.0329300
  C       -1.8725116     0.0484666     0.0465646
  H        2.0429660     1.5133360    -0.5640360
  H        2.0060190     1.1470430     1.1438410
  H       -0.4967450     1.3515110     1.1569670
  H       -0.5352790     1.6874700    -0.5756840
  H        3.1399490    -1.0742180     0.6982180
  H        3.1613950    -0.7098910    -1.0291440
  H        4.1160350     0.2752530     0.0934100
units angstrom
no_reorient  #important for SAPT in psi4, default
symmetry c1  #important for SAPT in psi4, default
}

set PROPERTIES_ORIGIN ["COM"]
properties('MP2/aug-cc-pvtz', properties = ['dipole'])
--------------------------------------------------------------------------

    Molecular point group: c1
  Charge       = -1
  Multiplicity = 1
  Basis Set: AUG-CC-PVTZ
    Blend: AUG-CC-PVTZ
  Basis Set: (AUG-CC-PVTZ AUX)
    Blend: AUG-CC-PVTZ-JKFIT

    Orbital Energies [Eh]
    ---------------------

    Doubly Occupied:

       1A    -20.414684     2A    -20.296914     3A    -20.294626
       4A    -11.197012     5A    -11.146098     6A    -11.125840
       7A    -11.118318     8A    -11.081672     9A     -1.270835
      10A     -1.164345    11A     -1.063403    12A     -0.941118
      13A     -0.867345    14A     -0.758411    15A     -0.609194
      16A     -0.542523    17A     -0.531992    18A     -0.522063
      19A     -0.479931    20A     -0.456401    21A     -0.440856
      22A     -0.410855    23A     -0.407594    24A     -0.401679
      25A     -0.379524    26A     -0.361010    27A     -0.337164
      28A     -0.275153    29A     -0.210566    30A     -0.204532
      31A     -0.192895

  @DF-RHF Final Energy:  -418.19595676070475

   => Energetics <=

    Nuclear Repulsion Energy =            357.4096335878940636
    One-Electron Energy =               -1292.2020762550264408
    Two-Electron Energy =                 516.5964859064275743
    Total Energy =                       -418.1959567607048029
  Basis Set: (AUG-CC-PVTZ AUX)
    Blend: AUG-CC-PVTZ-RI
    Molecular point group: c1

    Geometry (in Angstrom), charge = -1, multiplicity = 1:

       Center              X                  Y                   Z               Mass
    ------------   -----------------  -----------------  -----------------  -----------------
         O            0.679311364145    -1.126840386104    -0.366915110950    15.994914619570
         O           -2.121010635855    -0.513872386104     1.097637889050    15.994914619570
         O           -2.387256635855     0.200469613896    -1.046701110950    15.994914619570
         C            2.108747364145     0.726584613896     0.160699889050    12.000000000000
         C            0.727618064145     0.012720413896    -0.034063810950    12.000000000000
         C           -0.461701635855     0.926491613896     0.178287889050    12.000000000000
         C            3.288952364145    -0.218053386104    -0.023252110950    12.000000000000
         C           -1.756472235855     0.093534213896     0.056242489050    12.000000000000
         H            2.159005364145     1.558403613896    -0.554358110950     1.007825032230
         H            2.122058364145     1.192110613896     1.153518889050     1.007825032230
         H           -0.380705635855     1.396578613896     1.166644889050     1.007825032230
         H           -0.419239635855     1.732537613896    -0.566006110950     1.007825032230
         H            3.255988364145    -1.029150386104     0.707895889050     1.007825032230
         H            3.277434364145    -0.664823386104    -1.019466110950     1.007825032230
         H            4.232074364145     0.320320613896     0.103087889050     1.007825032230

  Basis Set: AUG-CC-PVTZ
    Blend: AUG-CC-PVTZ
  Basis Set: (AUG-CC-PVTZ AUX)
    Blend: AUG-CC-PVTZ-JKFIT
	 Reference Energy          =    -418.1959567607047461 [Eh]
	 Singles Energy            =      -0.0000000000000000 [Eh]
	 Same-Spin Energy          =      -0.4151359725971752 [Eh]
	 Opposite-Spin Energy      =      -1.2902393934544296 [Eh]
	 Correlation Energy        =      -1.7053753660516047 [Eh]
	 Total Energy              =    -419.9013321267563583 [Eh]

	 ================> DF-SCS-MP2 Energies <==================
	-----------------------------------------------------------
	 SCS Same-Spin Scale       =       0.3333333333333333 [-]
	 SCS Opposite-Spin Scale   =       1.2000000000000000 [-]
	 SCS Same-Spin Energy      =      -0.1383786575323917 [Eh]
	 SCS Opposite-Spin Energy  =      -1.5482872721453156 [Eh]
	 SCS Correlation Energy    =      -1.6866659296777073 [Eh]
	 SCS Total Energy          =    -419.8826226903824477 [Eh]
	-----------------------------------------------------------

  Dipole Moment: [D]
     X:     9.8248      Y:     3.2357      Z:     0.6612     Total:    10.3650

*** Psi4 exiting successfully. Buy a developer a beer!
