                               Psi4 1.3.2 release

  ==> Input File <==

--------------------------------------------------------------------------
#psi4
#
memory 32 gb

molecule  {
-1 1
  O        0.5632720    -1.1719080    -0.3765930
  O       -2.2370500    -0.5589400     1.0879600
  O       -2.5032960     0.1554020    -1.0563790
  C        1.9927080     0.6815170     0.1510220
  C        0.6435570     0.0091630    -0.0366810
  C       -0.5777410     0.8814240     0.1686100
  C        3.1729130    -0.2631210    -0.0329300
  C       -1.8944213     0.0861003     0.0309248
  H        2.0429660     1.5133360    -0.5640360
  H        2.0060190     1.1470430     1.1438410
  H       -0.4797791     1.3588241     1.1519127
  H       -0.5352790     1.6874700    -0.5756840
  H        3.1399490    -1.0742180     0.6982180
  H        3.1613950    -0.7098910    -1.0291440
  H        4.1160350     0.2752530     0.0934100
units angstrom
no_reorient  #important for SAPT in psi4, default
symmetry c1  #important for SAPT in psi4, default
}

set PROPERTIES_ORIGIN ["COM"]
properties('MP2/aug-cc-pvtz', properties = ['dipole'])
--------------------------------------------------------------------------

    Molecular point group: c1
  Charge       = -1
  Multiplicity = 1
  Basis Set: AUG-CC-PVTZ
    Blend: AUG-CC-PVTZ
  Basis Set: (AUG-CC-PVTZ AUX)
    Blend: AUG-CC-PVTZ-JKFIT

    Orbital Energies [Eh]
    ---------------------

    Doubly Occupied:

       1A    -20.410068     2A    -20.301452     3A    -20.289612
       4A    -11.199777     5A    -11.146409     6A    -11.130148
       7A    -11.120789     8A    -11.083111     9A     -1.239477
      10A     -1.166151    11A     -1.061948    12A     -0.949814
      13A     -0.868349    14A     -0.766771    15A     -0.611278
      16A     -0.539055    17A     -0.530004    18A     -0.526216
      19A     -0.471282    20A     -0.454200    21A     -0.440198
      22A     -0.411555    23A     -0.407795    24A     -0.403179
      25A     -0.376915    26A     -0.346344    27A     -0.336883
      28A     -0.280323    29A     -0.212049    30A     -0.204746
      31A     -0.191972

  @DF-RHF Final Energy:  -418.19478663659930

   => Energetics <=

    Nuclear Repulsion Energy =            356.7859641882112669
    One-Electron Energy =               -1291.0057654736519908
    Two-Electron Energy =                 516.0250146488415339
    Total Energy =                       -418.1947866365992468
  Basis Set: (AUG-CC-PVTZ AUX)
    Blend: AUG-CC-PVTZ-RI
    Molecular point group: c1

    Geometry (in Angstrom), charge = -1, multiplicity = 1:

       Center              X                  Y                   Z               Mass
    ------------   -----------------  -----------------  -----------------  -----------------
         O            0.678112455633    -1.135160110776    -0.365975928911    15.994914619570
         O           -2.122209544367    -0.522192110776     1.098577071089    15.994914619570
         O           -2.388455544367     0.192149889224    -1.045761928911    15.994914619570
         C            2.107548455633     0.718264889224     0.161639071089    12.000000000000
         C            0.758397455633     0.045910889224    -0.026063928911    12.000000000000
         C           -0.462900544367     0.918171889224     0.179227071089    12.000000000000
         C            3.287753455633    -0.226373110776    -0.022312928911    12.000000000000
         C           -1.779580844367     0.122848189224     0.041541871089    12.000000000000
         H            2.157806455633     1.550083889224    -0.553418928911     1.007825032230
         H            2.120859455633     1.183790889224     1.154458071089     1.007825032230
         H           -0.364938644367     1.395571989224     1.162529771089     1.007825032230
         H           -0.420438544367     1.724217889224    -0.565066928911     1.007825032230
         H            3.254789455633    -1.037470110776     0.708835071089     1.007825032230
         H            3.276235455633    -0.673143110776    -1.018526928911     1.007825032230
         H            4.230875455633     0.312000889224     0.104027071089     1.007825032230

  Basis Set: AUG-CC-PVTZ
    Blend: AUG-CC-PVTZ
  Basis Set: (AUG-CC-PVTZ AUX)
    Blend: AUG-CC-PVTZ-JKFIT
	 Reference Energy          =    -418.1947866365993036 [Eh]
	 Singles Energy            =      -0.0000000000000000 [Eh]
	 Same-Spin Energy          =      -0.4162005021507054 [Eh]
	 Opposite-Spin Energy      =      -1.2925176503558555 [Eh]
	 Correlation Energy        =      -1.7087181525065609 [Eh]
	 Total Energy              =    -419.9035047891058525 [Eh]

	 ================> DF-SCS-MP2 Energies <==================
	-----------------------------------------------------------
	 SCS Same-Spin Scale       =       0.3333333333333333 [-]
	 SCS Opposite-Spin Scale   =       1.2000000000000000 [-]
	 SCS Same-Spin Energy      =      -0.1387335007169018 [Eh]
	 SCS Opposite-Spin Energy  =      -1.5510211804270266 [Eh]
	 SCS Correlation Energy    =      -1.6897546811439283 [Eh]
	 SCS Total Energy          =    -419.8845413177432420 [Eh]
	-----------------------------------------------------------

  Dipole Moment: [D]
     X:     9.9718      Y:     3.5270      Z:     0.4191     Total:    10.5855

*** Psi4 exiting successfully. Buy a developer a beer!
