                               Psi4 1.3.2 release

  ==> Input File <==

--------------------------------------------------------------------------
#psi4
#
memory 32 gb

molecule  {
-1 1
  O        0.5740000    -1.1725236    -0.3768181
  O       -2.2370500    -0.5589400     1.0879600
  O       -2.5032960     0.1554020    -1.0563790
  C        1.9987480     0.6701853     0.1477304
  C        0.6435570     0.0091630    -0.0366810
  C       -0.5777410     0.8814240     0.1686100
  C        3.1729130    -0.2631210    -0.0329300
  C       -1.9010600     0.0931950     0.0560670
  H        2.0429660     1.5133360    -0.5640360
  H        2.0060190     1.1470430     1.1438410
  H       -0.4967450     1.3515110     1.1569670
  H       -0.5352790     1.6874700    -0.5756840
  H        3.1399490    -1.0742180     0.6982180
  H        3.1613950    -0.7098910    -1.0291440
  H        4.1160350     0.2752530     0.0934100
units angstrom
no_reorient  #important for SAPT in psi4, default
symmetry c1  #important for SAPT in psi4, default
}

set PROPERTIES_ORIGIN ["COM"]
properties('MP2/aug-cc-pvtz', properties = ['dipole'])
--------------------------------------------------------------------------

    Molecular point group: c1
  Charge       = -1
  Multiplicity = 1
  Basis Set: AUG-CC-PVTZ
    Blend: AUG-CC-PVTZ
  Basis Set: (AUG-CC-PVTZ AUX)
    Blend: AUG-CC-PVTZ-JKFIT

    Orbital Energies [Eh]
    ---------------------

    Doubly Occupied:

       1A    -20.409814     2A    -20.296875     3A    -20.295085
       4A    -11.200054     5A    -11.146676     6A    -11.130352
       7A    -11.120117     8A    -11.083704     9A     -1.239550
      10A     -1.164318    11A     -1.064397    12A     -0.950662
      13A     -0.868972    14A     -0.766240    15A     -0.610871
      16A     -0.538875    17A     -0.530429    18A     -0.525185
      19A     -0.471611    20A     -0.455071    21A     -0.440581
      22A     -0.412988    23A     -0.406946    24A     -0.401806
      25A     -0.376275    26A     -0.346684    27A     -0.336359
      28A     -0.280370    29A     -0.210677    30A     -0.207619
      31A     -0.192864

  @DF-RHF Final Energy:  -418.19542898701758

   => Energetics <=

    Nuclear Repulsion Energy =            356.7386275066106691
    One-Electron Energy =               -1290.9040566760834281
    Two-Electron Energy =                 515.9700001824551236
    Total Energy =                       -418.1954289870176353
  Basis Set: (AUG-CC-PVTZ AUX)
    Blend: AUG-CC-PVTZ-RI
    Molecular point group: c1

    Geometry (in Angstrom), charge = -1, multiplicity = 1:

       Center              X                  Y                   Z               Mass
    ------------   -----------------  -----------------  -----------------  -----------------
         O            0.687559935804    -1.135184081089    -0.368493289839    15.994914619570
         O           -2.123490064196    -0.521600481089     1.096284810161    15.994914619570
         O           -2.389736064196     0.192741518911    -1.048054189839    15.994914619570
         C            2.112307935804     0.707524818911     0.156055210161    12.000000000000
         C            0.757116935804     0.046502518911    -0.028356189839    12.000000000000
         C           -0.464181064196     0.918763518911     0.176934810161    12.000000000000
         C            3.286472935804    -0.225781481089    -0.024605189839    12.000000000000
         C           -1.787500064196     0.130534518911     0.064391810161    12.000000000000
         H            2.156525935804     1.550675518911    -0.555711189839     1.007825032230
         H            2.119578935804     1.184382518911     1.152165810161     1.007825032230
         H           -0.383185064196     1.388850518911     1.165291810161     1.007825032230
         H           -0.421719064196     1.724809518911    -0.567359189839     1.007825032230
         H            3.253508935804    -1.036878481089     0.706542810161     1.007825032230
         H            3.274954935804    -0.672551481089    -1.020819189839     1.007825032230
         H            4.229594935804     0.312592518911     0.101734810161     1.007825032230

  Basis Set: AUG-CC-PVTZ
    Blend: AUG-CC-PVTZ
  Basis Set: (AUG-CC-PVTZ AUX)
    Blend: AUG-CC-PVTZ-JKFIT
	 Reference Energy          =    -418.1954289870175785 [Eh]
	 Singles Energy            =      -0.0000000000000000 [Eh]
	 Same-Spin Energy          =      -0.4162647921787061 [Eh]
	 Opposite-Spin Energy      =      -1.2925856223687653 [Eh]
	 Correlation Energy        =      -1.7088504145474714 [Eh]
	 Total Energy              =    -419.9042794015650770 [Eh]

	 ================> DF-SCS-MP2 Energies <==================
	-----------------------------------------------------------
	 SCS Same-Spin Scale       =       0.3333333333333333 [-]
	 SCS Opposite-Spin Scale   =       1.2000000000000000 [-]
	 SCS Same-Spin Energy      =      -0.1387549307262353 [Eh]
	 SCS Opposite-Spin Energy  =      -1.5511027468425183 [Eh]
	 SCS Correlation Energy    =      -1.6898576775687535 [Eh]
	 SCS Total Energy          =    -419.8852866645863173 [Eh]
	-----------------------------------------------------------

  Dipole Moment: [D]
     X:     9.9688      Y:     3.4523      Z:     0.6311     Total:    10.5685

*** Psi4 exiting successfully. Buy a developer a beer!
