                               Psi4 1.3.2 release

  ==> Input File <==

--------------------------------------------------------------------------
#psi4
#
memory 32 gb

molecule  {
-1 1
  O        0.5632720    -1.1719080    -0.3765930
  O       -2.2370500    -0.5589400     1.0879600
  O       -2.5032960     0.1554020    -1.0563790
  C        1.9927080     0.6815170     0.1510220
  C        0.6674586    -0.0139238    -0.1089334
  C       -0.5777410     0.8814240     0.1686100
  C        3.1729130    -0.2631210    -0.0329300
  C       -1.9010600     0.0931950     0.0560670
  H        2.0429660     1.5133360    -0.5640360
  H        2.0593983     1.1651697     1.1329658
  H       -0.4967450     1.3515110     1.1569670
  H       -0.5352790     1.6874700    -0.5756840
  H        3.1399490    -1.0742180     0.6982180
  H        3.1613950    -0.7098910    -1.0291440
  H        4.1160350     0.2752530     0.0934100
units angstrom
no_reorient  #important for SAPT in psi4, default
symmetry c1  #important for SAPT in psi4, default
}

set PROPERTIES_ORIGIN ["COM"]
properties('MP2/aug-cc-pvtz', properties = ['dipole'])
--------------------------------------------------------------------------

    Molecular point group: c1
  Charge       = -1
  Multiplicity = 1
  Basis Set: AUG-CC-PVTZ
    Blend: AUG-CC-PVTZ
  Basis Set: (AUG-CC-PVTZ AUX)
    Blend: AUG-CC-PVTZ-JKFIT

    Orbital Energies [Eh]
    ---------------------

    Doubly Occupied:

       1A    -20.415290     2A    -20.294651     3A    -20.293261
       4A    -11.198151     5A    -11.143623     6A    -11.129135
       7A    -11.120405     8A    -11.080178     9A     -1.267442
      10A     -1.162310    11A     -1.062330    12A     -0.949896
      13A     -0.856789    14A     -0.764239    15A     -0.613969
      16A     -0.537067    17A     -0.536437    18A     -0.524914
      19A     -0.477440    20A     -0.451711    21A     -0.439014
      22A     -0.413921    23A     -0.408400    24A     -0.402629
      25A     -0.377878    26A     -0.357725    27A     -0.337082
      28A     -0.273319    29A     -0.208482    30A     -0.204364
      31A     -0.191191

  @DF-RHF Final Energy:  -418.19410104840762

   => Energetics <=

    Nuclear Repulsion Energy =            356.7885570147465728
    One-Electron Energy =               -1290.9788293920703381
    Two-Electron Energy =                 515.9961713289161480
    Total Energy =                       -418.1941010484075605
  Basis Set: (AUG-CC-PVTZ AUX)
    Blend: AUG-CC-PVTZ-RI
    Molecular point group: c1

    Geometry (in Angstrom), charge = -1, multiplicity = 1:

       Center              X                  Y                   Z               Mass
    ------------   -----------------  -----------------  -----------------  -----------------
         O            0.675992722015    -1.133586677710    -0.361010775603    15.994914619570
         O           -2.124329277985    -0.520618677710     1.103542224397    15.994914619570
         O           -2.390575277985     0.193723322290    -1.040796775603    15.994914619570
         C            2.105428722015     0.719838322290     0.166604224397    12.000000000000
         C            0.780179322015     0.024397522290    -0.093351175603    12.000000000000
         C           -0.465020277985     0.919745322290     0.184192224397    12.000000000000
         C            3.285633722015    -0.224799677710    -0.017347775603    12.000000000000
         C           -1.788339277985     0.131516322290     0.071649224397    12.000000000000
         H            2.155686722015     1.551657322290    -0.548453775603     1.007825032230
         H            2.172119022015     1.203491022290     1.148548024397     1.007825032230
         H           -0.384024277985     1.389832322290     1.172549224397     1.007825032230
         H           -0.422558277985     1.725791322290    -0.560101775603     1.007825032230
         H            3.252669722015    -1.035896677710     0.713800224397     1.007825032230
         H            3.274115722015    -0.671569677710    -1.013561775603     1.007825032230
         H            4.228755722015     0.313574322290     0.108992224397     1.007825032230

  Basis Set: AUG-CC-PVTZ
    Blend: AUG-CC-PVTZ
  Basis Set: (AUG-CC-PVTZ AUX)
    Blend: AUG-CC-PVTZ-JKFIT
	 Reference Energy          =    -418.1941010484076173 [Eh]
	 Singles Energy            =      -0.0000000000000000 [Eh]
	 Same-Spin Energy          =      -0.4151815033964477 [Eh]
	 Opposite-Spin Energy      =      -1.2905877735195432 [Eh]
	 Correlation Energy        =      -1.7057692769159909 [Eh]
	 Total Energy              =    -419.8998703253236044 [Eh]

	 ================> DF-SCS-MP2 Energies <==================
	-----------------------------------------------------------
	 SCS Same-Spin Scale       =       0.3333333333333333 [-]
	 SCS Opposite-Spin Scale   =       1.2000000000000000 [-]
	 SCS Same-Spin Energy      =      -0.1383938344654825 [Eh]
	 SCS Opposite-Spin Energy  =      -1.5487053282234517 [Eh]
	 SCS Correlation Energy    =      -1.6870991626889342 [Eh]
	 SCS Total Energy          =    -419.8812002110965409 [Eh]
	-----------------------------------------------------------

  Dipole Moment: [D]
     X:    10.1609      Y:     3.2929      Z:     0.5367     Total:    10.6946

*** Psi4 exiting successfully. Buy a developer a beer!
