                               Psi4 1.3.2 release

  ==> Input File <==

--------------------------------------------------------------------------
#psi4
#
memory 32 gb

molecule  {
-1 1
  O        0.5632720    -1.1719080    -0.3765930
  O       -2.2370500    -0.5589400     1.0879600
  O       -2.5032960     0.1554020    -1.0563790
  C        1.9927080     0.6815170     0.1510220
  C        0.6364086     0.0172714    -0.0124727
  C       -0.5777410     0.8814240     0.1686100
  C        3.1729130    -0.2631210    -0.0329300
  C       -1.9010600     0.0931950     0.0560670
  H        2.0429660     1.5133360    -0.5640360
  H        1.9882106     1.1407147     1.1468626
  H       -0.4967450     1.3515110     1.1569670
  H       -0.5352790     1.6874700    -0.5756840
  H        3.1399490    -1.0742180     0.6982180
  H        3.1613950    -0.7098910    -1.0291440
  H        4.1160350     0.2752530     0.0934100
units angstrom
no_reorient  #important for SAPT in psi4, default
symmetry c1  #important for SAPT in psi4, default
}

set PROPERTIES_ORIGIN ["COM"]
properties('MP2/aug-cc-pvtz', properties = ['dipole'])
--------------------------------------------------------------------------

    Molecular point group: c1
  Charge       = -1
  Multiplicity = 1
  Basis Set: AUG-CC-PVTZ
    Blend: AUG-CC-PVTZ
  Basis Set: (AUG-CC-PVTZ AUX)
    Blend: AUG-CC-PVTZ-JKFIT

    Orbital Energies [Eh]
    ---------------------

    Doubly Occupied:

       1A    -20.408653     2A    -20.297041     3A    -20.295110
       4A    -11.201040     5A    -11.147018     6A    -11.130831
       7A    -11.121075     8A    -11.083705     9A     -1.229963
      10A     -1.164333    11A     -1.064515    12A     -0.950018
      13A     -0.871773    14A     -0.767905    15A     -0.611310
      16A     -0.538730    17A     -0.528177    18A     -0.526691
      19A     -0.469101    20A     -0.455757    21A     -0.439599
      22A     -0.411553    23A     -0.405726    24A     -0.403529
      25A     -0.377480    26A     -0.342724    27A     -0.334839
      28A     -0.281783    29A     -0.210866    30A     -0.207953
      31A     -0.192908

  @DF-RHF Final Energy:  -418.19308871892827

   => Energetics <=

    Nuclear Repulsion Energy =            356.6646027279253985
    One-Electron Energy =               -1290.7719724134317403
    Two-Electron Energy =                 515.9142809665780760
    Total Energy =                       -418.1930887189282657
  Basis Set: (AUG-CC-PVTZ AUX)
    Blend: AUG-CC-PVTZ-RI
    Molecular point group: c1

    Geometry (in Angstrom), charge = -1, multiplicity = 1:

       Center              X                  Y                   Z               Mass
    ------------   -----------------  -----------------  -----------------  -----------------
         O            0.679855262032    -1.136626468224    -0.371194527693    15.994914619570
         O           -2.120466737968    -0.523658468224     1.093358472307    15.994914619570
         O           -2.386712737968     0.190683531776    -1.050980527693    15.994914619570
         C            2.109291262032     0.716798531776     0.156420472307    12.000000000000
         C            0.752991862032     0.052552931776    -0.007074227693    12.000000000000
         C           -0.461157737968     0.916705531776     0.174008472307    12.000000000000
         C            3.289496262032    -0.227839468224    -0.027531527693    12.000000000000
         C           -1.784476737968     0.128476531776     0.061465472307    12.000000000000
         H            2.159549262032     1.548617531776    -0.558637527693     1.007825032230
         H            2.104793862032     1.175996231776     1.152261072307     1.007825032230
         H           -0.380161737968     1.386792531776     1.162365472307     1.007825032230
         H           -0.418695737968     1.722751531776    -0.570285527693     1.007825032230
         H            3.256532262032    -1.038936468224     0.703616472307     1.007825032230
         H            3.277978262032    -0.674609468224    -1.023745527693     1.007825032230
         H            4.232618262032     0.310534531776     0.098808472307     1.007825032230

  Basis Set: AUG-CC-PVTZ
    Blend: AUG-CC-PVTZ
  Basis Set: (AUG-CC-PVTZ AUX)
    Blend: AUG-CC-PVTZ-JKFIT
	 Reference Energy          =    -418.1930887189282657 [Eh]
	 Singles Energy            =      -0.0000000000000000 [Eh]
	 Same-Spin Energy          =      -0.4166689743839825 [Eh]
	 Opposite-Spin Energy      =      -1.2934964566946201 [Eh]
	 Correlation Energy        =      -1.7101654310786025 [Eh]
	 Total Energy              =    -419.9032541500068874 [Eh]

	 ================> DF-SCS-MP2 Energies <==================
	-----------------------------------------------------------
	 SCS Same-Spin Scale       =       0.3333333333333333 [-]
	 SCS Opposite-Spin Scale   =       1.2000000000000000 [-]
	 SCS Same-Spin Energy      =      -0.1388896581279942 [Eh]
	 SCS Opposite-Spin Energy  =      -1.5521957480335440 [Eh]
	 SCS Correlation Energy    =      -1.6910854061615381 [Eh]
	 SCS Total Energy          =    -419.8841741250898281 [Eh]
	-----------------------------------------------------------

  Dipole Moment: [D]
     X:     9.9391      Y:     3.5089      Z:     0.6607     Total:    10.5610

*** Psi4 exiting successfully. Buy a developer a beer!
