                               Psi4 1.3.2 release

  ==> Input File <==

--------------------------------------------------------------------------
#psi4
#
memory 32 gb

molecule  {
-1 1
  O        0.5632720    -1.1719080    -0.3765930
  O       -2.2370500    -0.5589400     1.0879600
  O       -2.5032960     0.1554020    -1.0563790
  C        1.9927080     0.6815170     0.1510220
  C        0.6435570     0.0091630    -0.0366810
  C       -0.4164899     0.7662572     0.1415049
  C        3.1729130    -0.2631210    -0.0329300
  C       -1.9010600     0.0931950     0.0560670
  H        2.0429660     1.5133360    -0.5640360
  H        2.0060190     1.1470430     1.1438410
  H       -0.4967450     1.3515110     1.1569670
  H       -0.5352790     1.6874700    -0.5756840
  H        3.1399490    -1.0742180     0.6982180
  H        3.1613950    -0.7098910    -1.0291440
  H        4.1160350     0.2752530     0.0934100
units angstrom
no_reorient  #important for SAPT in psi4, default
symmetry c1  #important for SAPT in psi4, default
}

set PROPERTIES_ORIGIN ["COM"]
properties('MP2/aug-cc-pvtz', properties = ['dipole'])
--------------------------------------------------------------------------

    Molecular point group: c1
  Charge       = -1
  Multiplicity = 1
  Basis Set: AUG-CC-PVTZ
    Blend: AUG-CC-PVTZ
  Basis Set: (AUG-CC-PVTZ AUX)
    Blend: AUG-CC-PVTZ-JKFIT

    Orbital Energies [Eh]
    ---------------------

    Doubly Occupied:

       1A    -20.402849     2A    -20.303544     3A    -20.300275
       4A    -11.183579     5A    -11.157538     6A    -11.124619
       7A    -11.117098     8A    -11.084924     9A     -1.240147
      10A     -1.166660    11A     -1.068589    12A     -0.956326
      13A     -0.893813    14A     -0.759130    15A     -0.618928
      16A     -0.545710    17A     -0.528918    18A     -0.525214
      19A     -0.474169    20A     -0.447338    21A     -0.440723
      22A     -0.407903    23A     -0.400408    24A     -0.393680
      25A     -0.377234    26A     -0.343972    27A     -0.322518
      28A     -0.290372    29A     -0.214551    30A     -0.200827
      31A     -0.197114

  @DF-RHF Final Energy:  -418.14943058075698

   => Energetics <=

    Nuclear Repulsion Energy =            358.7514257102179727
    One-Electron Energy =               -1294.8243690250476448
    Two-Electron Energy =                 517.9235127340726876
    Total Energy =                       -418.1494305807569845
  Basis Set: (AUG-CC-PVTZ AUX)
    Blend: AUG-CC-PVTZ-RI
    Molecular point group: c1

    Geometry (in Angstrom), charge = -1, multiplicity = 1:

       Center              X                  Y                   Z               Mass
    ------------   -----------------  -----------------  -----------------  -----------------
         O            0.662133162987    -1.123822828288    -0.365815454058    15.994914619570
         O           -2.138188837013    -0.510854828288     1.098737545942    15.994914619570
         O           -2.404434837013     0.203487171712    -1.045601454058    15.994914619570
         C            2.091569162987     0.729602171712     0.161799545942    12.000000000000
         C            0.742418162987     0.057248171712    -0.025903454058    12.000000000000
         C           -0.317628737013     0.814342371712     0.152282445942    12.000000000000
         C            3.271774162987    -0.215035828288    -0.022152454058    12.000000000000
         C           -1.802198837013     0.141280171712     0.066844545942    12.000000000000
         H            2.141827162987     1.561421171712    -0.553258454058     1.007825032230
         H            2.104880162987     1.195128171712     1.154618545942     1.007825032230
         H           -0.397883837013     1.399596171712     1.167744545942     1.007825032230
         H           -0.436417837013     1.735555171712    -0.564906454058     1.007825032230
         H            3.238810162987    -1.026132828288     0.708995545942     1.007825032230
         H            3.260256162987    -0.661805828288    -1.018366454058     1.007825032230
         H            4.214896162987     0.323338171712     0.104187545942     1.007825032230

  Basis Set: AUG-CC-PVTZ
    Blend: AUG-CC-PVTZ
  Basis Set: (AUG-CC-PVTZ AUX)
    Blend: AUG-CC-PVTZ-JKFIT
	 Reference Energy          =    -418.1494305807569845 [Eh]
	 Singles Energy            =      -0.0000000000000000 [Eh]
	 Same-Spin Energy          =      -0.4195401287748238 [Eh]
	 Opposite-Spin Energy      =      -1.2972351067179273 [Eh]
	 Correlation Energy        =      -1.7167752354927512 [Eh]
	 Total Energy              =    -419.8662058162497601 [Eh]

	 ================> DF-SCS-MP2 Energies <==================
	-----------------------------------------------------------
	 SCS Same-Spin Scale       =       0.3333333333333333 [-]
	 SCS Opposite-Spin Scale   =       1.2000000000000000 [-]
	 SCS Same-Spin Energy      =      -0.1398467095916079 [Eh]
	 SCS Opposite-Spin Energy  =      -1.5566821280615126 [Eh]
	 SCS Correlation Energy    =      -1.6965288376531205 [Eh]
	 SCS Total Energy          =    -419.8459594184101320 [Eh]
	-----------------------------------------------------------

  Dipole Moment: [D]
     X:     9.4404      Y:     3.4598      Z:     0.6269     Total:    10.0739

*** Psi4 exiting successfully. Buy a developer a beer!
