                               Psi4 1.3.2 release

  ==> Input File <==

--------------------------------------------------------------------------
#psi4
#
memory 32 gb

molecule  {
-1 1
  O        0.5632720    -1.1719080    -0.3765930
  O       -2.2370500    -0.5589400     1.0879600
  O       -2.5032960     0.1554020    -1.0563790
  C        1.9927080     0.6815170     0.1510220
  C        0.6273761     0.0622399    -0.0936522
  C       -0.5777410     0.8814240     0.1686100
  C        3.1729130    -0.2631210    -0.0329300
  C       -1.9010600     0.0931950     0.0560670
  H        1.9902841     1.4990353    -0.5820637
  H        2.0060190     1.1470430     1.1438410
  H       -0.4967450     1.3515110     1.1569670
  H       -0.5352790     1.6874700    -0.5756840
  H        3.1399490    -1.0742180     0.6982180
  H        3.1613950    -0.7098910    -1.0291440
  H        4.1160350     0.2752530     0.0934100
units angstrom
no_reorient  #important for SAPT in psi4, default
symmetry c1  #important for SAPT in psi4, default
}

set PROPERTIES_ORIGIN ["COM"]
properties('MP2/aug-cc-pvtz', properties = ['dipole'])
--------------------------------------------------------------------------

    Molecular point group: c1
  Charge       = -1
  Multiplicity = 1
  Basis Set: AUG-CC-PVTZ
    Blend: AUG-CC-PVTZ
  Basis Set: (AUG-CC-PVTZ AUX)
    Blend: AUG-CC-PVTZ-JKFIT

    Orbital Energies [Eh]
    ---------------------

    Doubly Occupied:

       1A    -20.406218     2A    -20.297636     3A    -20.296050
       4A    -11.202731     5A    -11.148376     6A    -11.131853
       7A    -11.121547     8A    -11.084901     9A     -1.215877
      10A     -1.164877    11A     -1.065248    12A     -0.950641
      13A     -0.877623    14A     -0.769960    15A     -0.610791
      16A     -0.539670    17A     -0.529402    18A     -0.523868
      19A     -0.465966    20A     -0.457707    21A     -0.439600
      22A     -0.414040    23A     -0.404348    24A     -0.400952
      25A     -0.377731    26A     -0.337531    27A     -0.331550
      28A     -0.282778    29A     -0.211506    30A     -0.209270
      31A     -0.193402

  @DF-RHF Final Energy:  -418.18587940023309

   => Energetics <=

    Nuclear Repulsion Energy =            356.5531833875676284
    One-Electron Energy =               -1290.5508248411272234
    Two-Electron Energy =                 515.8117620533265608
    Total Energy =                       -418.1858794002330342
  Basis Set: (AUG-CC-PVTZ AUX)
    Blend: AUG-CC-PVTZ-RI
    Molecular point group: c1

    Geometry (in Angstrom), charge = -1, multiplicity = 1:

       Center              X                  Y                   Z               Mass
    ------------   -----------------  -----------------  -----------------  -----------------
         O            0.681102975752    -1.141247377803    -0.362542127028    15.994914619570
         O           -2.119219024248    -0.528279377803     1.102010872972    15.994914619570
         O           -2.385465024248     0.186062622197    -1.042328127028    15.994914619570
         C            2.110538975752     0.712177622197     0.165072872972    12.000000000000
         C            0.745207075752     0.092900522197    -0.079601327028    12.000000000000
         C           -0.459910024248     0.912084622197     0.182660872972    12.000000000000
         C            3.290743975752    -0.232460377803    -0.018879127028    12.000000000000
         C           -1.783229024248     0.123855622197     0.070117872972    12.000000000000
         H            2.108115075752     1.529695922197    -0.568012827028     1.007825032230
         H            2.123849975752     1.177703622197     1.157891872972     1.007825032230
         H           -0.378914024248     1.382171622197     1.171017872972     1.007825032230
         H           -0.417448024248     1.718130622197    -0.561633127028     1.007825032230
         H            3.257779975752    -1.043557377803     0.712268872972     1.007825032230
         H            3.279225975752    -0.679230377803    -1.015093127028     1.007825032230
         H            4.233865975752     0.305913622197     0.107460872972     1.007825032230

  Basis Set: AUG-CC-PVTZ
    Blend: AUG-CC-PVTZ
  Basis Set: (AUG-CC-PVTZ AUX)
    Blend: AUG-CC-PVTZ-JKFIT
	 Reference Energy          =    -418.1858794002330910 [Eh]
	 Singles Energy            =      -0.0000000000000000 [Eh]
	 Same-Spin Energy          =      -0.4175947901679283 [Eh]
	 Opposite-Spin Energy      =      -1.2952803907935482 [Eh]
	 Correlation Energy        =      -1.7128751809614764 [Eh]
	 Total Energy              =    -419.8987545811945665 [Eh]

	 ================> DF-SCS-MP2 Energies <==================
	-----------------------------------------------------------
	 SCS Same-Spin Scale       =       0.3333333333333333 [-]
	 SCS Opposite-Spin Scale   =       1.2000000000000000 [-]
	 SCS Same-Spin Energy      =      -0.1391982633893094 [Eh]
	 SCS Opposite-Spin Energy  =      -1.5543364689522579 [Eh]
	 SCS Correlation Energy    =      -1.6935347323415673 [Eh]
	 SCS Total Energy          =    -419.8794141325746523 [Eh]
	-----------------------------------------------------------

  Dipole Moment: [D]
     X:     9.8582      Y:     3.6013      Z:     0.6321     Total:    10.5144

*** Psi4 exiting successfully. Buy a developer a beer!
