                               Psi4 1.3.2 release

  ==> Input File <==

--------------------------------------------------------------------------
#psi4
#
memory 32 gb

molecule  {
-1 1
  O        0.5418477    -1.1701779    -0.3768646
  O       -2.2370500    -0.5589400     1.0879600
  O       -2.5032960     0.1554020    -1.0563790
  C        1.9927080     0.6815170     0.1510220
  C        0.6435570     0.0091630    -0.0366810
  C       -0.5931676     0.8609299     0.1622105
  C        3.1729130    -0.2631210    -0.0329300
  C       -1.9010600     0.0931950     0.0560670
  H        2.0429660     1.5133360    -0.5640360
  H        2.0060190     1.1470430     1.1438410
  H       -0.4967450     1.3515110     1.1569670
  H       -0.5352790     1.6874700    -0.5756840
  H        3.1399490    -1.0742180     0.6982180
  H        3.1613950    -0.7098910    -1.0291440
  H        4.1160350     0.2752530     0.0934100
units angstrom
no_reorient  #important for SAPT in psi4, default
symmetry c1  #important for SAPT in psi4, default
}

set PROPERTIES_ORIGIN ["COM"]
properties('MP2/aug-cc-pvtz', properties = ['dipole'])
--------------------------------------------------------------------------

    Molecular point group: c1
  Charge       = -1
  Multiplicity = 1
  Basis Set: AUG-CC-PVTZ
    Blend: AUG-CC-PVTZ
  Basis Set: (AUG-CC-PVTZ AUX)
    Blend: AUG-CC-PVTZ-JKFIT

    Orbital Energies [Eh]
    ---------------------

    Doubly Occupied:

       1A    -20.409448     2A    -20.295423     3A    -20.293580
       4A    -11.199968     5A    -11.143863     6A    -11.132246
       7A    -11.122169     8A    -11.083941     9A     -1.239285
      10A     -1.163804    11A     -1.063370    12A     -0.950855
      13A     -0.867553    14A     -0.768624    15A     -0.613536
      16A     -0.540759    17A     -0.529955    18A     -0.526905
      19A     -0.469763    20A     -0.451653    21A     -0.440440
      22A     -0.412774    23A     -0.408564    24A     -0.403992
      25A     -0.375598    26A     -0.344344    27A     -0.334188
      28A     -0.279298    29A     -0.209415    30A     -0.208721
      31A     -0.191555

  @DF-RHF Final Energy:  -418.19415895550810

   => Energetics <=

    Nuclear Repulsion Energy =            357.1025513927698398
    One-Electron Energy =               -1291.6422335957204268
    Two-Electron Energy =                 516.3455232474425429
    Total Energy =                       -418.1941589555081009
  Basis Set: (AUG-CC-PVTZ AUX)
    Blend: AUG-CC-PVTZ-RI
    Molecular point group: c1

    Geometry (in Angstrom), charge = -1, multiplicity = 1:

       Center              X                  Y                   Z               Mass
    ------------   -----------------  -----------------  -----------------  -----------------
         O            0.662117264803    -1.132208775460    -0.368209133350    15.994914619570
         O           -2.116780435197    -0.520970875460     1.096615466650    15.994914619570
         O           -2.383026435197     0.193371124540    -1.047723533350    15.994914619570
         C            2.112977564803     0.719486124540     0.159677466650    12.000000000000
         C            0.763826564803     0.047132124540    -0.028025533350    12.000000000000
         C           -0.472898035197     0.898899024540     0.170865966650    12.000000000000
         C            3.293182564803    -0.225151875460    -0.024274533350    12.000000000000
         C           -1.780790435197     0.131164124540     0.064722466650    12.000000000000
         H            2.163235564803     1.551305124540    -0.555380533350     1.007825032230
         H            2.126288564803     1.185012124540     1.152496466650     1.007825032230
         H           -0.376475435197     1.389480124540     1.165622466650     1.007825032230
         H           -0.415009435197     1.725439124540    -0.567028533350     1.007825032230
         H            3.260218564803    -1.036248875460     0.706873466650     1.007825032230
         H            3.281664564803    -0.671921875460    -1.020488533350     1.007825032230
         H            4.236304564803     0.313222124540     0.102065466650     1.007825032230

  Basis Set: AUG-CC-PVTZ
    Blend: AUG-CC-PVTZ
  Basis Set: (AUG-CC-PVTZ AUX)
    Blend: AUG-CC-PVTZ-JKFIT
	 Reference Energy          =    -418.1941589555081009 [Eh]
	 Singles Energy            =      -0.0000000000000000 [Eh]
	 Same-Spin Energy          =      -0.4162928170875139 [Eh]
	 Opposite-Spin Energy      =      -1.2927450047095452 [Eh]
	 Correlation Energy        =      -1.7090378217970592 [Eh]
	 Total Energy              =    -419.9031967773051406 [Eh]

	 ================> DF-SCS-MP2 Energies <==================
	-----------------------------------------------------------
	 SCS Same-Spin Scale       =       0.3333333333333333 [-]
	 SCS Opposite-Spin Scale   =       1.2000000000000000 [-]
	 SCS Same-Spin Energy      =      -0.1387642723625046 [Eh]
	 SCS Opposite-Spin Energy  =      -1.5512940056514541 [Eh]
	 SCS Correlation Energy    =      -1.6900582780139588 [Eh]
	 SCS Total Energy          =    -419.8842172335220653 [Eh]
	-----------------------------------------------------------

  Dipole Moment: [D]
     X:    10.0824      Y:     3.4553      Z:     0.6284     Total:    10.6766

*** Psi4 exiting successfully. Buy a developer a beer!
