                               Psi4 1.3.2 release

  ==> Input File <==

--------------------------------------------------------------------------
#psi4
#
memory 32 gb

molecule  {
-1 1
  O        0.5632720    -1.1719080    -0.3765930
  O       -2.2459863    -0.5626653     1.0826368
  O       -2.5110914     0.1486035    -1.0524841
  C        1.9927080     0.6815170     0.1510220
  C        0.6435570     0.0091630    -0.0366810
  C       -0.5777410     0.8814240     0.1686100
  C        3.1729130    -0.2631210    -0.0329300
  C       -1.9010600     0.0931950     0.0560670
  H        2.0429660     1.5133360    -0.5640360
  H        2.0060190     1.1470430     1.1438410
  H       -0.4967450     1.3515110     1.1569670
  H       -0.5352790     1.6874700    -0.5756840
  H        3.1399490    -1.0742180     0.6982180
  H        3.1613950    -0.7098910    -1.0291440
  H        4.1160350     0.2752530     0.0934100
units angstrom
no_reorient  #important for SAPT in psi4, default
symmetry c1  #important for SAPT in psi4, default
}

set PROPERTIES_ORIGIN ["COM"]
properties('MP2/aug-cc-pvtz', properties = ['dipole'])
--------------------------------------------------------------------------

    Molecular point group: c1
  Charge       = -1
  Multiplicity = 1
  Basis Set: AUG-CC-PVTZ
    Blend: AUG-CC-PVTZ
  Basis Set: (AUG-CC-PVTZ AUX)
    Blend: AUG-CC-PVTZ-JKFIT

    Orbital Energies [Eh]
    ---------------------

    Doubly Occupied:

       1A    -20.410702     2A    -20.295453     3A    -20.293653
       4A    -11.200621     5A    -11.145666     6A    -11.130706
       7A    -11.121187     8A    -11.084128     9A     -1.239957
      10A     -1.163700    11A     -1.062058    12A     -0.950279
      13A     -0.868947    14A     -0.767434    15A     -0.612222
      16A     -0.538419    17A     -0.530493    18A     -0.526741
      19A     -0.471419    20A     -0.455235    21A     -0.439631
      22A     -0.410990    23A     -0.408180    24A     -0.403376
      25A     -0.376656    26A     -0.347134    27A     -0.335620
      28A     -0.280833    29A     -0.208644    30A     -0.207844
      31A     -0.191219

  @DF-RHF Final Energy:  -418.19526951980004

   => Energetics <=

    Nuclear Repulsion Energy =            356.6051240037164121
    One-Electron Energy =               -1290.6424910794814878
    Two-Electron Energy =                 515.8420975559650969
    Total Energy =                       -418.1952695198000356
  Basis Set: (AUG-CC-PVTZ AUX)
    Blend: AUG-CC-PVTZ-RI
    Molecular point group: c1

    Geometry (in Angstrom), charge = -1, multiplicity = 1:

       Center              X                  Y                   Z               Mass
    ------------   -----------------  -----------------  -----------------  -----------------
         O            0.681279933857    -1.134372892537    -0.368444252108    15.994914619570
         O           -2.127978366143    -0.525130192537     1.090785547892    15.994914619570
         O           -2.393083466143     0.186138607463    -1.044335352108    15.994914619570
         C            2.110715933857     0.719052107463     0.159170747892    12.000000000000
         C            0.761564933857     0.046698107463    -0.028532252108    12.000000000000
         C           -0.459733066143     0.918959107463     0.176758747892    12.000000000000
         C            3.290920933857    -0.225585892537    -0.024781252108    12.000000000000
         C           -1.783052066143     0.130730107463     0.064215747892    12.000000000000
         H            2.160973933857     1.550871107463    -0.555887252108     1.007825032230
         H            2.124026933857     1.184578107463     1.151989747892     1.007825032230
         H           -0.378737066143     1.389046107463     1.165115747892     1.007825032230
         H           -0.417271066143     1.725005107463    -0.567535252108     1.007825032230
         H            3.257956933857    -1.036682892537     0.706366747892     1.007825032230
         H            3.279402933857    -0.672355892537    -1.020995252108     1.007825032230
         H            4.234042933857     0.312788107463     0.101558747892     1.007825032230

  Basis Set: AUG-CC-PVTZ
    Blend: AUG-CC-PVTZ
  Basis Set: (AUG-CC-PVTZ AUX)
    Blend: AUG-CC-PVTZ-JKFIT
	 Reference Energy          =    -418.1952695198000356 [Eh]
	 Singles Energy            =      -0.0000000000000000 [Eh]
	 Same-Spin Energy          =      -0.4161729986673714 [Eh]
	 Opposite-Spin Energy      =      -1.2925176809657288 [Eh]
	 Correlation Energy        =      -1.7086906796331003 [Eh]
	 Total Energy              =    -419.9039601994331292 [Eh]

	 ================> DF-SCS-MP2 Energies <==================
	-----------------------------------------------------------
	 SCS Same-Spin Scale       =       0.3333333333333333 [-]
	 SCS Opposite-Spin Scale   =       1.2000000000000000 [-]
	 SCS Same-Spin Energy      =      -0.1387243328891238 [Eh]
	 SCS Opposite-Spin Energy  =      -1.5510212171588746 [Eh]
	 SCS Correlation Energy    =      -1.6897455500479985 [Eh]
	 SCS Total Energy          =    -419.8850150698480093 [Eh]
	-----------------------------------------------------------

  Dipole Moment: [D]
     X:    10.0488      Y:     3.4850      Z:     0.6357     Total:    10.6549

*** Psi4 exiting successfully. Buy a developer a beer!
