                               Psi4 1.3.2 release

  ==> Input File <==

--------------------------------------------------------------------------
#psi4
#
memory 32 gb

molecule  {
-1 1
  O        0.5632720    -1.1719080    -0.3765930
  O       -2.2370500    -0.5589400     1.0879600
  O       -2.5032960     0.1554020    -1.0563790
  C        1.9927080     0.6815170     0.1510220
  C        0.6435570     0.0091630    -0.0366810
  C       -0.7389921     0.9965908     0.1957151
  C        3.1729130    -0.2631210    -0.0329300
  C       -1.9010600     0.0931950     0.0560670
  H        2.0429660     1.5133360    -0.5640360
  H        2.0060190     1.1470430     1.1438410
  H       -0.4967450     1.3515110     1.1569670
  H       -0.5352790     1.6874700    -0.5756840
  H        3.1399490    -1.0742180     0.6982180
  H        3.1613950    -0.7098910    -1.0291440
  H        4.1160350     0.2752530     0.0934100
units angstrom
no_reorient  #important for SAPT in psi4, default
symmetry c1  #important for SAPT in psi4, default
}

set PROPERTIES_ORIGIN ["COM"]
properties('MP2/aug-cc-pvtz', properties = ['dipole'])
--------------------------------------------------------------------------

    Molecular point group: c1
  Charge       = -1
  Multiplicity = 1
  Basis Set: AUG-CC-PVTZ
    Blend: AUG-CC-PVTZ
  Basis Set: (AUG-CC-PVTZ AUX)
    Blend: AUG-CC-PVTZ-JKFIT

    Orbital Energies [Eh]
    ---------------------

    Doubly Occupied:

       1A    -20.414092     2A    -20.293086     3A    -20.292363
       4A    -11.206302     5A    -11.140623     6A    -11.133544
       7A    -11.122688     8A    -11.085819     9A     -1.238485
      10A     -1.164331    11A     -1.062624    12A     -0.948413
      13A     -0.853281    14A     -0.772830    15A     -0.607016
      16A     -0.550522    17A     -0.526768    18A     -0.519032
      19A     -0.467065    20A     -0.465141    21A     -0.436524
      22A     -0.420184    23A     -0.407347    24A     -0.405160
      25A     -0.377249    26A     -0.355304    27A     -0.334810
      28A     -0.253483    29A     -0.210223    30A     -0.208056
      31A     -0.190555

  @DF-RHF Final Energy:  -418.16945502976921

   => Energetics <=

    Nuclear Repulsion Energy =            354.9570494455880976
    One-Electron Energy =               -1287.3271670979263490
    Two-Electron Energy =                 514.2006626225689843
    Total Energy =                       -418.1694550297692103
  Basis Set: (AUG-CC-PVTZ AUX)
    Blend: AUG-CC-PVTZ-RI
    Molecular point group: c1

    Geometry (in Angstrom), charge = -1, multiplicity = 1:

       Center              X                  Y                   Z               Mass
    ------------   -----------------  -----------------  -----------------  -----------------
         O            0.695774005984    -1.147849382136    -0.371470227350    15.994914619570
         O           -2.104547994016    -0.534881382136     1.093082772650    15.994914619570
         O           -2.370793994016     0.179460617864    -1.051256227350    15.994914619570
         C            2.125210005984     0.705575617864     0.156144772650    12.000000000000
         C            0.776059005984     0.033221617864    -0.031558227350    12.000000000000
         C           -0.606490094016     1.020649417864     0.200837872650    12.000000000000
         C            3.305415005984    -0.239062382136    -0.027807227350    12.000000000000
         C           -1.768557994016     0.117253617864     0.061189772650    12.000000000000
         H            2.175468005984     1.537394617864    -0.558913227350     1.007825032230
         H            2.138521005984     1.171101617864     1.148963772650     1.007825032230
         H           -0.364242994016     1.375569617864     1.162089772650     1.007825032230
         H           -0.402776994016     1.711528617864    -0.570561227350     1.007825032230
         H            3.272451005984    -1.050159382136     0.703340772650     1.007825032230
         H            3.293897005984    -0.685832382136    -1.024021227350     1.007825032230
         H            4.248537005984     0.299311617864     0.098532772650     1.007825032230

  Basis Set: AUG-CC-PVTZ
    Blend: AUG-CC-PVTZ
  Basis Set: (AUG-CC-PVTZ AUX)
    Blend: AUG-CC-PVTZ-JKFIT
	 Reference Energy          =    -418.1694550297692103 [Eh]
	 Singles Energy            =      -0.0000000000000000 [Eh]
	 Same-Spin Energy          =      -0.4168497141228342 [Eh]
	 Opposite-Spin Energy      =      -1.2946421268606030 [Eh]
	 Correlation Energy        =      -1.7114918409834372 [Eh]
	 Total Energy              =    -419.8809468707526662 [Eh]

	 ================> DF-SCS-MP2 Energies <==================
	-----------------------------------------------------------
	 SCS Same-Spin Scale       =       0.3333333333333333 [-]
	 SCS Opposite-Spin Scale   =       1.2000000000000000 [-]
	 SCS Same-Spin Energy      =      -0.1389499047076114 [Eh]
	 SCS Opposite-Spin Energy  =      -1.5535705522327234 [Eh]
	 SCS Correlation Energy    =      -1.6925204569403349 [Eh]
	 SCS Total Energy          =    -419.8619754867095253 [Eh]
	-----------------------------------------------------------

  Dipole Moment: [D]
     X:    10.2920      Y:     3.4476      Z:     0.6326     Total:    10.8725

*** Psi4 exiting successfully. Buy a developer a beer!
