                               Psi4 1.3.2 release

  ==> Input File <==

--------------------------------------------------------------------------
#psi4
#
memory 32 gb

molecule  {
-1 1
  O        0.5632720    -1.1719080    -0.3765930
  O       -2.2370500    -0.5589400     1.0879600
  O       -2.5191269     0.1422438    -1.0483249
  C        1.9927080     0.6815170     0.1510220
  C        0.6435570     0.0091630    -0.0366810
  C       -0.5751406     0.8729624     0.1940693
  C        3.1729130    -0.2631210    -0.0329300
  C       -1.9010600     0.0931950     0.0560670
  H        2.0429660     1.5133360    -0.5640360
  H        2.0060190     1.1470430     1.1438410
  H       -0.4967450     1.3515110     1.1569670
  H       -0.5352790     1.6874700    -0.5756840
  H        3.1399490    -1.0742180     0.6982180
  H        3.1613950    -0.7098910    -1.0291440
  H        4.1160350     0.2752530     0.0934100
units angstrom
no_reorient  #important for SAPT in psi4, default
symmetry c1  #important for SAPT in psi4, default
}

set PROPERTIES_ORIGIN ["COM"]
properties('MP2/aug-cc-pvtz', properties = ['dipole'])
--------------------------------------------------------------------------

    Molecular point group: c1
  Charge       = -1
  Multiplicity = 1
  Basis Set: AUG-CC-PVTZ
    Blend: AUG-CC-PVTZ
  Basis Set: (AUG-CC-PVTZ AUX)
    Blend: AUG-CC-PVTZ-JKFIT

    Orbital Energies [Eh]
    ---------------------

    Doubly Occupied:

       1A    -20.410534     2A    -20.296428     3A    -20.292900
       4A    -11.200537     5A    -11.145786     6A    -11.130631
       7A    -11.121151     8A    -11.084442     9A     -1.239928
      10A     -1.163834    11A     -1.062210    12A     -0.950330
      13A     -0.869351    14A     -0.767353    15A     -0.612465
      16A     -0.538726    17A     -0.531084    18A     -0.526539
      19A     -0.471902    20A     -0.454206    21A     -0.439771
      22A     -0.411084    23A     -0.408350    24A     -0.403228
      25A     -0.376423    26A     -0.345761    27A     -0.336365
      28A     -0.281100    29A     -0.209739    30A     -0.206751
      31A     -0.191297

  @DF-RHF Final Energy:  -418.19441202240387

   => Energetics <=

    Nuclear Repulsion Energy =            356.6678611984174836
    One-Electron Energy =               -1290.7641379903802772
    Two-Electron Energy =                 515.9018647695588697
    Total Energy =                       -418.1944120224038670
  Basis Set: (AUG-CC-PVTZ AUX)
    Blend: AUG-CC-PVTZ-RI
    Molecular point group: c1

    Geometry (in Angstrom), charge = -1, multiplicity = 1:

       Center              X                  Y                   Z               Mass
    ------------   -----------------  -----------------  -----------------  -----------------
         O            0.680883435163    -1.133123963436    -0.372418380147    15.994914619570
         O           -2.119438564837    -0.520155963436     1.092134619853    15.994914619570
         O           -2.401515464837     0.181027836564    -1.044150280147    15.994914619570
         C            2.110319435163     0.720301036564     0.155196619853    12.000000000000
         C            0.761168435163     0.047947036564    -0.032506380147    12.000000000000
         C           -0.457529164837     0.911746436564     0.198243919853    12.000000000000
         C            3.290524435163    -0.224336963436    -0.028755380147    12.000000000000
         C           -1.783448564837     0.131979036564     0.060241619853    12.000000000000
         H            2.160577435163     1.552120036564    -0.559861380147     1.007825032230
         H            2.123630435163     1.185827036564     1.148015619853     1.007825032230
         H           -0.379133564837     1.390295036564     1.161141619853     1.007825032230
         H           -0.417667564837     1.726254036564    -0.571509380147     1.007825032230
         H            3.257560435163    -1.035433963436     0.702392619853     1.007825032230
         H            3.279006435163    -0.671106963436    -1.024969380147     1.007825032230
         H            4.233646435163     0.314037036564     0.097584619853     1.007825032230

  Basis Set: AUG-CC-PVTZ
    Blend: AUG-CC-PVTZ
  Basis Set: (AUG-CC-PVTZ AUX)
    Blend: AUG-CC-PVTZ-JKFIT
	 Reference Energy          =    -418.1944120224038670 [Eh]
	 Singles Energy            =      -0.0000000000000000 [Eh]
	 Same-Spin Energy          =      -0.4162282802324431 [Eh]
	 Opposite-Spin Energy      =      -1.2926033781504920 [Eh]
	 Correlation Energy        =      -1.7088316583829350 [Eh]
	 Total Energy              =    -419.9032436807868294 [Eh]

	 ================> DF-SCS-MP2 Energies <==================
	-----------------------------------------------------------
	 SCS Same-Spin Scale       =       0.3333333333333333 [-]
	 SCS Opposite-Spin Scale   =       1.2000000000000000 [-]
	 SCS Same-Spin Energy      =      -0.1387427600774810 [Eh]
	 SCS Opposite-Spin Energy  =      -1.5511240537805904 [Eh]
	 SCS Correlation Energy    =      -1.6898668138580715 [Eh]
	 SCS Total Energy          =    -419.8842788362619558 [Eh]
	-----------------------------------------------------------

  Dipole Moment: [D]
     X:    10.0353      Y:     3.4833      Z:     0.6524     Total:    10.6426

*** Psi4 exiting successfully. Buy a developer a beer!
