                               Psi4 1.3.2 release

  ==> Input File <==

--------------------------------------------------------------------------
#psi4
#
memory 32 gb

molecule  {
-1 1
  O        0.5632720    -1.1719080    -0.3765930
  O       -2.2370500    -0.5589400     1.0879600
  O       -2.5112347     0.1488250    -1.0523942
  C        1.9927080     0.6815170     0.1510220
  C        0.6435570     0.0091630    -0.0366810
  C       -0.5763904     0.8772231     0.1813444
  C        3.1729130    -0.2631210    -0.0329300
  C       -1.9010600     0.0931950     0.0560670
  H        2.0429660     1.5133360    -0.5640360
  H        2.0060190     1.1470430     1.1438410
  H       -0.4967450     1.3515110     1.1569670
  H       -0.5352790     1.6874700    -0.5756840
  H        3.1399490    -1.0742180     0.6982180
  H        3.1613950    -0.7098910    -1.0291440
  H        4.1160350     0.2752530     0.0934100
units angstrom
no_reorient  #important for SAPT in psi4, default
symmetry c1  #important for SAPT in psi4, default
}

set PROPERTIES_ORIGIN ["COM"]
properties('MP2/aug-cc-pvtz', properties = ['dipole'])
--------------------------------------------------------------------------

    Molecular point group: c1
  Charge       = -1
  Multiplicity = 1
  Basis Set: AUG-CC-PVTZ
    Blend: AUG-CC-PVTZ
  Basis Set: (AUG-CC-PVTZ AUX)
    Blend: AUG-CC-PVTZ-JKFIT

    Orbital Energies [Eh]
    ---------------------

    Doubly Occupied:

       1A    -20.410362     2A    -20.296441     3A    -20.293775
       4A    -11.200283     5A    -11.145969     6A    -11.130446
       7A    -11.121010     8A    -11.083625     9A     -1.239703
      10A     -1.163844    11A     -1.063088    12A     -0.950085
      13A     -0.868721    14A     -0.767127    15A     -0.612084
      16A     -0.538405    17A     -0.530460    18A     -0.526483
      19A     -0.471378    20A     -0.454612    21A     -0.439643
      22A     -0.410911    23A     -0.408069    24A     -0.403321
      25A     -0.376833    26A     -0.346318    27A     -0.336176
      28A     -0.280715    29A     -0.209739    30A     -0.207233
      31A     -0.191892

  @DF-RHF Final Energy:  -418.19522138999696

   => Energetics <=

    Nuclear Repulsion Energy =            356.6892370309624312
    One-Electron Energy =               -1290.8114155929324625
    Two-Electron Energy =                 515.9269571719730720
    Total Energy =                       -418.1952213899969593
  Basis Set: (AUG-CC-PVTZ AUX)
    Blend: AUG-CC-PVTZ-RI
    Molecular point group: c1

    Geometry (in Angstrom), charge = -1, multiplicity = 1:

       Center              X                  Y                   Z               Mass
    ------------   -----------------  -----------------  -----------------  -----------------
         O            0.679916485144    -1.134483445233    -0.370525231534    15.994914619570
         O           -2.120405514856    -0.521515445233     1.094027768466    15.994914619570
         O           -2.394590214856     0.186249554767    -1.046326431534    15.994914619570
         C            2.109352485144     0.718941554767     0.157089768466    12.000000000000
         C            0.760201485144     0.046587554767    -0.030613231534    12.000000000000
         C           -0.459745914856     0.914647654767     0.187412168466    12.000000000000
         C            3.289557485144    -0.225696445233    -0.026862231534    12.000000000000
         C           -1.784415514856     0.130619554767     0.062134768466    12.000000000000
         H            2.159610485144     1.550760554767    -0.557968231534     1.007825032230
         H            2.122663485144     1.184467554767     1.149908768466     1.007825032230
         H           -0.380100514856     1.388935554767     1.163034768466     1.007825032230
         H           -0.418634514856     1.724894554767    -0.569616231534     1.007825032230
         H            3.256593485144    -1.036793445233     0.704285768466     1.007825032230
         H            3.278039485144    -0.672466445233    -1.023076231534     1.007825032230
         H            4.232679485144     0.312677554767     0.099477768466     1.007825032230

  Basis Set: AUG-CC-PVTZ
    Blend: AUG-CC-PVTZ
  Basis Set: (AUG-CC-PVTZ AUX)
    Blend: AUG-CC-PVTZ-JKFIT
	 Reference Energy          =    -418.1952213899969593 [Eh]
	 Singles Energy            =      -0.0000000000000000 [Eh]
	 Same-Spin Energy          =      -0.4162050179506822 [Eh]
	 Opposite-Spin Energy      =      -1.2925558242608184 [Eh]
	 Correlation Energy        =      -1.7087608422115006 [Eh]
	 Total Energy              =    -419.9039822322084774 [Eh]

	 ================> DF-SCS-MP2 Energies <==================
	-----------------------------------------------------------
	 SCS Same-Spin Scale       =       0.3333333333333333 [-]
	 SCS Opposite-Spin Scale   =       1.2000000000000000 [-]
	 SCS Same-Spin Energy      =      -0.1387350059835607 [Eh]
	 SCS Opposite-Spin Energy  =      -1.5510669891129820 [Eh]
	 SCS Correlation Energy    =      -1.6898019950965426 [Eh]
	 SCS Total Energy          =    -419.8850233850935183 [Eh]
	-----------------------------------------------------------

  Dipole Moment: [D]
     X:    10.0135      Y:     3.4717      Z:     0.6429     Total:    10.6178

*** Psi4 exiting successfully. Buy a developer a beer!
