                               Psi4 1.4a3.dev225

  ==> Input File <==

--------------------------------------------------------------------------
#psi4
#
memory 32 gb

molecule  {
-1 1
  O        1.0745520     1.3418620    -0.8745480
  O       -1.1230780    -1.1034960    -0.8170800
  O       -2.9206860    -0.1812610     0.2330210
  C        1.4738630    -0.3704550     0.7611780
  C        0.6286860     0.6706690     0.0605170
  C       -0.7610675     0.8375141     0.5468371
  C        2.7202340    -0.7612590    -0.0182770
  C       -1.7002430    -0.2566580    -0.0711330
  H        1.7414500     0.0432240     1.7443780
  H        0.8355880    -1.2371210     0.9565080
  H       -0.8294850     0.7587360     1.6458800
  H       -1.1523820     1.8284630     0.2671350
  H        2.4446610    -1.1885100    -0.9860420
  H        3.3521650     0.1095510    -0.2043800
  H        3.3054110    -1.5035610     0.5312540
units angstrom
no_reorient  #important for SAPT in psi4, default
symmetry c1  #important for SAPT in psi4, default
}

set PROPERTIES_ORIGIN ["COM"]
properties('MP2/aug-cc-pvtz', properties = ['dipole'])
--------------------------------------------------------------------------

    Molecular point group: c1
  Charge       = -1
  Multiplicity = 1
  Basis Set: AUG-CC-PVTZ
    Blend: AUG-CC-PVTZ
  Basis Set: (AUG-CC-PVTZ AUX)
    Blend: AUG-CC-PVTZ-JKFIT

    Orbital Energies [Eh]
    ---------------------

    Doubly Occupied:

       1A    -20.399942     2A    -20.313807     3A    -20.312469
       4A    -11.188907     5A    -11.165672     6A    -11.107756
       7A    -11.102142     8A    -11.080697     9A     -1.230775
      10A     -1.183368    11A     -1.084781    12A     -0.933176
      13A     -0.864857    14A     -0.751835    15A     -0.602836
      16A     -0.546408    17A     -0.513955    18A     -0.504365
      19A     -0.481625    20A     -0.449374    21A     -0.440209
      22A     -0.408083    23A     -0.397841    24A     -0.390752
      25A     -0.378461    26A     -0.348337    27A     -0.336578
      28A     -0.277738    29A     -0.229603    30A     -0.216942
      31A     -0.212113

  @DF-RHF Final Energy:  -418.20884683413851

   => Energetics <=

    Nuclear Repulsion Energy =            362.7753282728010049
    One-Electron Energy =               -1303.0575366583962023
    Two-Electron Energy =                 522.0733615514566281
    Total Energy =                       -418.2088468341385123
  Basis Set: (AUG-CC-PVTZ AUX)
    Blend: AUG-CC-PVTZ-RI
    Molecular point group: c1

    Geometry (in Angstrom), charge = -1, multiplicity = 1:

       Center              X                  Y                   Z               Mass
    ------------   -----------------  -----------------  -----------------  -----------------
         O            1.156100775342     1.331842841894    -0.839819496725    15.994914619570
         O           -1.041529224658    -1.113515158106    -0.782351496725    15.994914619570
         O           -2.839137224658    -0.191280158106     0.267749503275    15.994914619570
         C            1.555411775342    -0.380474158106     0.795906503275    12.000000000000
         C            0.710234775342     0.660649841894     0.095245503275    12.000000000000
         C           -0.679518724658     0.827494941894     0.581565603275    12.000000000000
         C            2.801782775342    -0.771278158106     0.016451503275    12.000000000000
         C           -1.618694224658    -0.266677158106    -0.036404496725    12.000000000000
         H            1.822998775342     0.033204841894     1.779106503275     1.007825032230
         H            0.917136775342    -1.247140158106     0.991236503275     1.007825032230
         H           -0.747936224658     0.748716841894     1.680608503275     1.007825032230
         H           -1.070833224658     1.818443841894     0.301863503275     1.007825032230
         H            2.526209775342    -1.198529158106    -0.951313496725     1.007825032230
         H            3.433713775342     0.099531841894    -0.169651496725     1.007825032230
         H            3.386959775342    -1.513580158106     0.565982503275     1.007825032230

  Basis Set: AUG-CC-PVTZ
    Blend: AUG-CC-PVTZ
  Basis Set: (AUG-CC-PVTZ AUX)
    Blend: AUG-CC-PVTZ-JKFIT
	 Reference Energy          =    -418.2088468341385123 [Eh]
	 Singles Energy            =      -0.0000000000000000 [Eh]
	 Same-Spin Energy          =      -0.4169226869242068 [Eh]
	 Opposite-Spin Energy      =      -1.2924307710302636 [Eh]
	 Correlation Energy        =      -1.7093534579544705 [Eh]
	 Total Energy              =    -419.9182002920929904 [Eh]

	 ================> DF-SCS-MP2 Energies <==================
	-----------------------------------------------------------
	 SCS Same-Spin Scale       =       0.3333333333333333 [-]
	 SCS Opposite-Spin Scale   =       1.2000000000000000 [-]
	 SCS Same-Spin Energy      =      -0.1389742289747356 [Eh]
	 SCS Opposite-Spin Energy  =      -1.5509169252363162 [Eh]
	 SCS Correlation Energy    =      -1.6898911542110517 [Eh]
	 SCS Total Energy          =    -419.8987379883495805 [Eh]
	-----------------------------------------------------------

  Dipole Moment: [D]
     X:     6.6980      Y:     1.2404      Z:     3.1889     Total:     7.5214

*** Psi4 exiting successfully. Buy a developer a beer!
