                               Psi4 1.4a3.dev225

  ==> Input File <==

--------------------------------------------------------------------------
#psi4
#
memory 32 gb

molecule  {
-1 1
  O        1.0745520     1.3418620    -0.8745480
  O       -1.1230780    -1.1034960    -0.8170800
  O       -2.9206860    -0.1812610     0.2330210
  C        1.4738630    -0.3704550     0.7611780
  C        0.6286860     0.6706690     0.0605170
  C       -0.7798250     0.8397660     0.5534010
  C        2.7202340    -0.7612590    -0.0182770
  C       -1.7230099    -0.2232536    -0.0417083
  H        1.7414500     0.0432240     1.7443780
  H        0.8355880    -1.2371210     0.9565080
  H       -0.8294850     0.7587360     1.6458800
  H       -1.1523820     1.8284630     0.2671350
  H        2.4446610    -1.1885100    -0.9860420
  H        3.3521650     0.1095510    -0.2043800
  H        3.3054110    -1.5035610     0.5312540
units angstrom
no_reorient  #important for SAPT in psi4, default
symmetry c1  #important for SAPT in psi4, default
}

set PROPERTIES_ORIGIN ["COM"]
properties('MP2/aug-cc-pvtz', properties = ['dipole'])
--------------------------------------------------------------------------

    Molecular point group: c1
  Charge       = -1
  Multiplicity = 1
  Basis Set: AUG-CC-PVTZ
    Blend: AUG-CC-PVTZ
  Basis Set: (AUG-CC-PVTZ AUX)
    Blend: AUG-CC-PVTZ-JKFIT

    Orbital Energies [Eh]
    ---------------------

    Doubly Occupied:

       1A    -20.400362     2A    -20.320764     3A    -20.302436
       4A    -11.190970     5A    -11.163955     6A    -11.106938
       7A    -11.101187     8A    -11.083154     9A     -1.230431
      10A     -1.186985    11A     -1.069856    12A     -0.931780
      13A     -0.866266    14A     -0.753281    15A     -0.604816
      16A     -0.548237    17A     -0.513040    18A     -0.503464
      19A     -0.480808    20A     -0.451202    21A     -0.442707
      22A     -0.405247    23A     -0.398012    24A     -0.390117
      25A     -0.377383    26A     -0.347937    27A     -0.336183
      28A     -0.275877    29A     -0.223377    30A     -0.219776
      31A     -0.207238

  @DF-RHF Final Energy:  -418.20442083655621

   => Energetics <=

    Nuclear Repulsion Energy =            362.4023256734021174
    One-Electron Energy =               -1302.3459173265548543
    Two-Electron Energy =                 521.7391708165964701
    Total Energy =                       -418.2044208365562099
  Basis Set: (AUG-CC-PVTZ AUX)
    Blend: AUG-CC-PVTZ-RI
    Molecular point group: c1

    Geometry (in Angstrom), charge = -1, multiplicity = 1:

       Center              X                  Y                   Z               Mass
    ------------   -----------------  -----------------  -----------------  -----------------
         O            1.160432267719     1.328123462646    -0.843573538844    15.994914619570
         O           -1.037197732281    -1.117234537354    -0.786105538844    15.994914619570
         O           -2.834805732281    -0.194999537354     0.263995461156    15.994914619570
         C            1.559743267719    -0.384193537354     0.792152461156    12.000000000000
         C            0.714566267719     0.656930462646     0.091491461156    12.000000000000
         C           -0.693944732281     0.826027462646     0.584375461156    12.000000000000
         C            2.806114267719    -0.774997537354     0.012697461156    12.000000000000
         C           -1.637129632281    -0.236992137354    -0.010733838844    12.000000000000
         H            1.827330267719     0.029485462646     1.775352461156     1.007825032230
         H            0.921468267719    -1.250859537354     0.987482461156     1.007825032230
         H           -0.743604732281     0.744997462646     1.676854461156     1.007825032230
         H           -1.066501732281     1.814724462646     0.298109461156     1.007825032230
         H            2.530541267719    -1.202248537354    -0.955067538844     1.007825032230
         H            3.438045267719     0.095812462646    -0.173405538844     1.007825032230
         H            3.391291267719    -1.517299537354     0.562228461156     1.007825032230

  Basis Set: AUG-CC-PVTZ
    Blend: AUG-CC-PVTZ
  Basis Set: (AUG-CC-PVTZ AUX)
    Blend: AUG-CC-PVTZ-JKFIT
	 Reference Energy          =    -418.2044208365562099 [Eh]
	 Singles Energy            =      -0.0000000000000000 [Eh]
	 Same-Spin Energy          =      -0.4170328505345292 [Eh]
	 Opposite-Spin Energy      =      -1.2931021696886229 [Eh]
	 Correlation Energy        =      -1.7101350202231520 [Eh]
	 Total Energy              =    -419.9145558567793728 [Eh]

	 ================> DF-SCS-MP2 Energies <==================
	-----------------------------------------------------------
	 SCS Same-Spin Scale       =       0.3333333333333333 [-]
	 SCS Opposite-Spin Scale   =       1.2000000000000000 [-]
	 SCS Same-Spin Energy      =      -0.1390109501781764 [Eh]
	 SCS Opposite-Spin Energy  =      -1.5517226036263474 [Eh]
	 SCS Correlation Energy    =      -1.6907335538045238 [Eh]
	 SCS Total Energy          =    -419.8951543903607444 [Eh]
	-----------------------------------------------------------

  Dipole Moment: [D]
     X:     6.4396      Y:     1.5191      Z:     3.4337     Total:     7.4543

*** Psi4 exiting successfully. Buy a developer a beer!
