                               Psi4 1.3.2 release

  ==> Input File <==

--------------------------------------------------------------------------
#psi4
#
memory 32 gb

molecule  {
-1 1
  O        0.5632720    -1.1719080    -0.3765930
  O       -2.2370500    -0.5589400     1.0879600
  O       -2.5032960     0.1554020    -1.0563790
  C        2.0273794     0.6120320     0.1338630
  C        0.6435570     0.0091630    -0.0366810
  C       -0.6229548     0.8184073     0.1520623
  C        3.1729130    -0.2631210    -0.0329300
  C       -1.9010600     0.0931950     0.0560670
  H        2.0429660     1.5133360    -0.5640360
  H        2.0060190     1.1470430     1.1438410
  H       -0.4967450     1.3515110     1.1569670
  H       -0.5352790     1.6874700    -0.5756840
  H        3.1399490    -1.0742180     0.6982180
  H        3.1613950    -0.7098910    -1.0291440
  H        4.1160350     0.2752530     0.0934100
units angstrom
no_reorient  #important for SAPT in psi4, default
symmetry c1  #important for SAPT in psi4, default
}

set PROPERTIES_ORIGIN ["COM"]
properties('MP2/aug-cc-pvtz', properties = ['dipole'])
--------------------------------------------------------------------------

    Molecular point group: c1
  Charge       = -1
  Multiplicity = 1
  Basis Set: AUG-CC-PVTZ
    Blend: AUG-CC-PVTZ
  Basis Set: (AUG-CC-PVTZ AUX)
    Blend: AUG-CC-PVTZ-JKFIT

    Orbital Energies [Eh]
    ---------------------

    Doubly Occupied:

       1A    -20.405796     2A    -20.296129     3A    -20.294119
       4A    -11.200283     5A    -11.142187     6A    -11.137587
       7A    -11.120080     8A    -11.091589     9A     -1.239450
      10A     -1.166679    11A     -1.064854    12A     -0.960037
      13A     -0.871454    14A     -0.768347    15A     -0.613772
      16A     -0.550214    17A     -0.531140    18A     -0.523090
      19A     -0.471807    20A     -0.451021    21A     -0.448353
      22A     -0.427192    23A     -0.402333    24A     -0.397360
      25A     -0.363804    26A     -0.339721    27A     -0.331527
      28A     -0.277645    29A     -0.215066    30A     -0.209225
      31A     -0.192047

  @DF-RHF Final Energy:  -418.18011311811915

   => Energetics <=

    Nuclear Repulsion Energy =            358.0862853083199298
    One-Electron Energy =               -1293.5249820310878022
    Two-Electron Energy =                 517.2585836046487202
    Total Energy =                       -418.1801131181191522
  Basis Set: (AUG-CC-PVTZ AUX)
    Blend: AUG-CC-PVTZ-RI
    Molecular point group: c1

    Geometry (in Angstrom), charge = -1, multiplicity = 1:

       Center              X                  Y                   Z               Mass
    ------------   -----------------  -----------------  -----------------  -----------------
         O            0.680053283102    -1.122014590548    -0.365126828092    15.994914619570
         O           -2.120268716898    -0.509046590548     1.099426171908    15.994914619570
         O           -2.386514716898     0.205295409452    -1.044912828092    15.994914619570
         C            2.144160683102     0.661925409452     0.145329171908    12.000000000000
         C            0.760338283102     0.059056409452    -0.025214828092    12.000000000000
         C           -0.506173516898     0.868300709452     0.163528471908    12.000000000000
         C            3.289694283102    -0.213227590548    -0.021463828092    12.000000000000
         C           -1.784278716898     0.143088409452     0.067533171908    12.000000000000
         H            2.159747283102     1.563229409452    -0.552569828092     1.007825032230
         H            2.122800283102     1.196936409452     1.155307171908     1.007825032230
         H           -0.379963716898     1.401404409452     1.168433171908     1.007825032230
         H           -0.418497716898     1.737363409452    -0.564217828092     1.007825032230
         H            3.256730283102    -1.024324590548     0.709684171908     1.007825032230
         H            3.278176283102    -0.659997590548    -1.017677828092     1.007825032230
         H            4.232816283102     0.325146409452     0.104876171908     1.007825032230

  Basis Set: AUG-CC-PVTZ
    Blend: AUG-CC-PVTZ
  Basis Set: (AUG-CC-PVTZ AUX)
    Blend: AUG-CC-PVTZ-JKFIT
	 Reference Energy          =    -418.1801131181191522 [Eh]
	 Singles Energy            =      -0.0000000000000000 [Eh]
	 Same-Spin Energy          =      -0.4173367807474660 [Eh]
	 Opposite-Spin Energy      =      -1.2942559375136660 [Eh]
	 Correlation Energy        =      -1.7115927182611319 [Eh]
	 Total Energy              =    -419.8917058363803108 [Eh]

	 ================> DF-SCS-MP2 Energies <==================
	-----------------------------------------------------------
	 SCS Same-Spin Scale       =       0.3333333333333333 [-]
	 SCS Opposite-Spin Scale   =       1.2000000000000000 [-]
	 SCS Same-Spin Energy      =      -0.1391122602491553 [Eh]
	 SCS Opposite-Spin Energy  =      -1.5531071250163990 [Eh]
	 SCS Correlation Energy    =      -1.6922193852655543 [Eh]
	 SCS Total Energy          =    -419.8723325033847118 [Eh]
	-----------------------------------------------------------

  Dipole Moment: [D]
     X:    10.1138      Y:     3.3922      Z:     0.6106     Total:    10.6850

*** Psi4 exiting successfully. Buy a developer a beer!
