                               Psi4 1.3.2 release

  ==> Input File <==

--------------------------------------------------------------------------
#psi4
#
memory 32 gb

molecule  {
-1 1
  O        0.5632720    -1.1719080    -0.3765930
  O       -2.1829186    -0.5355554     1.1182352
  O       -2.4555815     0.1960755    -1.0779592
  C        1.9927080     0.6815170     0.1510220
  C        0.6435570     0.0091630    -0.0366810
  C       -0.5777410     0.8814240     0.1686100
  C        3.1729130    -0.2631210    -0.0329300
  C       -1.9010600     0.0931950     0.0560670
  H        2.0429660     1.5133360    -0.5640360
  H        2.0060190     1.1470430     1.1438410
  H       -0.4967450     1.3515110     1.1569670
  H       -0.5352790     1.6874700    -0.5756840
  H        3.1399490    -1.0742180     0.6982180
  H        3.1613950    -0.7098910    -1.0291440
  H        4.1160350     0.2752530     0.0934100
units angstrom
no_reorient  #important for SAPT in psi4, default
symmetry c1  #important for SAPT in psi4, default
}

set PROPERTIES_ORIGIN ["COM"]
properties('MP2/aug-cc-pvtz', properties = ['dipole'])
--------------------------------------------------------------------------

    Molecular point group: c1
  Charge       = -1
  Multiplicity = 1
  Basis Set: AUG-CC-PVTZ
    Blend: AUG-CC-PVTZ
  Basis Set: (AUG-CC-PVTZ AUX)
    Blend: AUG-CC-PVTZ-JKFIT

    Orbital Energies [Eh]
    ---------------------

    Doubly Occupied:

       1A    -20.407050     2A    -20.302289     3A    -20.300501
       4A    -11.196557     5A    -11.149351     6A    -11.127527
       7A    -11.118914     8A    -11.075112     9A     -1.236562
      10A     -1.165414    11A     -1.074963    12A     -0.947129
      13A     -0.862816    14A     -0.763671    15A     -0.608603
      16A     -0.537313    17A     -0.526950    18A     -0.523694
      19A     -0.469847    20A     -0.451621    21A     -0.438518
      22A     -0.409381    23A     -0.405488    24A     -0.404011
      25A     -0.379452    26A     -0.345248    27A     -0.337517
      28A     -0.276992    29A     -0.219917    30A     -0.201466
      31A     -0.199808

  @DF-RHF Final Energy:  -418.19433484018737

   => Energetics <=

    Nuclear Repulsion Energy =            357.4212580971815214
    One-Electron Energy =               -1292.3038249116373208
    Two-Electron Energy =                 516.6882319742684331
    Total Energy =                       -418.1943348401873664
  Basis Set: (AUG-CC-PVTZ AUX)
    Blend: AUG-CC-PVTZ-RI
    Molecular point group: c1

    Geometry (in Angstrom), charge = -1, multiplicity = 1:

       Center              X                  Y                   Z               Mass
    ------------   -----------------  -----------------  -----------------  -----------------
         O            0.664793090007    -1.144742643142    -0.369851779890    15.994914619570
         O           -2.081397509993    -0.508390043142     1.124976420110    15.994914619570
         O           -2.354060409993     0.223240856858    -1.071217979890    15.994914619570
         C            2.094229090007     0.708682356858     0.157763220110    12.000000000000
         C            0.745078090007     0.036328356858    -0.029939779890    12.000000000000
         C           -0.476219909993     0.908589356858     0.175351220110    12.000000000000
         C            3.274434090007    -0.235955643142    -0.026188779890    12.000000000000
         C           -1.799538909993     0.120360356858     0.062808220110    12.000000000000
         H            2.144487090007     1.540501356858    -0.557294779890     1.007825032230
         H            2.107540090007     1.174208356858     1.150582220110     1.007825032230
         H           -0.395223909993     1.378676356858     1.163708220110     1.007825032230
         H           -0.433757909993     1.714635356858    -0.568942779890     1.007825032230
         H            3.241470090007    -1.047052643142     0.704959220110     1.007825032230
         H            3.262916090007    -0.682725643142    -1.022402779890     1.007825032230
         H            4.217556090007     0.302418356858     0.100151220110     1.007825032230

  Basis Set: AUG-CC-PVTZ
    Blend: AUG-CC-PVTZ
  Basis Set: (AUG-CC-PVTZ AUX)
    Blend: AUG-CC-PVTZ-JKFIT
	 Reference Energy          =    -418.1943348401873664 [Eh]
	 Singles Energy            =      -0.0000000000000000 [Eh]
	 Same-Spin Energy          =      -0.4164301186936085 [Eh]
	 Opposite-Spin Energy      =      -1.2928725118167099 [Eh]
	 Correlation Energy        =      -1.7093026305103183 [Eh]
	 Total Energy              =    -419.9036374706976744 [Eh]

	 ================> DF-SCS-MP2 Energies <==================
	-----------------------------------------------------------
	 SCS Same-Spin Scale       =       0.3333333333333333 [-]
	 SCS Opposite-Spin Scale   =       1.2000000000000000 [-]
	 SCS Same-Spin Energy      =      -0.1388100395645361 [Eh]
	 SCS Opposite-Spin Energy  =      -1.5514470141800518 [Eh]
	 SCS Correlation Energy    =      -1.6902570537445880 [Eh]
	 SCS Total Energy          =    -419.8845918939319404 [Eh]
	-----------------------------------------------------------

  Dipole Moment: [D]
     X:     9.6360      Y:     3.2997      Z:     0.6166     Total:    10.2040

*** Psi4 exiting successfully. Buy a developer a beer!
