                               Psi4 1.3.2 release

  ==> Input File <==

--------------------------------------------------------------------------
#psi4
#
memory 32 gb

molecule  {
-1 1
  O        0.5632720    -1.1719080    -0.3765930
  O       -2.2370500    -0.5589400     1.0879600
  O       -2.5032960     0.1554020    -1.0563790
  C        1.9927080     0.6815170     0.1510220
  C        0.6496908    -0.0023301    -0.0391324
  C       -0.5777410     0.8814240     0.1686100
  C        3.1644765    -0.2730845    -0.0354118
  C       -1.9010600     0.0931950     0.0560670
  H        2.0429660     1.5133360    -0.5640360
  H        2.0060190     1.1470430     1.1438410
  H       -0.4967450     1.3515110     1.1569670
  H       -0.5352790     1.6874700    -0.5756840
  H        3.1399490    -1.0742180     0.6982180
  H        3.1613950    -0.7098910    -1.0291440
  H        4.1160350     0.2752530     0.0934100
units angstrom
no_reorient  #important for SAPT in psi4, default
symmetry c1  #important for SAPT in psi4, default
}

set PROPERTIES_ORIGIN ["COM"]
properties('MP2/aug-cc-pvtz', properties = ['dipole'])
--------------------------------------------------------------------------

    Molecular point group: c1
  Charge       = -1
  Multiplicity = 1
  Basis Set: AUG-CC-PVTZ
    Blend: AUG-CC-PVTZ
  Basis Set: (AUG-CC-PVTZ AUX)
    Blend: AUG-CC-PVTZ-JKFIT

    Orbital Energies [Eh]
    ---------------------

    Doubly Occupied:

       1A    -20.411303     2A    -20.295978     3A    -20.294210
       4A    -11.198927     5A    -11.145417     6A    -11.129922
       7A    -11.120955     8A    -11.082058     9A     -1.247211
      10A     -1.163445    11A     -1.063512    12A     -0.949826
      13A     -0.864843    14A     -0.766232    15A     -0.611641
      16A     -0.537589    17A     -0.530744    18A     -0.527485
      19A     -0.473035    20A     -0.454543    21A     -0.436925
      22A     -0.410257    23A     -0.408750    24A     -0.405233
      25A     -0.377590    26A     -0.350525    27A     -0.336193
      28A     -0.278335    29A     -0.209784    30A     -0.206306
      31A     -0.192139

  @DF-RHF Final Energy:  -418.19639721276423

   => Energetics <=

    Nuclear Repulsion Energy =            356.8500216056858676
    One-Electron Energy =               -1291.1310110892234206
    Two-Electron Energy =                 516.0845922707733280
    Total Energy =                       -418.1963972127641682
  Basis Set: (AUG-CC-PVTZ AUX)
    Blend: AUG-CC-PVTZ-RI
    Molecular point group: c1

    Geometry (in Angstrom), charge = -1, multiplicity = 1:

       Center              X                  Y                   Z               Mass
    ------------   -----------------  -----------------  -----------------  -----------------
         O            0.679193783682    -1.133597924784    -0.368128248845    15.994914619570
         O           -2.121128216318    -0.520629924784     1.096424751155    15.994914619570
         O           -2.387374216318     0.193712075216    -1.047914248845    15.994914619570
         C            2.108629783682     0.719827075216     0.159486751155    12.000000000000
         C            0.765612583682     0.035979975216    -0.030667648845    12.000000000000
         C           -0.461819216318     0.919734075216     0.177074751155    12.000000000000
         C            3.280398283682    -0.234774424784    -0.026947048845    12.000000000000
         C           -1.785138216318     0.131505075216     0.064531751155    12.000000000000
         H            2.158887783682     1.551646075216    -0.555571248845     1.007825032230
         H            2.121940783682     1.185353075216     1.152305751155     1.007825032230
         H           -0.380823216318     1.389821075216     1.165431751155     1.007825032230
         H           -0.419357216318     1.725780075216    -0.567219248845     1.007825032230
         H            3.255870783682    -1.035907924784     0.706682751155     1.007825032230
         H            3.277316783682    -0.671580924784    -1.020679248845     1.007825032230
         H            4.231956783682     0.313563075216     0.101874751155     1.007825032230

  Basis Set: AUG-CC-PVTZ
    Blend: AUG-CC-PVTZ
  Basis Set: (AUG-CC-PVTZ AUX)
    Blend: AUG-CC-PVTZ-JKFIT
	 Reference Energy          =    -418.1963972127642251 [Eh]
	 Singles Energy            =      -0.0000000000000000 [Eh]
	 Same-Spin Energy          =      -0.4158456284039177 [Eh]
	 Opposite-Spin Energy      =      -1.2918438845663154 [Eh]
	 Correlation Energy        =      -1.7076895129702332 [Eh]
	 Total Energy              =    -419.9040867257344303 [Eh]

	 ================> DF-SCS-MP2 Energies <==================
	-----------------------------------------------------------
	 SCS Same-Spin Scale       =       0.3333333333333333 [-]
	 SCS Opposite-Spin Scale   =       1.2000000000000000 [-]
	 SCS Same-Spin Energy      =      -0.1386152094679726 [Eh]
	 SCS Opposite-Spin Energy  =      -1.5502126614795784 [Eh]
	 SCS Correlation Energy    =      -1.6888278709475508 [Eh]
	 SCS Total Energy          =    -419.8852250837117595 [Eh]
	-----------------------------------------------------------

  Dipole Moment: [D]
     X:    10.0264      Y:     3.3982      Z:     0.6171     Total:    10.6045

*** Psi4 exiting successfully. Buy a developer a beer!
