                               Psi4 1.4a3.dev225

  ==> Input File <==

--------------------------------------------------------------------------
#psi4
#
memory 32 gb

molecule  {
-1 1
  O        1.0745520     1.3418620    -0.8745480
  O       -1.1230780    -1.1034960    -0.8170800
  O       -2.9206860    -0.1812610     0.2330210
  C        1.4738630    -0.3704550     0.7611780
  C        0.6175138     0.6844313     0.0512552
  C       -0.7798250     0.8397660     0.5534010
  C        2.7202340    -0.7612590    -0.0182770
  C       -1.7002430    -0.2566580    -0.0711330
  H        1.7414500     0.0432240     1.7443780
  H        0.8355880    -1.2371210     0.9565080
  H       -0.8294850     0.7587360     1.6458800
  H       -1.1523820     1.8284630     0.2671350
  H        2.4446610    -1.1885100    -0.9860420
  H        3.3521650     0.1095510    -0.2043800
  H        3.3054110    -1.5035610     0.5312540
units angstrom
no_reorient  #important for SAPT in psi4, default
symmetry c1  #important for SAPT in psi4, default
}

set PROPERTIES_ORIGIN ["COM"]
properties('MP2/aug-cc-pvtz', properties = ['dipole'])
--------------------------------------------------------------------------

    Molecular point group: c1
  Charge       = -1
  Multiplicity = 1
  Basis Set: AUG-CC-PVTZ
    Blend: AUG-CC-PVTZ
  Basis Set: (AUG-CC-PVTZ AUX)
    Blend: AUG-CC-PVTZ-JKFIT

    Orbital Energies [Eh]
    ---------------------

    Doubly Occupied:

       1A    -20.401344     2A    -20.314062     3A    -20.311734
       4A    -11.189050     5A    -11.164971     6A    -11.106781
       7A    -11.101255     8A    -11.080425     9A     -1.237470
      10A     -1.183530    11A     -1.084676    12A     -0.929003
      13A     -0.864858    14A     -0.748857    15A     -0.601819
      16A     -0.546908    17A     -0.513825    18A     -0.503609
      19A     -0.481406    20A     -0.450603    21A     -0.442512
      22A     -0.408001    23A     -0.398243    24A     -0.389947
      25A     -0.378210    26A     -0.352103    27A     -0.338118
      28A     -0.274623    29A     -0.229784    30A     -0.216969
      31A     -0.211865

  @DF-RHF Final Energy:  -418.21023075617677

   => Energetics <=

    Nuclear Repulsion Energy =            362.6190030334709604
    One-Electron Energy =               -1302.7453459602490966
    Two-Electron Energy =                 521.9161121706013091
    Total Energy =                       -418.2102307561767702
  Basis Set: (AUG-CC-PVTZ AUX)
    Blend: AUG-CC-PVTZ-RI
    Molecular point group: c1

    Geometry (in Angstrom), charge = -1, multiplicity = 1:

       Center              X                  Y                   Z               Mass
    ------------   -----------------  -----------------  -----------------  -----------------
         O            1.159222801606     1.330172368986    -0.839538073434    15.994914619570
         O           -1.038407198394    -1.115185631014    -0.782070073434    15.994914619570
         O           -2.836015198394    -0.192950631014     0.268030926566    15.994914619570
         C            1.558533801606    -0.382144631014     0.796187926566    12.000000000000
         C            0.702184601606     0.672741668986     0.086265126566    12.000000000000
         C           -0.695154198394     0.828076368986     0.588410926566    12.000000000000
         C            2.804904801606    -0.772948631014     0.016732926566    12.000000000000
         C           -1.615572198394    -0.268347631014    -0.036123073434    12.000000000000
         H            1.826120801606     0.031534368986     1.779387926566     1.007825032230
         H            0.920258801606    -1.248810631014     0.991517926566     1.007825032230
         H           -0.744814198394     0.747046368986     1.680889926566     1.007825032230
         H           -1.067711198394     1.816773368986     0.302144926566     1.007825032230
         H            2.529331801606    -1.200199631014    -0.951032073434     1.007825032230
         H            3.436835801606     0.097861368986    -0.169370073434     1.007825032230
         H            3.390081801606    -1.515250631014     0.566263926566     1.007825032230

  Basis Set: AUG-CC-PVTZ
    Blend: AUG-CC-PVTZ
  Basis Set: (AUG-CC-PVTZ AUX)
    Blend: AUG-CC-PVTZ-JKFIT
	 Reference Energy          =    -418.2102307561767702 [Eh]
	 Singles Energy            =      -0.0000000000000000 [Eh]
	 Same-Spin Energy          =      -0.4164758664918042 [Eh]
	 Opposite-Spin Energy      =      -1.2917431678917044 [Eh]
	 Correlation Energy        =      -1.7082190343835086 [Eh]
	 Total Energy              =    -419.9184497905602598 [Eh]

	 ================> DF-SCS-MP2 Energies <==================
	-----------------------------------------------------------
	 SCS Same-Spin Scale       =       0.3333333333333333 [-]
	 SCS Opposite-Spin Scale   =       1.2000000000000000 [-]
	 SCS Same-Spin Energy      =      -0.1388252888306014 [Eh]
	 SCS Opposite-Spin Energy  =      -1.5500918014700453 [Eh]
	 SCS Correlation Energy    =      -1.6889170903006467 [Eh]
	 SCS Total Energy          =    -419.8991478464774332 [Eh]
	-----------------------------------------------------------

  Dipole Moment: [D]
     X:     6.6671      Y:     1.3251      Z:     3.1436     Total:     7.4892

*** Psi4 exiting successfully. Buy a developer a beer!
