                               Psi4 1.4a3.dev225

  ==> Input File <==

--------------------------------------------------------------------------
#psi4
#
memory 32 gb

molecule  {
-1 1
  O        1.0745520     1.3418620    -0.8745480
  O       -1.1230780    -1.1034960    -0.8170800
  O       -2.9206860    -0.1812610     0.2330210
  C        1.4738630    -0.3704550     0.7611780
  C        0.6286860     0.6706690     0.0605170
  C       -0.7798250     0.8397660     0.5534010
  C        2.7202340    -0.7612590    -0.0182770
  C       -1.6774761    -0.2900624    -0.1005577
  H        1.7414500     0.0432240     1.7443780
  H        0.8355880    -1.2371210     0.9565080
  H       -0.8294850     0.7587360     1.6458800
  H       -1.1523820     1.8284630     0.2671350
  H        2.4446610    -1.1885100    -0.9860420
  H        3.3521650     0.1095510    -0.2043800
  H        3.3054110    -1.5035610     0.5312540
units angstrom
no_reorient  #important for SAPT in psi4, default
symmetry c1  #important for SAPT in psi4, default
}

set PROPERTIES_ORIGIN ["COM"]
properties('MP2/aug-cc-pvtz', properties = ['dipole'])
--------------------------------------------------------------------------

    Molecular point group: c1
  Charge       = -1
  Multiplicity = 1
  Basis Set: AUG-CC-PVTZ
    Blend: AUG-CC-PVTZ
  Basis Set: (AUG-CC-PVTZ AUX)
    Blend: AUG-CC-PVTZ-JKFIT

    Orbital Energies [Eh]
    ---------------------

    Doubly Occupied:

       1A    -20.399956     2A    -20.325627     3A    -20.302217
       4A    -11.188458     5A    -11.164403     6A    -11.108801
       7A    -11.103267     8A    -11.077893     9A     -1.230655
      10A     -1.199331    11A     -1.082536    12A     -0.933228
      13A     -0.859605    14A     -0.751444    15A     -0.598624
      16A     -0.545872    17A     -0.513985    18A     -0.506056
      19A     -0.480597    20A     -0.452556    21A     -0.441541
      22A     -0.410978    23A     -0.399576    24A     -0.391093
      25A     -0.379919    26A     -0.352239    27A     -0.341271
      28A     -0.276340    29A     -0.234461    30A     -0.212555
      31A     -0.208398

  @DF-RHF Final Energy:  -418.20757594667054

   => Energetics <=

    Nuclear Repulsion Energy =            362.8057740731298964
    One-Electron Energy =               -1303.0797357638191443
    Two-Electron Energy =                 522.0663857440187030
    Total Energy =                       -418.2075759466705449
  Basis Set: (AUG-CC-PVTZ AUX)
    Blend: AUG-CC-PVTZ-RI
    Molecular point group: c1

    Geometry (in Angstrom), charge = -1, multiplicity = 1:

       Center              X                  Y                   Z               Mass
    ------------   -----------------  -----------------  -----------------  -----------------
         O            1.155682546890     1.335092420847    -0.837434841415    15.994914619570
         O           -1.041947453110    -1.110265579153    -0.779966841415    15.994914619570
         O           -2.839555453110    -0.188030579153     0.270134158585    15.994914619570
         C            1.554993546890    -0.377224579153     0.798291158585    12.000000000000
         C            0.709816546890     0.663899420847     0.097630158585    12.000000000000
         C           -0.698694453110     0.832996420847     0.590514158585    12.000000000000
         C            2.801364546890    -0.768028579153     0.018836158585    12.000000000000
         C           -1.596345553110    -0.296831979153    -0.063444541415    12.000000000000
         H            1.822580546890     0.036454420847     1.781491158585     1.007825032230
         H            0.916718546890    -1.243890579153     0.993621158585     1.007825032230
         H           -0.748354453110     0.751966420847     1.682993158585     1.007825032230
         H           -1.071251453110     1.821693420847     0.304248158585     1.007825032230
         H            2.525791546890    -1.195279579153    -0.948928841415     1.007825032230
         H            3.433295546890     0.102781420847    -0.167266841415     1.007825032230
         H            3.386541546890    -1.510330579153     0.568367158585     1.007825032230

  Basis Set: AUG-CC-PVTZ
    Blend: AUG-CC-PVTZ
  Basis Set: (AUG-CC-PVTZ AUX)
    Blend: AUG-CC-PVTZ-JKFIT
	 Reference Energy          =    -418.2075759466705449 [Eh]
	 Singles Energy            =      -0.0000000000000000 [Eh]
	 Same-Spin Energy          =      -0.4164400635051680 [Eh]
	 Opposite-Spin Energy      =      -1.2914593638171494 [Eh]
	 Correlation Energy        =      -1.7078994273223174 [Eh]
	 Total Energy              =    -419.9154753739928765 [Eh]

	 ================> DF-SCS-MP2 Energies <==================
	-----------------------------------------------------------
	 SCS Same-Spin Scale       =       0.3333333333333333 [-]
	 SCS Opposite-Spin Scale   =       1.2000000000000000 [-]
	 SCS Same-Spin Energy      =      -0.1388133545017227 [Eh]
	 SCS Opposite-Spin Energy  =      -1.5497512365805792 [Eh]
	 SCS Correlation Energy    =      -1.6885645910823019 [Eh]
	 SCS Total Energy          =    -419.8961405377528422 [Eh]
	-----------------------------------------------------------

  Dipole Moment: [D]
     X:     7.0259      Y:     0.9848      Z:     2.9436     Total:     7.6810

*** Psi4 exiting successfully. Buy a developer a beer!
