                               Psi4 1.3.2 release

  ==> Input File <==

--------------------------------------------------------------------------
#psi4
#
memory 32 gb

molecule  {
-1 1
  O        0.5632720    -1.1719080    -0.3765930
  O       -2.2370500    -0.5589400     1.0879600
  O       -2.5032960     0.1554020    -1.0563790
  C        1.9927080     0.6815170     0.1510220
  C        0.6390194     0.0057171    -0.0486089
  C       -0.5777410     0.8814240     0.1686100
  C        3.1729130    -0.2631210    -0.0329300
  C       -1.9010600     0.0931950     0.0560670
  H        2.0429660     1.5133360    -0.5640360
  H        2.0060190     1.1470430     1.1438410
  H       -0.5050972     1.3559582     1.1554899
  H       -0.5352790     1.6874700    -0.5756840
  H        3.1399490    -1.0742180     0.6982180
  H        3.1613950    -0.7098910    -1.0291440
  H        4.1160350     0.2752530     0.0934100
units angstrom
no_reorient  #important for SAPT in psi4, default
symmetry c1  #important for SAPT in psi4, default
}

set PROPERTIES_ORIGIN ["COM"]
properties('MP2/aug-cc-pvtz', properties = ['dipole'])
--------------------------------------------------------------------------

    Molecular point group: c1
  Charge       = -1
  Multiplicity = 1
  Basis Set: AUG-CC-PVTZ
    Blend: AUG-CC-PVTZ
  Basis Set: (AUG-CC-PVTZ AUX)
    Blend: AUG-CC-PVTZ-JKFIT

    Orbital Energies [Eh]
    ---------------------

    Doubly Occupied:

       1A    -20.410859     2A    -20.296407     3A    -20.294749
       4A    -11.199694     5A    -11.146019     6A    -11.129701
       7A    -11.120512     8A    -11.082540     9A     -1.244133
      10A     -1.163956    11A     -1.064013    12A     -0.948481
      13A     -0.867750    14A     -0.765703    15A     -0.611550
      16A     -0.538117    17A     -0.530931    18A     -0.525542
      19A     -0.472466    20A     -0.454589    21A     -0.439745
      22A     -0.410400    23A     -0.408196    24A     -0.403081
      25A     -0.377331    26A     -0.348885    27A     -0.336434
      28A     -0.279722    29A     -0.210243    30A     -0.206829
      31A     -0.192569

  @DF-RHF Final Energy:  -418.19640310821967

   => Energetics <=

    Nuclear Repulsion Energy =            356.7643658418718928
    One-Electron Energy =               -1290.9592404923448612
    Two-Electron Energy =                 515.9984715422532418
    Total Energy =                       -418.1964031082196698
  Basis Set: (AUG-CC-PVTZ AUX)
    Blend: AUG-CC-PVTZ-RI
    Molecular point group: c1

    Geometry (in Angstrom), charge = -1, multiplicity = 1:

       Center              X                  Y                   Z               Mass
    ------------   -----------------  -----------------  -----------------  -----------------
         O            0.679500081522    -1.135515617080    -0.367385677431    15.994914619570
         O           -2.120821918478    -0.522547617080     1.097167322569    15.994914619570
         O           -2.387067918478     0.191794382920    -1.047171677431    15.994914619570
         C            2.108936081522     0.717909382920     0.160229322569    12.000000000000
         C            0.755247481522     0.042109482920    -0.039401577431    12.000000000000
         C           -0.461512918478     0.917816382920     0.177817322569    12.000000000000
         C            3.289141081522    -0.226728617080    -0.023722677431    12.000000000000
         C           -1.784831918478     0.129587382920     0.065274322569    12.000000000000
         H            2.159194081522     1.549728382920    -0.554828677431     1.007825032230
         H            2.122247081522     1.183435382920     1.153048322569     1.007825032230
         H           -0.388869118478     1.392350582920     1.164697222569     1.007825032230
         H           -0.419050918478     1.723862382920    -0.566476677431     1.007825032230
         H            3.256177081522    -1.037825617080     0.707425322569     1.007825032230
         H            3.277623081522    -0.673498617080    -1.019936677431     1.007825032230
         H            4.232263081522     0.311645382920     0.102617322569     1.007825032230

  Basis Set: AUG-CC-PVTZ
    Blend: AUG-CC-PVTZ
  Basis Set: (AUG-CC-PVTZ AUX)
    Blend: AUG-CC-PVTZ-JKFIT
	 Reference Energy          =    -418.1964031082196698 [Eh]
	 Singles Energy            =      -0.0000000000000000 [Eh]
	 Same-Spin Energy          =      -0.4159928111432106 [Eh]
	 Opposite-Spin Energy      =      -1.2921188696841699 [Eh]
	 Correlation Energy        =      -1.7081116808273804 [Eh]
	 Total Energy              =    -419.9045147890470275 [Eh]

	 ================> DF-SCS-MP2 Energies <==================
	-----------------------------------------------------------
	 SCS Same-Spin Scale       =       0.3333333333333333 [-]
	 SCS Opposite-Spin Scale   =       1.2000000000000000 [-]
	 SCS Same-Spin Energy      =      -0.1386642703810702 [Eh]
	 SCS Opposite-Spin Energy  =      -1.5505426436210039 [Eh]
	 SCS Correlation Energy    =      -1.6892069140020740 [Eh]
	 SCS Total Energy          =    -419.8856100222217265 [Eh]
	-----------------------------------------------------------

  Dipole Moment: [D]
     X:     9.9633      Y:     3.4359      Z:     0.6188     Total:    10.5573

*** Psi4 exiting successfully. Buy a developer a beer!
