                               Psi4 1.3.2 release

  ==> Input File <==

--------------------------------------------------------------------------
#psi4
#
memory 32 gb

molecule  {
-1 1
  O        0.5632720    -1.1719080    -0.3765930
  O       -2.2370500    -0.5589400     1.0879600
  O       -2.5032960     0.1554020    -1.0563790
  C        1.9927080     0.6815170     0.1510220
  C        0.6233534     0.0340927     0.0360859
  C       -0.5777410     0.8814240     0.1686100
  C        3.1729130    -0.2631210    -0.0329300
  C       -1.9010600     0.0931950     0.0560670
  H        2.0429660     1.5133360    -0.5640360
  H        1.9526033     1.1276403     1.1519949
  H       -0.4967450     1.3515110     1.1569670
  H       -0.5352790     1.6874700    -0.5756840
  H        3.1399490    -1.0742180     0.6982180
  H        3.1613950    -0.7098910    -1.0291440
  H        4.1160350     0.2752530     0.0934100
units angstrom
no_reorient  #important for SAPT in psi4, default
symmetry c1  #important for SAPT in psi4, default
}

set PROPERTIES_ORIGIN ["COM"]
properties('MP2/aug-cc-pvtz', properties = ['dipole'])
--------------------------------------------------------------------------

    Molecular point group: c1
  Charge       = -1
  Multiplicity = 1
  Basis Set: AUG-CC-PVTZ
    Blend: AUG-CC-PVTZ
  Basis Set: (AUG-CC-PVTZ AUX)
    Blend: AUG-CC-PVTZ-JKFIT

    Orbital Energies [Eh]
    ---------------------

    Doubly Occupied:

       1A    -20.405815     2A    -20.298145     3A    -20.295954
       4A    -11.203489     5A    -11.148655     6A    -11.132219
       7A    -11.121548     8A    -11.085315     9A     -1.211050
      10A     -1.165011    11A     -1.065517    12A     -0.950689
      13A     -0.878915    14A     -0.770069    15A     -0.611021
      16A     -0.539606    17A     -0.528735    18A     -0.523872
      19A     -0.465569    20A     -0.457560    21A     -0.439542
      22A     -0.413911    23A     -0.404461    24A     -0.399490
      25A     -0.378421    26A     -0.338542    27A     -0.327677
      28A     -0.283522    29A     -0.212011    30A     -0.209453
      31A     -0.193675

  @DF-RHF Final Energy:  -418.18361091327210

   => Energetics <=

    Nuclear Repulsion Energy =            356.5424865873052340
    One-Electron Energy =               -1290.5332789185706588
    Two-Electron Energy =                 515.8071814179933199
    Total Energy =                       -418.1836109132721049
  Basis Set: (AUG-CC-PVTZ AUX)
    Blend: AUG-CC-PVTZ-RI
    Molecular point group: c1

    Geometry (in Angstrom), charge = -1, multiplicity = 1:

       Center              X                  Y                   Z               Mass
    ------------   -----------------  -----------------  -----------------  -----------------
         O            0.681529020144    -1.138266590627    -0.376304733865    15.994914619570
         O           -2.118792979856    -0.525298590627     1.088248266135    15.994914619570
         O           -2.385038979856     0.189043409373    -1.056090733865    15.994914619570
         C            2.110965020144     0.715158409373     0.151310266135    12.000000000000
         C            0.741610420144     0.067734109373     0.036374166135    12.000000000000
         C           -0.459483979856     0.915065409373     0.168898266135    12.000000000000
         C            3.291170020144    -0.229479590627    -0.032641733865    12.000000000000
         C           -1.782802979856     0.126836409373     0.056355266135    12.000000000000
         H            2.161223020144     1.546977409373    -0.563747733865     1.007825032230
         H            2.070860320144     1.161281709373     1.152283166135     1.007825032230
         H           -0.378487979856     1.385152409373     1.157255266135     1.007825032230
         H           -0.417021979856     1.721111409373    -0.575395733865     1.007825032230
         H            3.258206020144    -1.040576590627     0.698506266135     1.007825032230
         H            3.279652020144    -0.676249590627    -1.028855733865     1.007825032230
         H            4.234292020144     0.308894409373     0.093698266135     1.007825032230

  Basis Set: AUG-CC-PVTZ
    Blend: AUG-CC-PVTZ
  Basis Set: (AUG-CC-PVTZ AUX)
    Blend: AUG-CC-PVTZ-JKFIT
	 Reference Energy          =    -418.1836109132721049 [Eh]
	 Singles Energy            =      -0.0000000000000000 [Eh]
	 Same-Spin Energy          =      -0.4178320081208793 [Eh]
	 Opposite-Spin Energy      =      -1.2958849532247223 [Eh]
	 Correlation Energy        =      -1.7137169613456016 [Eh]
	 Total Energy              =    -419.8973278746177016 [Eh]

	 ================> DF-SCS-MP2 Energies <==================
	-----------------------------------------------------------
	 SCS Same-Spin Scale       =       0.3333333333333333 [-]
	 SCS Opposite-Spin Scale   =       1.2000000000000000 [-]
	 SCS Same-Spin Energy      =      -0.1392773360402931 [Eh]
	 SCS Opposite-Spin Energy  =      -1.5550619438696667 [Eh]
	 SCS Correlation Energy    =      -1.6943392799099597 [Eh]
	 SCS Total Energy          =    -419.8779501931820732 [Eh]
	-----------------------------------------------------------

  Dipole Moment: [D]
     X:     9.8427      Y:     3.5986      Z:     0.7085     Total:    10.5039

*** Psi4 exiting successfully. Buy a developer a beer!
