                               Psi4 1.4a3.dev225

  ==> Input File <==

--------------------------------------------------------------------------
#psi4
#
memory 32 gb

molecule  {
-1 1
  O        1.0745520     1.3418620    -0.8745480
  O       -1.1230780    -1.1034960    -0.8170800
  O       -2.9206860    -0.1812610     0.2330210
  C        1.4738630    -0.3704550     0.7611780
  C        0.6467466     0.6978569     0.0226405
  C       -0.7798250     0.8397660     0.5534010
  C        2.7202340    -0.7612590    -0.0182770
  C       -1.7002430    -0.2566580    -0.0711330
  H        1.7414500     0.0432240     1.7443780
  H        0.8355880    -1.2371210     0.9565080
  H       -0.8294850     0.7587360     1.6458800
  H       -1.1523820     1.8284630     0.2671350
  H        2.4446610    -1.1885100    -0.9860420
  H        3.3521650     0.1095510    -0.2043800
  H        3.3054110    -1.5035610     0.5312540
units angstrom
no_reorient  #important for SAPT in psi4, default
symmetry c1  #important for SAPT in psi4, default
}

set PROPERTIES_ORIGIN ["COM"]
properties('MP2/aug-cc-pvtz', properties = ['dipole'])
--------------------------------------------------------------------------

    Molecular point group: c1
  Charge       = -1
  Multiplicity = 1
  Basis Set: AUG-CC-PVTZ
    Blend: AUG-CC-PVTZ
  Basis Set: (AUG-CC-PVTZ AUX)
    Blend: AUG-CC-PVTZ-JKFIT

    Orbital Energies [Eh]
    ---------------------

    Doubly Occupied:

       1A    -20.405575     2A    -20.312029     3A    -20.309568
       4A    -11.185660     5A    -11.162060     6A    -11.104890
       7A    -11.100715     8A    -11.078453     9A     -1.265812
      10A     -1.181458    11A     -1.082509    12A     -0.926965
      13A     -0.855517    14A     -0.746120    15A     -0.601305
      16A     -0.546711    17A     -0.517452    18A     -0.505107
      19A     -0.482284    20A     -0.450252    21A     -0.442930
      22A     -0.406208    23A     -0.401973    24A     -0.391877
      25A     -0.380470    26A     -0.363099    27A     -0.337488
      28A     -0.268916    29A     -0.227350    30A     -0.213591
      31A     -0.210027

  @DF-RHF Final Energy:  -418.21084299996448

   => Energetics <=

    Nuclear Repulsion Energy =            362.7436569723370212
    One-Electron Energy =               -1302.9802571235040887
    Two-Electron Energy =                 522.0257571512025834
    Total Energy =                       -418.2108429999644841
  Basis Set: (AUG-CC-PVTZ AUX)
    Blend: AUG-CC-PVTZ-RI
    Molecular point group: c1

    Geometry (in Angstrom), charge = -1, multiplicity = 1:

       Center              X                  Y                   Z               Mass
    ------------   -----------------  -----------------  -----------------  -----------------
         O            1.156173470361     1.328771918069    -0.836553217423    15.994914619570
         O           -1.041456529639    -1.116586081931    -0.779085217423    15.994914619570
         O           -2.839064529639    -0.194351081931     0.271015782577    15.994914619570
         C            1.555484470361    -0.383545081931     0.799172782577    12.000000000000
         C            0.728368070361     0.684766818069     0.060635282577    12.000000000000
         C           -0.698203529639     0.826675918069     0.591395782577    12.000000000000
         C            2.801855470361    -0.774349081931     0.019717782577    12.000000000000
         C           -1.618621529639    -0.269748081931    -0.033138217423    12.000000000000
         H            1.823071470361     0.030133918069     1.782372782577     1.007825032230
         H            0.917209470361    -1.250211081931     0.994502782577     1.007825032230
         H           -0.747863529639     0.745645918069     1.683874782577     1.007825032230
         H           -1.070760529639     1.815372918069     0.305129782577     1.007825032230
         H            2.526282470361    -1.201600081931    -0.948047217423     1.007825032230
         H            3.433786470361     0.096460918069    -0.166385217423     1.007825032230
         H            3.387032470361    -1.516651081931     0.569248782577     1.007825032230

  Basis Set: AUG-CC-PVTZ
    Blend: AUG-CC-PVTZ
  Basis Set: (AUG-CC-PVTZ AUX)
    Blend: AUG-CC-PVTZ-JKFIT
	 Reference Energy          =    -418.2108429999644841 [Eh]
	 Singles Energy            =      -0.0000000000000000 [Eh]
	 Same-Spin Energy          =      -0.4152827930792681 [Eh]
	 Opposite-Spin Energy      =      -1.2894514184910413 [Eh]
	 Correlation Energy        =      -1.7047342115703095 [Eh]
	 Total Energy              =    -419.9155772115348100 [Eh]

	 ================> DF-SCS-MP2 Energies <==================
	-----------------------------------------------------------
	 SCS Same-Spin Scale       =       0.3333333333333333 [-]
	 SCS Opposite-Spin Scale   =       1.2000000000000000 [-]
	 SCS Same-Spin Energy      =      -0.1384275976930893 [Eh]
	 SCS Opposite-Spin Energy  =      -1.5473417021892495 [Eh]
	 SCS Correlation Energy    =      -1.6857692998823388 [Eh]
	 SCS Total Energy          =    -419.8966122998468222 [Eh]
	-----------------------------------------------------------

  Dipole Moment: [D]
     X:     6.8550      Y:     1.4411      Z:     3.0079     Total:     7.6233

*** Psi4 exiting successfully. Buy a developer a beer!
