                               Psi4 1.3.2 release

  ==> Input File <==

--------------------------------------------------------------------------
#psi4
#
memory 32 gb

molecule  {
-1 1
  O        0.5632720    -1.1719080    -0.3765930
  O       -2.2370500    -0.5589400     1.0879600
  O       -2.5032960     0.1554020    -1.0563790
  C        1.9927080     0.6815170     0.1510220
  C        0.6370384    -0.0867319    -0.0642795
  C       -0.5777410     0.8814240     0.1686100
  C        3.1729130    -0.2631210    -0.0329300
  C       -1.9010600     0.0931950     0.0560670
  H        2.0429660     1.5133360    -0.5640360
  H        2.0060190     1.1470430     1.1438410
  H       -0.4967450     1.3515110     1.1569670
  H       -0.5352790     1.6874700    -0.5756840
  H        3.1399490    -1.0742180     0.6982180
  H        3.1613950    -0.7098910    -1.0291440
  H        4.1160350     0.2752530     0.0934100
units angstrom
no_reorient  #important for SAPT in psi4, default
symmetry c1  #important for SAPT in psi4, default
}

set PROPERTIES_ORIGIN ["COM"]
properties('MP2/aug-cc-pvtz', properties = ['dipole'])
--------------------------------------------------------------------------

    Molecular point group: c1
  Charge       = -1
  Multiplicity = 1
  Basis Set: AUG-CC-PVTZ
    Blend: AUG-CC-PVTZ
  Basis Set: (AUG-CC-PVTZ AUX)
    Blend: AUG-CC-PVTZ-JKFIT

    Orbital Energies [Eh]
    ---------------------

    Doubly Occupied:

       1A    -20.419653     2A    -20.294716     3A    -20.293326
       4A    -11.192619     5A    -11.142412     6A    -11.123705
       7A    -11.118091     8A    -11.077354     9A     -1.313713
      10A     -1.162599    11A     -1.062497    12A     -0.939868
      13A     -0.851737    14A     -0.755281    15A     -0.610489
      16A     -0.546259    17A     -0.536284    18A     -0.523305
      19A     -0.487634    20A     -0.455664    21A     -0.439908
      22A     -0.415631    23A     -0.407399    24A     -0.406293
      25A     -0.387864    26A     -0.366001    27A     -0.338688
      28A     -0.262299    29A     -0.208634    30A     -0.201113
      31A     -0.191826

  @DF-RHF Final Energy:  -418.18952768661995

   => Energetics <=

    Nuclear Repulsion Energy =            357.5392576860774625
    One-Electron Energy =               -1292.3918435608029540
    Two-Electron Energy =                 516.6630581881055377
    Total Energy =                       -418.1895276866199538
  Basis Set: (AUG-CC-PVTZ AUX)
    Blend: AUG-CC-PVTZ-RI
    Molecular point group: c1

    Geometry (in Angstrom), charge = -1, multiplicity = 1:

       Center              X                  Y                   Z               Mass
    ------------   -----------------  -----------------  -----------------  -----------------
         O            0.679633552558    -1.125833118333    -0.365763986527    15.994914619570
         O           -2.120688447442    -0.512865118333     1.098789013473    15.994914619570
         O           -2.386934447442     0.201476881667    -1.045549986527    15.994914619570
         C            2.109069552558     0.727591881667     0.161851013473    12.000000000000
         C            0.753399952558    -0.040657018333    -0.053450486527    12.000000000000
         C           -0.461379447442     0.927498881667     0.179439013473    12.000000000000
         C            3.289274552558    -0.217046118333    -0.022100986527    12.000000000000
         C           -1.784698447442     0.139269881667     0.066896013473    12.000000000000
         H            2.159327552558     1.559410881667    -0.553206986527     1.007825032230
         H            2.122380552558     1.193117881667     1.154670013473     1.007825032230
         H           -0.380383447442     1.397585881667     1.167796013473     1.007825032230
         H           -0.418917447442     1.733544881667    -0.564854986527     1.007825032230
         H            3.256310552558    -1.028143118333     0.709047013473     1.007825032230
         H            3.277756552558    -0.663816118333    -1.018314986527     1.007825032230
         H            4.232396552558     0.321327881667     0.104239013473     1.007825032230

  Basis Set: AUG-CC-PVTZ
    Blend: AUG-CC-PVTZ
  Basis Set: (AUG-CC-PVTZ AUX)
    Blend: AUG-CC-PVTZ-JKFIT
	 Reference Energy          =    -418.1895276866199538 [Eh]
	 Singles Energy            =      -0.0000000000000000 [Eh]
	 Same-Spin Energy          =      -0.4136218254865032 [Eh]
	 Opposite-Spin Energy      =      -1.2871433621012933 [Eh]
	 Correlation Energy        =      -1.7007651875877965 [Eh]
	 Total Energy              =    -419.8902928742077734 [Eh]

	 ================> DF-SCS-MP2 Energies <==================
	-----------------------------------------------------------
	 SCS Same-Spin Scale       =       0.3333333333333333 [-]
	 SCS Opposite-Spin Scale   =       1.2000000000000000 [-]
	 SCS Same-Spin Energy      =      -0.1378739418288344 [Eh]
	 SCS Opposite-Spin Energy  =      -1.5445720345215519 [Eh]
	 SCS Correlation Energy    =      -1.6824459763503863 [Eh]
	 SCS Total Energy          =    -419.8719736629703334 [Eh]
	-----------------------------------------------------------

  Dipole Moment: [D]
     X:     9.9796      Y:     2.9786      Z:     0.4976     Total:    10.4265

*** Psi4 exiting successfully. Buy a developer a beer!
