                               Psi4 1.4a3.dev225

  ==> Input File <==

--------------------------------------------------------------------------
#psi4
#
memory 32 gb

molecule  {
-1 1
  O        1.0745520     1.3418620    -0.8745480
  O       -1.1230780    -1.1034960    -0.8170800
  O       -2.9206860    -0.1812610     0.2330210
  C        1.4738630    -0.3704550     0.7611780
  C        0.6007556     0.7050748     0.0373624
  C       -0.7798250     0.8397660     0.5534010
  C        2.7202340    -0.7612590    -0.0182770
  C       -1.7002430    -0.2566580    -0.0711330
  H        1.7414500     0.0432240     1.7443780
  H        0.8355880    -1.2371210     0.9565080
  H       -0.8294850     0.7587360     1.6458800
  H       -1.1523820     1.8284630     0.2671350
  H        2.4446610    -1.1885100    -0.9860420
  H        3.3521650     0.1095510    -0.2043800
  H        3.3054110    -1.5035610     0.5312540
units angstrom
no_reorient  #important for SAPT in psi4, default
symmetry c1  #important for SAPT in psi4, default
}

set PROPERTIES_ORIGIN ["COM"]
properties('MP2/aug-cc-pvtz', properties = ['dipole'])
--------------------------------------------------------------------------

    Molecular point group: c1
  Charge       = -1
  Multiplicity = 1
  Basis Set: AUG-CC-PVTZ
    Blend: AUG-CC-PVTZ
  Basis Set: (AUG-CC-PVTZ AUX)
    Blend: AUG-CC-PVTZ-JKFIT

    Orbital Energies [Eh]
    ---------------------

    Doubly Occupied:

       1A    -20.403017     2A    -20.314472     3A    -20.312297
       4A    -11.188103     5A    -11.165824     6A    -11.104823
       7A    -11.099747     8A    -11.080266     9A     -1.247995
      10A     -1.184174    11A     -1.085187    12A     -0.924135
      13A     -0.867717    14A     -0.743571    15A     -0.602441
      16A     -0.547456    17A     -0.514777    18A     -0.502483
      19A     -0.482733    20A     -0.452165    21A     -0.444023
      22A     -0.407807    23A     -0.398108    24A     -0.389189
      25A     -0.377619    26A     -0.356684    27A     -0.339086
      28A     -0.270935    29A     -0.230291    30A     -0.217491
      31A     -0.212238

  @DF-RHF Final Energy:  -418.20966595979871

   => Energetics <=

    Nuclear Repulsion Energy =            362.6874245363698037
    One-Electron Energy =               -1302.8604731747816459
    Two-Electron Energy =                 521.9633826786131294
    Total Energy =                       -418.2096659597987127
  Basis Set: (AUG-CC-PVTZ AUX)
    Blend: AUG-CC-PVTZ-RI
    Molecular point group: c1

    Geometry (in Angstrom), charge = -1, multiplicity = 1:

       Center              X                  Y                   Z               Mass
    ------------   -----------------  -----------------  -----------------  -----------------
         O            1.160970882627     1.328019004629    -0.838088887960    15.994914619570
         O           -1.036659117373    -1.117338995371    -0.780620887960    15.994914619570
         O           -2.834267117373    -0.195103995371     0.269480112040    15.994914619570
         C            1.560281882627    -0.384297995371     0.797637112040    12.000000000000
         C            0.687174482627     0.691231804629     0.073821512040    12.000000000000
         C           -0.693406117373     0.825923004629     0.589860112040    12.000000000000
         C            2.806652882627    -0.775101995371     0.018182112040    12.000000000000
         C           -1.613824117373    -0.270500995371    -0.034673887960    12.000000000000
         H            1.827868882627     0.029381004629     1.780837112040     1.007825032230
         H            0.922006882627    -1.250963995371     0.992967112040     1.007825032230
         H           -0.743066117373     0.744893004629     1.682339112040     1.007825032230
         H           -1.065963117373     1.814620004629     0.303594112040     1.007825032230
         H            2.531079882627    -1.202352995371    -0.949582887960     1.007825032230
         H            3.438583882627     0.095708004629    -0.167920887960     1.007825032230
         H            3.391829882627    -1.517403995371     0.567713112040     1.007825032230

  Basis Set: AUG-CC-PVTZ
    Blend: AUG-CC-PVTZ
  Basis Set: (AUG-CC-PVTZ AUX)
    Blend: AUG-CC-PVTZ-JKFIT
	 Reference Energy          =    -418.2096659597987127 [Eh]
	 Singles Energy            =      -0.0000000000000000 [Eh]
	 Same-Spin Energy          =      -0.4161993753393303 [Eh]
	 Opposite-Spin Energy      =      -1.2911494820190528 [Eh]
	 Correlation Energy        =      -1.7073488573583830 [Eh]
	 Total Energy              =    -419.9170148171571100 [Eh]

	 ================> DF-SCS-MP2 Energies <==================
	-----------------------------------------------------------
	 SCS Same-Spin Scale       =       0.3333333333333333 [-]
	 SCS Opposite-Spin Scale   =       1.2000000000000000 [-]
	 SCS Same-Spin Energy      =      -0.1387331251131101 [Eh]
	 SCS Opposite-Spin Energy  =      -1.5493793784228633 [Eh]
	 SCS Correlation Energy    =      -1.6881125035359734 [Eh]
	 SCS Total Energy          =    -419.8977784633347028 [Eh]
	-----------------------------------------------------------

  Dipole Moment: [D]
     X:     6.5599      Y:     1.4292      Z:     3.0671     Total:     7.3812

*** Psi4 exiting successfully. Buy a developer a beer!
