                               Psi4 1.4a3.dev225

  ==> Input File <==

--------------------------------------------------------------------------
#psi4
#
memory 32 gb

molecule  {
-1 1
  O        1.0745520     1.3418620    -0.8745480
  O       -1.1230780    -1.1034960    -0.8170800
  O       -2.9206860    -0.1812610     0.2330210
  C        1.4738630    -0.3704550     0.7611780
  C        0.6286860     0.6706690     0.0605170
  C       -0.7329312     0.8341362     0.5369913
  C        2.7202340    -0.7612590    -0.0182770
  C       -1.7002430    -0.2566580    -0.0711330
  H        1.7414500     0.0432240     1.7443780
  H        0.8355880    -1.2371210     0.9565080
  H       -0.8294850     0.7587360     1.6458800
  H       -1.1523820     1.8284630     0.2671350
  H        2.4446610    -1.1885100    -0.9860420
  H        3.3521650     0.1095510    -0.2043800
  H        3.3054110    -1.5035610     0.5312540
units angstrom
no_reorient  #important for SAPT in psi4, default
symmetry c1  #important for SAPT in psi4, default
}

set PROPERTIES_ORIGIN ["COM"]
properties('MP2/aug-cc-pvtz', properties = ['dipole'])
--------------------------------------------------------------------------

    Molecular point group: c1
  Charge       = -1
  Multiplicity = 1
  Basis Set: AUG-CC-PVTZ
    Blend: AUG-CC-PVTZ
  Basis Set: (AUG-CC-PVTZ AUX)
    Blend: AUG-CC-PVTZ-JKFIT

    Orbital Energies [Eh]
    ---------------------

    Doubly Occupied:

       1A    -20.399304     2A    -20.314261     3A    -20.313915
       4A    -11.187291     5A    -11.167751     6A    -11.107488
       7A    -11.101945     8A    -11.080876     9A     -1.231129
      10A     -1.183903    11A     -1.085566    12A     -0.934220
      13A     -0.867886    14A     -0.750934    15A     -0.604856
      16A     -0.546257    17A     -0.514464    18A     -0.504449
      19A     -0.483004    20A     -0.449279    21A     -0.438664
      22A     -0.408062    23A     -0.396608    24A     -0.391088
      25A     -0.378000    26A     -0.347275    27A     -0.335289
      28A     -0.279423    29A     -0.230140    30A     -0.217089
      31A     -0.212952

  @DF-RHF Final Energy:  -418.20632921290235

   => Energetics <=

    Nuclear Repulsion Energy =            363.0824835775205770
    One-Electron Energy =               -1303.6508865966627582
    Two-Electron Energy =                 522.3620738062397777
    Total Energy =                       -418.2063292129023466
  Basis Set: (AUG-CC-PVTZ AUX)
    Blend: AUG-CC-PVTZ-RI
    Molecular point group: c1

    Geometry (in Angstrom), charge = -1, multiplicity = 1:

       Center              X                  Y                   Z               Mass
    ------------   -----------------  -----------------  -----------------  -----------------
         O            1.153165822183     1.332195197331    -0.838792461833    15.994914619570
         O           -1.044464177817    -1.113162802669    -0.781324461833    15.994914619570
         O           -2.842072177817    -0.190927802669     0.268776538167    15.994914619570
         C            1.552476822183    -0.380121802669     0.796933538167    12.000000000000
         C            0.707299822183     0.661002197331     0.096272538167    12.000000000000
         C           -0.654317377817     0.824469397331     0.572746838167    12.000000000000
         C            2.798847822183    -0.770925802669     0.017478538167    12.000000000000
         C           -1.621629177817    -0.266324802669    -0.035377461833    12.000000000000
         H            1.820063822183     0.033557197331     1.780133538167     1.007825032230
         H            0.914201822183    -1.246787802669     0.992263538167     1.007825032230
         H           -0.750871177817     0.749069197331     1.681635538167     1.007825032230
         H           -1.073768177817     1.818796197331     0.302890538167     1.007825032230
         H            2.523274822183    -1.198176802669    -0.950286461833     1.007825032230
         H            3.430778822183     0.099884197331    -0.168624461833     1.007825032230
         H            3.384024822183    -1.513227802669     0.567009538167     1.007825032230

  Basis Set: AUG-CC-PVTZ
    Blend: AUG-CC-PVTZ
  Basis Set: (AUG-CC-PVTZ AUX)
    Blend: AUG-CC-PVTZ-JKFIT
	 Reference Energy          =    -418.2063292129023466 [Eh]
	 Singles Energy            =      -0.0000000000000000 [Eh]
	 Same-Spin Energy          =      -0.4173219389729007 [Eh]
	 Opposite-Spin Energy      =      -1.2928702737321722 [Eh]
	 Correlation Energy        =      -1.7101922127050728 [Eh]
	 Total Energy              =    -419.9165214256074137 [Eh]

	 ================> DF-SCS-MP2 Energies <==================
	-----------------------------------------------------------
	 SCS Same-Spin Scale       =       0.3333333333333333 [-]
	 SCS Opposite-Spin Scale   =       1.2000000000000000 [-]
	 SCS Same-Spin Energy      =      -0.1391073129909669 [Eh]
	 SCS Opposite-Spin Energy  =      -1.5514443284786066 [Eh]
	 SCS Correlation Energy    =      -1.6905516414695734 [Eh]
	 SCS Total Energy          =    -419.8968808543719433 [Eh]
	-----------------------------------------------------------

  Dipole Moment: [D]
     X:     6.6320      Y:     1.2101      Z:     3.1831     Total:     7.4552

*** Psi4 exiting successfully. Buy a developer a beer!
