                               Psi4 1.3.2 release

  ==> Input File <==

--------------------------------------------------------------------------
#psi4
#
memory 32 gb

molecule  {
-1 1
  O        0.5632720    -1.1719080    -0.3765930
  O       -2.2370500    -0.5589400     1.0879600
  O       -2.5032960     0.1554020    -1.0563790
  C        1.9927080     0.6815170     0.1510220
  C        0.5950437    -0.0526879    -0.0471755
  C       -0.5777410     0.8814240     0.1686100
  C        3.1729130    -0.2631210    -0.0329300
  C       -1.8576437     0.0264797     0.0418684
  H        2.0429660     1.5133360    -0.5640360
  H        2.0060190     1.1470430     1.1438410
  H       -0.4967450     1.3515110     1.1569670
  H       -0.5352790     1.6874700    -0.5756840
  H        3.1399490    -1.0742180     0.6982180
  H        3.1613950    -0.7098910    -1.0291440
  H        4.1160350     0.2752530     0.0934100
units angstrom
no_reorient  #important for SAPT in psi4, default
symmetry c1  #important for SAPT in psi4, default
}

set PROPERTIES_ORIGIN ["COM"]
properties('MP2/aug-cc-pvtz', properties = ['dipole'])
--------------------------------------------------------------------------

    Molecular point group: c1
  Charge       = -1
  Multiplicity = 1
  Basis Set: AUG-CC-PVTZ
    Blend: AUG-CC-PVTZ
  Basis Set: (AUG-CC-PVTZ AUX)
    Blend: AUG-CC-PVTZ-JKFIT

    Orbital Energies [Eh]
    ---------------------

    Doubly Occupied:

       1A    -20.417174     2A    -20.298336     3A    -20.294007
       4A    -11.195834     5A    -11.146572     6A    -11.123070
       7A    -11.116934     8A    -11.081565     9A     -1.287229
      10A     -1.164461    11A     -1.062333    12A     -0.936909
      13A     -0.867321    14A     -0.754194    15A     -0.608370
      16A     -0.546622    17A     -0.531967    18A     -0.520201
      19A     -0.484908    20A     -0.457882    21A     -0.441022
      22A     -0.412067    23A     -0.406211    24A     -0.401813
      25A     -0.381642    26A     -0.365718    27A     -0.337331
      28A     -0.271770    29A     -0.210801    30A     -0.202735
      31A     -0.192829

  @DF-RHF Final Energy:  -418.19116012513302

   => Energetics <=

    Nuclear Repulsion Energy =            357.7497576445901473
    One-Electron Energy =               -1292.8421802780239886
    Two-Electron Energy =                 516.9012625083008743
    Total Energy =                       -418.1911601251330239
  Basis Set: (AUG-CC-PVTZ AUX)
    Blend: AUG-CC-PVTZ-RI
    Molecular point group: c1

    Geometry (in Angstrom), charge = -1, multiplicity = 1:

       Center              X                  Y                   Z               Mass
    ------------   -----------------  -----------------  -----------------  -----------------
         O            0.679485262647    -1.122425110344    -0.366067054554    15.994914619570
         O           -2.120836737353    -0.509457110344     1.098485945446    15.994914619570
         O           -2.387082737353     0.204884889656    -1.045853054554    15.994914619570
         C            2.108921262647     0.730999889656     0.161547945446    12.000000000000
         C            0.711256962647    -0.003205010344    -0.036649554554    12.000000000000
         C           -0.461527737353     0.930906889656     0.179135945446    12.000000000000
         C            3.289126262647    -0.213638110344    -0.022404054554    12.000000000000
         C           -1.741430437353     0.075962589656     0.052394345446    12.000000000000
         H            2.159179262647     1.562818889656    -0.553510054554     1.007825032230
         H            2.122232262647     1.196525889656     1.154366945446     1.007825032230
         H           -0.380531737353     1.400993889656     1.167492945446     1.007825032230
         H           -0.419065737353     1.736952889656    -0.565158054554     1.007825032230
         H            3.256162262647    -1.024735110344     0.708743945446     1.007825032230
         H            3.277608262647    -0.660408110344    -1.018618054554     1.007825032230
         H            4.232248262647     0.324735889656     0.103935945446     1.007825032230

  Basis Set: AUG-CC-PVTZ
    Blend: AUG-CC-PVTZ
  Basis Set: (AUG-CC-PVTZ AUX)
    Blend: AUG-CC-PVTZ-JKFIT
	 Reference Energy          =    -418.1911601251330239 [Eh]
	 Singles Energy            =      -0.0000000000000000 [Eh]
	 Same-Spin Energy          =      -0.4148606219399389 [Eh]
	 Opposite-Spin Energy      =      -1.2896190582524629 [Eh]
	 Correlation Energy        =      -1.7044796801924018 [Eh]
	 Total Energy              =    -419.8956398053254020 [Eh]

	 ================> DF-SCS-MP2 Energies <==================
	-----------------------------------------------------------
	 SCS Same-Spin Scale       =       0.3333333333333333 [-]
	 SCS Opposite-Spin Scale   =       1.2000000000000000 [-]
	 SCS Same-Spin Energy      =      -0.1382868739799796 [Eh]
	 SCS Opposite-Spin Energy  =      -1.5475428699029554 [Eh]
	 SCS Correlation Energy    =      -1.6858297438829351 [Eh]
	 SCS Total Energy          =    -419.8769898690159721 [Eh]
	-----------------------------------------------------------

  Dipole Moment: [D]
     X:     9.7238      Y:     3.1155      Z:     0.6729     Total:    10.2329

*** Psi4 exiting successfully. Buy a developer a beer!
