                               Psi4 1.3.2 release

  ==> Input File <==

--------------------------------------------------------------------------
#psi4
#
memory 32 gb

molecule  {
-1 1
  O        0.5632720    -1.1719080    -0.3765930
  O       -2.2370500    -0.5589400     1.0879600
  O       -2.5502191     0.1158866    -1.0312101
  C        1.9927080     0.6815170     0.1510220
  C        0.6435570     0.0091630    -0.0366810
  C       -0.5711522     0.8553293     0.2448541
  C        3.1729130    -0.2631210    -0.0329300
  C       -1.9010600     0.0931950     0.0560670
  H        2.0429660     1.5133360    -0.5640360
  H        2.0060190     1.1470430     1.1438410
  H       -0.4967450     1.3515110     1.1569670
  H       -0.5352790     1.6874700    -0.5756840
  H        3.1399490    -1.0742180     0.6982180
  H        3.1613950    -0.7098910    -1.0291440
  H        4.1160350     0.2752530     0.0934100
units angstrom
no_reorient  #important for SAPT in psi4, default
symmetry c1  #important for SAPT in psi4, default
}

set PROPERTIES_ORIGIN ["COM"]
properties('MP2/aug-cc-pvtz', properties = ['dipole'])
--------------------------------------------------------------------------

    Molecular point group: c1
  Charge       = -1
  Multiplicity = 1
  Basis Set: AUG-CC-PVTZ
    Blend: AUG-CC-PVTZ
  Basis Set: (AUG-CC-PVTZ AUX)
    Blend: AUG-CC-PVTZ-JKFIT

    Orbital Energies [Eh]
    ---------------------

    Doubly Occupied:

       1A    -20.411208     2A    -20.296485     3A    -20.289587
       4A    -11.201787     5A    -11.145354     6A    -11.131365
       7A    -11.121697     8A    -11.088274     9A     -1.240840
      10A     -1.164116    11A     -1.058935    12A     -0.951256
      13A     -0.871823    14A     -0.768345    15A     -0.614061
      16A     -0.541711    17A     -0.534184    18A     -0.526241
      19A     -0.476045    20A     -0.450801    21A     -0.439989
      22A     -0.412061    23A     -0.409499    24A     -0.402614
      25A     -0.374456    26A     -0.343252    27A     -0.336594
      28A     -0.282304    29A     -0.211370    30A     -0.202808
      31A     -0.189068

  @DF-RHF Final Energy:  -418.18678620618977

   => Energetics <=

    Nuclear Repulsion Energy =            356.5893428297565038
    One-Electron Energy =               -1290.5760066443810956
    Two-Electron Energy =                 515.7998776084348265
    Total Energy =                       -418.1867862061897085
  Basis Set: (AUG-CC-PVTZ AUX)
    Blend: AUG-CC-PVTZ-RI
    Molecular point group: c1

    Geometry (in Angstrom), charge = -1, multiplicity = 1:

       Center              X                  Y                   Z               Mass
    ------------   -----------------  -----------------  -----------------  -----------------
         O            0.684790408071    -1.127619956043    -0.380095458179    15.994914619570
         O           -2.115531591929    -0.514651956043     1.084457541821    15.994914619570
         O           -2.428700691929     0.160174643957    -1.034712558179    15.994914619570
         C            2.114226408071     0.725805043957     0.147519541821    12.000000000000
         C            0.765075408071     0.053451043957    -0.040183458179    12.000000000000
         C           -0.449633791929     0.899617343957     0.241351641821    12.000000000000
         C            3.294431408070    -0.218832956043    -0.036432458179    12.000000000000
         C           -1.779541591929     0.137483043957     0.052564541821    12.000000000000
         H            2.164484408071     1.557624043957    -0.567538458179     1.007825032230
         H            2.127537408071     1.191331043957     1.140338541821     1.007825032230
         H           -0.375226591929     1.395799043957     1.153464541821     1.007825032230
         H           -0.413760591929     1.731758043957    -0.579186458179     1.007825032230
         H            3.261467408071    -1.029929956043     0.694715541821     1.007825032230
         H            3.282913408071    -0.665602956043    -1.032646458179     1.007825032230
         H            4.237553408071     0.319541043957     0.089907541821     1.007825032230

  Basis Set: AUG-CC-PVTZ
    Blend: AUG-CC-PVTZ
  Basis Set: (AUG-CC-PVTZ AUX)
    Blend: AUG-CC-PVTZ-JKFIT
	 Reference Energy          =    -418.1867862061897654 [Eh]
	 Singles Energy            =      -0.0000000000000000 [Eh]
	 Same-Spin Energy          =      -0.4164225298118377 [Eh]
	 Opposite-Spin Energy      =      -1.2930603267708991 [Eh]
	 Correlation Energy        =      -1.7094828565827367 [Eh]
	 Total Energy              =    -419.8962690627724896 [Eh]

	 ================> DF-SCS-MP2 Energies <==================
	-----------------------------------------------------------
	 SCS Same-Spin Scale       =       0.3333333333333333 [-]
	 SCS Opposite-Spin Scale   =       1.2000000000000000 [-]
	 SCS Same-Spin Energy      =      -0.1388075099372792 [Eh]
	 SCS Opposite-Spin Energy  =      -1.5516723921250788 [Eh]
	 SCS Correlation Energy    =      -1.6904799020623580 [Eh]
	 SCS Total Energy          =    -419.8772661082521154 [Eh]
	-----------------------------------------------------------

  Dipole Moment: [D]
     X:    10.1117      Y:     3.5201      Z:     0.6878     Total:    10.7289

*** Psi4 exiting successfully. Buy a developer a beer!
