                               Psi4 1.3.2 release

  ==> Input File <==

--------------------------------------------------------------------------
#psi4
#
memory 32 gb

molecule  {
-1 1
  O        0.5525564    -1.1710879    -0.3767417
  O       -2.2370500    -0.5589400     1.0879600
  O       -2.5032960     0.1554020    -1.0563790
  C        1.9927080     0.6815170     0.1510220
  C        0.6435570     0.0091630    -0.0366810
  C       -0.5855011     0.8712098     0.1654179
  C        3.1729130    -0.2631210    -0.0329300
  C       -1.9010600     0.0931950     0.0560670
  H        2.0429660     1.5133360    -0.5640360
  H        2.0060190     1.1470430     1.1438410
  H       -0.4967450     1.3515110     1.1569670
  H       -0.5352790     1.6874700    -0.5756840
  H        3.1399490    -1.0742180     0.6982180
  H        3.1613950    -0.7098910    -1.0291440
  H        4.1160350     0.2752530     0.0934100
units angstrom
no_reorient  #important for SAPT in psi4, default
symmetry c1  #important for SAPT in psi4, default
}

set PROPERTIES_ORIGIN ["COM"]
properties('MP2/aug-cc-pvtz', properties = ['dipole'])
--------------------------------------------------------------------------

    Molecular point group: c1
  Charge       = -1
  Multiplicity = 1
  Basis Set: AUG-CC-PVTZ
    Blend: AUG-CC-PVTZ
  Basis Set: (AUG-CC-PVTZ AUX)
    Blend: AUG-CC-PVTZ-JKFIT

    Orbital Energies [Eh]
    ---------------------

    Doubly Occupied:

       1A    -20.409822     2A    -20.295931     3A    -20.294111
       4A    -11.200001     5A    -11.145020     6A    -11.131257
       7A    -11.121522     8A    -11.083388     9A     -1.239372
      10A     -1.163828    11A     -1.063667    12A     -0.950344
      13A     -0.867819    14A     -0.767757    15A     -0.612578
      16A     -0.539480    17A     -0.530002    18A     -0.526602
      19A     -0.470468    20A     -0.453136    21A     -0.439967
      22A     -0.411781    23A     -0.408189    24A     -0.403692
      25A     -0.376375    26A     -0.345625    27A     -0.335093
      28A     -0.279834    29A     -0.209750    30A     -0.208041
      31A     -0.192018

  @DF-RHF Final Energy:  -418.19508860180218

   => Energetics <=

    Nuclear Repulsion Energy =            356.9048145653802067
    One-Electron Energy =               -1291.2468654037679698
    Two-Electron Energy =                 516.1469622365855230
    Total Energy =                       -418.1950886018022402
  Basis Set: (AUG-CC-PVTZ AUX)
    Blend: AUG-CC-PVTZ-RI
    Molecular point group: c1

    Geometry (in Angstrom), charge = -1, multiplicity = 1:

       Center              X                  Y                   Z               Mass
    ------------   -----------------  -----------------  -----------------  -----------------
         O            0.670537336128    -1.134064567207    -0.368437891418    15.994914619570
         O           -2.119069063872    -0.521916667207     1.096263808582    15.994914619570
         O           -2.385315063872     0.192425332793    -1.048075191418    15.994914619570
         C            2.110688936128     0.718540332793     0.159325808582    12.000000000000
         C            0.761537936128     0.046186332793    -0.028377191418    12.000000000000
         C           -0.467520163872     0.908233132793     0.173721708582    12.000000000000
         C            3.290893936128    -0.226097667207    -0.024626191418    12.000000000000
         C           -1.783079063872     0.130218332793     0.064370808582    12.000000000000
         H            2.160946936128     1.550359332793    -0.555732191418     1.007825032230
         H            2.123999936128     1.184066332793     1.152144808582     1.007825032230
         H           -0.378764063872     1.388534332793     1.165270808582     1.007825032230
         H           -0.417298063872     1.724493332793    -0.567380191418     1.007825032230
         H            3.257929936128    -1.037194667207     0.706521808582     1.007825032230
         H            3.279375936128    -0.672867667207    -1.020840191418     1.007825032230
         H            4.234015936128     0.312276332793     0.101713808582     1.007825032230

  Basis Set: AUG-CC-PVTZ
    Blend: AUG-CC-PVTZ
  Basis Set: (AUG-CC-PVTZ AUX)
    Blend: AUG-CC-PVTZ-JKFIT
	 Reference Energy          =    -418.1950886018021833 [Eh]
	 Singles Energy            =      -0.0000000000000000 [Eh]
	 Same-Spin Energy          =      -0.4162318141885627 [Eh]
	 Opposite-Spin Energy      =      -1.2926194476251545 [Eh]
	 Correlation Energy        =      -1.7088512618137170 [Eh]
	 Total Energy              =    -419.9039398636159035 [Eh]

	 ================> DF-SCS-MP2 Energies <==================
	-----------------------------------------------------------
	 SCS Same-Spin Scale       =       0.3333333333333333 [-]
	 SCS Opposite-Spin Scale   =       1.2000000000000000 [-]
	 SCS Same-Spin Energy      =      -0.1387439380628542 [Eh]
	 SCS Opposite-Spin Energy  =      -1.5511433371501853 [Eh]
	 SCS Correlation Energy    =      -1.6898872752130396 [Eh]
	 SCS Total Energy          =    -419.8849758770152221 [Eh]
	-----------------------------------------------------------

  Dipole Moment: [D]
     X:    10.0374      Y:     3.4579      Z:     0.6309     Total:    10.6351

*** Psi4 exiting successfully. Buy a developer a beer!
