                               Psi4 1.3.2 release

  ==> Input File <==

--------------------------------------------------------------------------
#psi4
#
memory 32 gb

molecule  {
-1 1
  O        0.5632720    -1.1719080    -0.3765930
  O       -2.2370500    -0.5589400     1.0879600
  O       -2.5032960     0.1554020    -1.0563790
  C        1.9927080     0.6815170     0.1510220
  C        0.6523528     0.0162537    -0.0127792
  C       -0.5777410     0.8814240     0.1686100
  C        3.1729130    -0.2631210    -0.0329300
  C       -1.9010600     0.0931950     0.0560670
  H        2.0429660     1.5133360    -0.5640360
  H        2.0060190     1.1470430     1.1438410
  H       -0.4800597     1.3425096     1.1596954
  H       -0.5352790     1.6874700    -0.5756840
  H        3.1399490    -1.0742180     0.6982180
  H        3.1613950    -0.7098910    -1.0291440
  H        4.1160350     0.2752530     0.0934100
units angstrom
no_reorient  #important for SAPT in psi4, default
symmetry c1  #important for SAPT in psi4, default
}

set PROPERTIES_ORIGIN ["COM"]
properties('MP2/aug-cc-pvtz', properties = ['dipole'])
--------------------------------------------------------------------------

    Molecular point group: c1
  Charge       = -1
  Multiplicity = 1
  Basis Set: AUG-CC-PVTZ
    Blend: AUG-CC-PVTZ
  Basis Set: (AUG-CC-PVTZ AUX)
    Blend: AUG-CC-PVTZ-JKFIT

    Orbital Energies [Eh]
    ---------------------

    Doubly Occupied:

       1A    -20.408914     2A    -20.296610     3A    -20.294528
       4A    -11.200903     5A    -11.146536     6A    -11.131332
       7A    -11.121561     8A    -11.083595     9A     -1.230135
      10A     -1.163761    11A     -1.063970    12A     -0.952526
      13A     -0.868828    14A     -0.769290    15A     -0.612104
      16A     -0.538716    17A     -0.527991    18A     -0.527800
      19A     -0.468920    20A     -0.454905    21A     -0.438846
      22A     -0.411639    23A     -0.406800    24A     -0.403996
      25A     -0.377056    26A     -0.342751    27A     -0.334566
      28A     -0.281203    29A     -0.210431    30A     -0.207664
      31A     -0.192389

  @DF-RHF Final Energy:  -418.19281136293660

   => Energetics <=

    Nuclear Repulsion Energy =            356.6000750225361458
    One-Electron Energy =               -1290.6452394399809691
    Two-Electron Energy =                 515.8523530545081712
    Total Energy =                       -418.1928113629365953
  Basis Set: (AUG-CC-PVTZ AUX)
    Blend: AUG-CC-PVTZ-RI
    Molecular point group: c1

    Geometry (in Angstrom), charge = -1, multiplicity = 1:

       Center              X                  Y                   Z               Mass
    ------------   -----------------  -----------------  -----------------  -----------------
         O            0.677889902509    -1.136496891734    -0.371159987439    15.994914619570
         O           -2.122432097491    -0.523528891734     1.093393012561    15.994914619570
         O           -2.388678097491     0.190813108266    -1.050945987439    15.994914619570
         C            2.107325902509     0.716928108266     0.156455012561    12.000000000000
         C            0.766970702509     0.051664808266    -0.007346187439    12.000000000000
         C           -0.463123097491     0.916835108266     0.174043012561    12.000000000000
         C            3.287530902509    -0.227709891734    -0.027496987439    12.000000000000
         C           -1.786442097491     0.128606108266     0.061500012561    12.000000000000
         H            2.157583902509     1.548747108266    -0.558602987439     1.007825032230
         H            2.120636902509     1.182454108266     1.149274012561     1.007825032230
         H           -0.365441797491     1.377920708266     1.165128412561     1.007825032230
         H           -0.420661097491     1.722881108266    -0.570250987439     1.007825032230
         H            3.254566902509    -1.038806891734     0.703651012561     1.007825032230
         H            3.276012902509    -0.674479891734    -1.023710987439     1.007825032230
         H            4.230652902509     0.310664108266     0.098843012561     1.007825032230

  Basis Set: AUG-CC-PVTZ
    Blend: AUG-CC-PVTZ
  Basis Set: (AUG-CC-PVTZ AUX)
    Blend: AUG-CC-PVTZ-JKFIT
	 Reference Energy          =    -418.1928113629365953 [Eh]
	 Singles Energy            =      -0.0000000000000000 [Eh]
	 Same-Spin Energy          =      -0.4166452082975602 [Eh]
	 Opposite-Spin Energy      =      -1.2934883465587763 [Eh]
	 Correlation Energy        =      -1.7101335548563366 [Eh]
	 Total Energy              =    -419.9029449177929223 [Eh]

	 ================> DF-SCS-MP2 Energies <==================
	-----------------------------------------------------------
	 SCS Same-Spin Scale       =       0.3333333333333333 [-]
	 SCS Opposite-Spin Scale   =       1.2000000000000000 [-]
	 SCS Same-Spin Energy      =      -0.1388817360991867 [Eh]
	 SCS Opposite-Spin Energy  =      -1.5521860158705316 [Eh]
	 SCS Correlation Energy    =      -1.6910677519697184 [Eh]
	 SCS Total Energy          =    -419.8838791149063354 [Eh]
	-----------------------------------------------------------

  Dipole Moment: [D]
     X:    10.0415      Y:     3.5028      Z:     0.6596     Total:    10.6553

*** Psi4 exiting successfully. Buy a developer a beer!
