                               Psi4 1.3.2 release

  ==> Input File <==

--------------------------------------------------------------------------
#psi4
#
memory 32 gb

molecule  {
-1 1
  O        0.5632720    -1.1719080    -0.3765930
  O       -2.2370500    -0.5589400     1.0879600
  O       -2.5032960     0.1554020    -1.0563790
  C        1.9927080     0.6815170     0.1510220
  C        0.6480016     0.0126753    -0.0247374
  C       -0.5777410     0.8814240     0.1686100
  C        3.1729130    -0.2631210    -0.0329300
  C       -1.9010600     0.0931950     0.0560670
  H        2.0429660     1.5133360    -0.5640360
  H        2.0060190     1.1470430     1.1438410
  H       -0.4883989     1.3470280     1.1583689
  H       -0.5352790     1.6874700    -0.5756840
  H        3.1399490    -1.0742180     0.6982180
  H        3.1613950    -0.7098910    -1.0291440
  H        4.1160350     0.2752530     0.0934100
units angstrom
no_reorient  #important for SAPT in psi4, default
symmetry c1  #important for SAPT in psi4, default
}

set PROPERTIES_ORIGIN ["COM"]
properties('MP2/aug-cc-pvtz', properties = ['dipole'])
--------------------------------------------------------------------------

    Molecular point group: c1
  Charge       = -1
  Multiplicity = 1
  Basis Set: AUG-CC-PVTZ
    Blend: AUG-CC-PVTZ
  Basis Set: (AUG-CC-PVTZ AUX)
    Blend: AUG-CC-PVTZ-JKFIT

    Orbital Energies [Eh]
    ---------------------

    Doubly Occupied:

       1A    -20.409540     2A    -20.296535     3A    -20.294594
       4A    -11.200454     5A    -11.146355     6A    -11.130804
       7A    -11.121218     8A    -11.083218     9A     -1.234810
      10A     -1.163823    11A     -1.063977    12A     -0.951184
      13A     -0.868445    14A     -0.768104    15A     -0.611895
      16A     -0.538440    17A     -0.528993    18A     -0.527078
      19A     -0.470000    20A     -0.454813    21A     -0.439192
      22A     -0.411189    23A     -0.407331    24A     -0.403702
      25A     -0.377096    26A     -0.344766    27A     -0.335346
      28A     -0.280790    29A     -0.210345    30A     -0.207410
      31A     -0.192442

  @DF-RHF Final Energy:  -418.19437845999238

   => Energetics <=

    Nuclear Repulsion Energy =            356.6566420481775026
    One-Electron Energy =               -1290.7542591761464337
    Two-Electron Energy =                 515.9032386679766660
    Total Energy =                       -418.1943784599923220
  Basis Set: (AUG-CC-PVTZ AUX)
    Blend: AUG-CC-PVTZ-RI
    Molecular point group: c1

    Geometry (in Angstrom), charge = -1, multiplicity = 1:

       Center              X                  Y                   Z               Mass
    ------------   -----------------  -----------------  -----------------  -----------------
         O            0.678416841904    -1.136163206026    -0.369900982872    15.994914619570
         O           -2.121905158096    -0.523195206026     1.094652017128    15.994914619570
         O           -2.388151158096     0.191146793974    -1.049686982872    15.994914619570
         C            2.107852841904     0.717261793974     0.157714017128    12.000000000000
         C            0.763146441904     0.048420093974    -0.018045382872    12.000000000000
         C           -0.462596158096     0.917168793974     0.175302017128    12.000000000000
         C            3.288057841904    -0.227376206026    -0.026237982872    12.000000000000
         C           -1.785915158096     0.128939793974     0.062759017128    12.000000000000
         H            2.158110841904     1.549080793974    -0.557343982872     1.007825032230
         H            2.121163841904     1.182787793974     1.150533017128     1.007825032230
         H           -0.373254058096     1.382772793974     1.165060917128     1.007825032230
         H           -0.420134158096     1.723214793974    -0.568991982872     1.007825032230
         H            3.255093841904    -1.038473206026     0.704910017128     1.007825032230
         H            3.276539841904    -0.674146206026    -1.022451982872     1.007825032230
         H            4.231179841904     0.310997793974     0.100102017128     1.007825032230

  Basis Set: AUG-CC-PVTZ
    Blend: AUG-CC-PVTZ
  Basis Set: (AUG-CC-PVTZ AUX)
    Blend: AUG-CC-PVTZ-JKFIT
	 Reference Energy          =    -418.1943784599923788 [Eh]
	 Singles Energy            =      -0.0000000000000000 [Eh]
	 Same-Spin Energy          =      -0.4164095864199217 [Eh]
	 Opposite-Spin Energy      =      -1.2929918433286585 [Eh]
	 Correlation Energy        =      -1.7094014297485800 [Eh]
	 Total Energy              =    -419.9037798897409743 [Eh]

	 ================> DF-SCS-MP2 Energies <==================
	-----------------------------------------------------------
	 SCS Same-Spin Scale       =       0.3333333333333333 [-]
	 SCS Opposite-Spin Scale   =       1.2000000000000000 [-]
	 SCS Same-Spin Energy      =      -0.1388031954733072 [Eh]
	 SCS Opposite-Spin Energy  =      -1.5515902119943901 [Eh]
	 SCS Correlation Energy    =      -1.6903934074676972 [Eh]
	 SCS Total Energy          =    -419.8847718674600742 [Eh]
	-----------------------------------------------------------

  Dipole Moment: [D]
     X:    10.0168      Y:     3.4813      Z:     0.6466     Total:    10.6242

*** Psi4 exiting successfully. Buy a developer a beer!
