                               Psi4 1.3.2 release

  ==> Input File <==

--------------------------------------------------------------------------
#psi4
#
memory 32 gb

molecule  {
-1 1
  O        0.5632720    -1.1719080    -0.3765930
  O       -2.2370500    -0.5589400     1.0879600
  O       -2.5032960     0.1554020    -1.0563790
  C        1.9927080     0.6815170     0.1510220
  C        0.6435570     0.0091630    -0.0366810
  C       -0.5777410     0.8814240     0.1686100
  C        3.1729130    -0.2631210    -0.0329300
  C       -1.9867455     0.0421568     0.0487798
  H        2.0429660     1.5133360    -0.5640360
  H        2.0060190     1.1470430     1.1438410
  H       -0.4967450     1.3515110     1.1569670
  H       -0.5352790     1.6874700    -0.5756840
  H        3.1399490    -1.0742180     0.6982180
  H        3.1613950    -0.7098910    -1.0291440
  H        4.1160350     0.2752530     0.0934100
units angstrom
no_reorient  #important for SAPT in psi4, default
symmetry c1  #important for SAPT in psi4, default
}

set PROPERTIES_ORIGIN ["COM"]
properties('MP2/aug-cc-pvtz', properties = ['dipole'])
--------------------------------------------------------------------------

    Molecular point group: c1
  Charge       = -1
  Multiplicity = 1
  Basis Set: AUG-CC-PVTZ
    Blend: AUG-CC-PVTZ
  Basis Set: (AUG-CC-PVTZ AUX)
    Blend: AUG-CC-PVTZ-JKFIT

    Orbital Energies [Eh]
    ---------------------

    Doubly Occupied:

       1A    -20.402949     2A    -20.303268     3A    -20.301498
       4A    -11.191615     5A    -11.148616     6A    -11.123888
       7A    -11.116401     8A    -11.067924     9A     -1.232524
      10A     -1.190506    11A     -1.100033    12A     -0.943508
      13A     -0.850496    14A     -0.755151    15A     -0.599889
      16A     -0.526196    17A     -0.521211    18A     -0.520129
      19A     -0.469167    20A     -0.444104    21A     -0.439002
      22A     -0.411890    23A     -0.410606    24A     -0.402506
      25A     -0.383826    26A     -0.360455    27A     -0.340042
      28A     -0.272796    29A     -0.227920    30A     -0.209264
      31A     -0.188065

  @DF-RHF Final Energy:  -418.19552272816276

   => Energetics <=

    Nuclear Repulsion Energy =            356.5418198680196156
    One-Electron Energy =               -1290.5637964658699275
    Two-Electron Energy =                 515.8264538696876116
    Total Energy =                       -418.1955227281627003
  Basis Set: (AUG-CC-PVTZ AUX)
    Blend: AUG-CC-PVTZ-RI
    Molecular point group: c1

    Geometry (in Angstrom), charge = -1, multiplicity = 1:

       Center              X                  Y                   Z               Mass
    ------------   -----------------  -----------------  -----------------  -----------------
         O            0.687891608638    -1.130512209520    -0.367882698444    15.994914619570
         O           -2.112430391362    -0.517544209520     1.096670301556    15.994914619570
         O           -2.378676391362     0.196797790480    -1.047668698444    15.994914619570
         C            2.117327608638     0.722912790480     0.159732301556    12.000000000000
         C            0.768176608638     0.050558790480    -0.027970698444    12.000000000000
         C           -0.453121391362     0.922819790480     0.177320301556    12.000000000000
         C            3.297532608638    -0.221725209520    -0.024219698444    12.000000000000
         C           -1.862125891362     0.083552590480     0.057490101556    12.000000000000
         H            2.167585608638     1.554731790480    -0.555325698444     1.007825032230
         H            2.130638608638     1.188438790480     1.152551301556     1.007825032230
         H           -0.372125391362     1.392906790480     1.165677301556     1.007825032230
         H           -0.410659391362     1.728865790480    -0.566973698444     1.007825032230
         H            3.264568608638    -1.032822209520     0.706928301556     1.007825032230
         H            3.286014608638    -0.668495209520    -1.020433698444     1.007825032230
         H            4.240654608638     0.316648790480     0.102120301556     1.007825032230

  Basis Set: AUG-CC-PVTZ
    Blend: AUG-CC-PVTZ
  Basis Set: (AUG-CC-PVTZ AUX)
    Blend: AUG-CC-PVTZ-JKFIT
	 Reference Energy          =    -418.1955227281627572 [Eh]
	 Singles Energy            =      -0.0000000000000000 [Eh]
	 Same-Spin Energy          =      -0.4150129203288461 [Eh]
	 Opposite-Spin Energy      =      -1.2892468083715110 [Eh]
	 Correlation Energy        =      -1.7042597287003569 [Eh]
	 Total Energy              =    -419.8997824568631358 [Eh]

	 ================> DF-SCS-MP2 Energies <==================
	-----------------------------------------------------------
	 SCS Same-Spin Scale       =       0.3333333333333333 [-]
	 SCS Opposite-Spin Scale   =       1.2000000000000000 [-]
	 SCS Same-Spin Energy      =      -0.1383376401096154 [Eh]
	 SCS Opposite-Spin Energy  =      -1.5470961700458130 [Eh]
	 SCS Correlation Energy    =      -1.6854338101554283 [Eh]
	 SCS Total Energy          =    -419.8809565383181734 [Eh]
	-----------------------------------------------------------

  Dipole Moment: [D]
     X:     9.1919      Y:     3.1426      Z:     0.5895     Total:     9.7321

*** Psi4 exiting successfully. Buy a developer a beer!
