                               Psi4 1.3.2 release

  ==> Input File <==

--------------------------------------------------------------------------
#psi4
#
memory 32 gb

molecule  {
-1 1
  O        0.5632720    -1.1719080    -0.3765930
  O       -2.2370500    -0.5589400     1.0879600
  O       -2.5032960     0.1554020    -1.0563790
  C        1.9927080     0.6815170     0.1510220
  C        0.6435570     0.0091630    -0.0366810
  C       -0.5777410     0.8814240     0.1686100
  C        3.1729130    -0.2631210    -0.0329300
  C       -1.8977909     0.0896175     0.0434911
  H        2.0429660     1.5133360    -0.5640360
  H        2.0060190     1.1470430     1.1438410
  H       -0.4882586     1.3551856     1.1544774
  H       -0.5352790     1.6874700    -0.5756840
  H        3.1399490    -1.0742180     0.6982180
  H        3.1613950    -0.7098910    -1.0291440
  H        4.1160350     0.2752530     0.0934100
units angstrom
no_reorient  #important for SAPT in psi4, default
symmetry c1  #important for SAPT in psi4, default
}

set PROPERTIES_ORIGIN ["COM"]
properties('MP2/aug-cc-pvtz', properties = ['dipole'])
--------------------------------------------------------------------------

    Molecular point group: c1
  Charge       = -1
  Multiplicity = 1
  Basis Set: AUG-CC-PVTZ
    Blend: AUG-CC-PVTZ
  Basis Set: (AUG-CC-PVTZ AUX)
    Blend: AUG-CC-PVTZ-JKFIT

    Orbital Energies [Eh]
    ---------------------

    Doubly Occupied:

       1A    -20.410125     2A    -20.298953     3A    -20.292132
       4A    -11.199910     5A    -11.146300     6A    -11.130203
       7A    -11.120828     8A    -11.082976     9A     -1.239473
      10A     -1.164485    11A     -1.063468    12A     -0.949823
      13A     -0.868212    14A     -0.766835    15A     -0.611484
      16A     -0.538579    17A     -0.530010    18A     -0.526271
      19A     -0.471197    20A     -0.454467    21A     -0.439757
      22A     -0.411060    23A     -0.407798    24A     -0.403303
      25A     -0.377101    26A     -0.346585    27A     -0.336275
      28A     -0.280302    29A     -0.211018    30A     -0.206257
      31A     -0.192357

  @DF-RHF Final Energy:  -418.19541040827289

   => Energetics <=

    Nuclear Repulsion Energy =            356.7481367212868122
    One-Electron Energy =               -1290.9320076127889934
    Two-Electron Energy =                 515.9884604832293462
    Total Energy =                       -418.1954104082728918
  Basis Set: (AUG-CC-PVTZ AUX)
    Blend: AUG-CC-PVTZ-RI
    Molecular point group: c1

    Geometry (in Angstrom), charge = -1, multiplicity = 1:

       Center              X                  Y                   Z               Mass
    ------------   -----------------  -----------------  -----------------  -----------------
         O            0.678538231512    -1.135495121118    -0.367309213074    15.994914619570
         O           -2.121783768488    -0.522527121118     1.097243786926    15.994914619570
         O           -2.388029768488     0.191814878882    -1.047095213074    15.994914619570
         C            2.107974231512     0.717929878882     0.160305786926    12.000000000000
         C            0.758823231512     0.045575878882    -0.027397213074    12.000000000000
         C           -0.462474768488     0.917836878882     0.177893786926    12.000000000000
         C            3.288179231512    -0.226708121118    -0.023646213074    12.000000000000
         C           -1.782524668488     0.126030378882     0.052774886926    12.000000000000
         H            2.158232231512     1.549748878882    -0.554752213074     1.007825032230
         H            2.121285231512     1.183455878882     1.153124786926     1.007825032230
         H           -0.372992368488     1.391598478882     1.163761186926     1.007825032230
         H           -0.420012768488     1.723882878882    -0.566400213074     1.007825032230
         H            3.255215231512    -1.037805121118     0.707501786926     1.007825032230
         H            3.276661231512    -0.673478121118    -1.019860213074     1.007825032230
         H            4.231301231512     0.311665878882     0.102693786926     1.007825032230

  Basis Set: AUG-CC-PVTZ
    Blend: AUG-CC-PVTZ
  Basis Set: (AUG-CC-PVTZ AUX)
    Blend: AUG-CC-PVTZ-JKFIT
	 Reference Energy          =    -418.1954104082728918 [Eh]
	 Singles Energy            =      -0.0000000000000000 [Eh]
	 Same-Spin Energy          =      -0.4161918293523835 [Eh]
	 Opposite-Spin Energy      =      -1.2925157450228184 [Eh]
	 Correlation Energy        =      -1.7087075743752020 [Eh]
	 Total Energy              =    -419.9041179826480743 [Eh]

	 ================> DF-SCS-MP2 Energies <==================
	-----------------------------------------------------------
	 SCS Same-Spin Scale       =       0.3333333333333333 [-]
	 SCS Opposite-Spin Scale   =       1.2000000000000000 [-]
	 SCS Same-Spin Energy      =      -0.1387306097841278 [Eh]
	 SCS Opposite-Spin Energy  =      -1.5510188940273821 [Eh]
	 SCS Correlation Energy    =      -1.6897495038115100 [Eh]
	 SCS Total Energy          =    -419.8851599120844185 [Eh]
	-----------------------------------------------------------

  Dipole Moment: [D]
     X:     9.9808      Y:     3.4930      Z:     0.5262     Total:    10.5875

*** Psi4 exiting successfully. Buy a developer a beer!
