                               Psi4 1.3.2 release

  ==> Input File <==

--------------------------------------------------------------------------
#psi4
#
memory 32 gb

molecule  {
-1 1
  O        0.4990986    -1.1656405    -0.3770969
  O       -2.2370500    -0.5589400     1.0879600
  O       -2.5032960     0.1554020    -1.0563790
  C        1.9927080     0.6815170     0.1510220
  C        0.6435570     0.0091630    -0.0366810
  C       -0.6228861     0.8191696     0.1492317
  C        3.1729130    -0.2631210    -0.0329300
  C       -1.9010600     0.0931950     0.0560670
  H        2.0429660     1.5133360    -0.5640360
  H        2.0060190     1.1470430     1.1438410
  H       -0.4967450     1.3515110     1.1569670
  H       -0.5352790     1.6874700    -0.5756840
  H        3.1399490    -1.0742180     0.6982180
  H        3.1613950    -0.7098910    -1.0291440
  H        4.1160350     0.2752530     0.0934100
units angstrom
no_reorient  #important for SAPT in psi4, default
symmetry c1  #important for SAPT in psi4, default
}

set PROPERTIES_ORIGIN ["COM"]
properties('MP2/aug-cc-pvtz', properties = ['dipole'])
--------------------------------------------------------------------------

    Molecular point group: c1
  Charge       = -1
  Multiplicity = 1
  Basis Set: AUG-CC-PVTZ
    Blend: AUG-CC-PVTZ
  Basis Set: (AUG-CC-PVTZ AUX)
    Blend: AUG-CC-PVTZ-JKFIT

    Orbital Energies [Eh]
    ---------------------

    Doubly Occupied:

       1A    -20.407887     2A    -20.293669     3A    -20.291699
       4A    -11.200026     5A    -11.139302     6A    -11.136119
       7A    -11.124707     8A    -11.086472     9A     -1.239169
      10A     -1.164075    11A     -1.062440    12A     -0.952923
      13A     -0.866558    14A     -0.772293    15A     -0.618303
      16A     -0.545981    17A     -0.529414    18A     -0.528100
      19A     -0.467114    20A     -0.446688    21A     -0.442356
      22A     -0.416529    23A     -0.409984    24A     -0.405189
      25A     -0.372914    26A     -0.339000    27A     -0.329575
      28A     -0.276351    29A     -0.212284    30A     -0.206922
      31A     -0.189907

  @DF-RHF Final Energy:  -418.18582461156177

   => Energetics <=

    Nuclear Repulsion Energy =            357.9375165901619198
    One-Electron Energy =               -1293.2987844387696441
    Two-Electron Energy =                 517.1754432370458971
    Total Energy =                       -418.1858246115617703
  Basis Set: (AUG-CC-PVTZ AUX)
    Blend: AUG-CC-PVTZ-RI
    Molecular point group: c1

    Geometry (in Angstrom), charge = -1, multiplicity = 1:

       Center              X                  Y                   Z               Mass
    ------------   -----------------  -----------------  -----------------  -----------------
         O            0.628411928310    -1.123946148879    -0.367055290397    15.994914619570
         O           -2.107736671690    -0.517245648879     1.098001609603    15.994914619570
         O           -2.373982671690     0.197096351121    -1.046337390397    15.994914619570
         C            2.122021328310     0.723211351121     0.161063609603    12.000000000000
         C            0.772870328310     0.050857351121    -0.026639390397    12.000000000000
         C           -0.493572771690     0.860863951121     0.159273309603    12.000000000000
         C            3.302226328310    -0.221426648879    -0.022888390397    12.000000000000
         C           -1.771746671690     0.134889351121     0.066108609603    12.000000000000
         H            2.172279328310     1.555030351121    -0.553994390397     1.007825032230
         H            2.135332328310     1.188737351121     1.153882609603     1.007825032230
         H           -0.367431671690     1.393205351121     1.167008609603     1.007825032230
         H           -0.405965671690     1.729164351121    -0.565642390397     1.007825032230
         H            3.269262328310    -1.032523648879     0.708259609603     1.007825032230
         H            3.290708328310    -0.668196648879    -1.019102390397     1.007825032230
         H            4.245348328310     0.316947351121     0.103451609603     1.007825032230

  Basis Set: AUG-CC-PVTZ
    Blend: AUG-CC-PVTZ
  Basis Set: (AUG-CC-PVTZ AUX)
    Blend: AUG-CC-PVTZ-JKFIT
	 Reference Energy          =    -418.1858246115617703 [Eh]
	 Singles Energy            =      -0.0000000000000000 [Eh]
	 Same-Spin Energy          =      -0.4167525872787230 [Eh]
	 Opposite-Spin Energy      =      -1.2936581814648842 [Eh]
	 Correlation Energy        =      -1.7104107687436072 [Eh]
	 Total Energy              =    -419.8962353803053702 [Eh]

	 ================> DF-SCS-MP2 Energies <==================
	-----------------------------------------------------------
	 SCS Same-Spin Scale       =       0.3333333333333333 [-]
	 SCS Opposite-Spin Scale   =       1.2000000000000000 [-]
	 SCS Same-Spin Energy      =      -0.1389175290929077 [Eh]
	 SCS Opposite-Spin Energy  =      -1.5523898177578610 [Eh]
	 SCS Correlation Energy    =      -1.6913073468507687 [Eh]
	 SCS Total Energy          =    -419.8771319584125195 [Eh]
	-----------------------------------------------------------

  Dipole Moment: [D]
     X:    10.2463      Y:     3.4296      Z:     0.6144     Total:    10.8225

*** Psi4 exiting successfully. Buy a developer a beer!
