                               Psi4 1.3.2 release

  ==> Input File <==

--------------------------------------------------------------------------
#psi4
#
memory 32 gb

molecule  {
-1 1
  O        0.5632720    -1.1719080    -0.3765930
  O       -2.2370500    -0.5589400     1.0879600
  O       -2.5032960     0.1554020    -1.0563790
  C        1.9927080     0.6815170     0.1510220
  C        0.6435570     0.0091630    -0.0366810
  C       -0.5777410     0.8814240     0.1686100
  C        3.1729130    -0.2631210    -0.0329300
  C       -1.9185500     0.1159106     0.1316687
  H        2.0429660     1.5133360    -0.5640360
  H        2.0060190     1.1470430     1.1438410
  H       -0.5477700     1.3287215     1.1703177
  H       -0.5352790     1.6874700    -0.5756840
  H        3.1399490    -1.0742180     0.6982180
  H        3.1613950    -0.7098910    -1.0291440
  H        4.1160350     0.2752530     0.0934100
units angstrom
no_reorient  #important for SAPT in psi4, default
symmetry c1  #important for SAPT in psi4, default
}

set PROPERTIES_ORIGIN ["COM"]
properties('MP2/aug-cc-pvtz', properties = ['dipole'])
--------------------------------------------------------------------------

    Molecular point group: c1
  Charge       = -1
  Multiplicity = 1
  Basis Set: AUG-CC-PVTZ
    Blend: AUG-CC-PVTZ
  Basis Set: (AUG-CC-PVTZ AUX)
    Blend: AUG-CC-PVTZ-JKFIT

    Orbital Energies [Eh]
    ---------------------

    Doubly Occupied:

       1A    -20.410687     2A    -20.310080     3A    -20.281952
       4A    -11.201029     5A    -11.145355     6A    -11.130663
       7A    -11.121152     8A    -11.082759     9A     -1.239711
      10A     -1.180684    11A     -1.048280    12A     -0.949970
      13A     -0.867571    14A     -0.767558    15A     -0.613503
      16A     -0.539054    17A     -0.529377    18A     -0.526141
      19A     -0.472977    20A     -0.455666    21A     -0.440990
      22A     -0.412700    23A     -0.408066    24A     -0.403378
      25A     -0.375956    26A     -0.349212    27A     -0.339044
      28A     -0.280612    29A     -0.213779    30A     -0.197268
      31A     -0.188456

  @DF-RHF Final Energy:  -418.18692686590259

   => Energetics <=

    Nuclear Repulsion Energy =            356.5145636834363927
    One-Electron Energy =               -1290.4357176402229470
    Two-Electron Energy =                 515.7342270908840192
    Total Energy =                       -418.1869268659025920
  Basis Set: (AUG-CC-PVTZ AUX)
    Blend: AUG-CC-PVTZ-RI
    Molecular point group: c1

    Geometry (in Angstrom), charge = -1, multiplicity = 1:

       Center              X                  Y                   Z               Mass
    ------------   -----------------  -----------------  -----------------  -----------------
         O            0.681225014985    -1.138005962783    -0.376645964995    15.994914619570
         O           -2.119096985015    -0.525037962783     1.087907035005    15.994914619570
         O           -2.385342985015     0.189304037217    -1.056431964995    15.994914619570
         C            2.110661014985     0.715419037217     0.150969035005    12.000000000000
         C            0.761510014985     0.043065037217    -0.036733964995    12.000000000000
         C           -0.459787985015     0.915326037217     0.168557035005    12.000000000000
         C            3.290866014985    -0.229218962783    -0.032982964995    12.000000000000
         C           -1.800596985015     0.149812637217     0.131615735005    12.000000000000
         H            2.160919014985     1.547238037217    -0.564088964995     1.007825032230
         H            2.123972014985     1.180945037217     1.143788035005     1.007825032230
         H           -0.429816985015     1.362623537217     1.170264735005     1.007825032230
         H           -0.417325985015     1.721372037217    -0.575736964995     1.007825032230
         H            3.257902014985    -1.040315962783     0.698165035005     1.007825032230
         H            3.279348014985    -0.675988962783    -1.029196964995     1.007825032230
         H            4.233988014985     0.309155037217     0.093357035005     1.007825032230

  Basis Set: AUG-CC-PVTZ
    Blend: AUG-CC-PVTZ
  Basis Set: (AUG-CC-PVTZ AUX)
    Blend: AUG-CC-PVTZ-JKFIT
	 Reference Energy          =    -418.1869268659025920 [Eh]
	 Singles Energy            =      -0.0000000000000000 [Eh]
	 Same-Spin Energy          =      -0.4163902126740225 [Eh]
	 Opposite-Spin Energy      =      -1.2931125697359773 [Eh]
	 Correlation Energy        =      -1.7095027824100000 [Eh]
	 Total Energy              =    -419.8964296483126191 [Eh]

	 ================> DF-SCS-MP2 Energies <==================
	-----------------------------------------------------------
	 SCS Same-Spin Scale       =       0.3333333333333333 [-]
	 SCS Opposite-Spin Scale   =       1.2000000000000000 [-]
	 SCS Same-Spin Energy      =      -0.1387967375580075 [Eh]
	 SCS Opposite-Spin Energy  =      -1.5517350836831727 [Eh]
	 SCS Correlation Energy    =      -1.6905318212411802 [Eh]
	 SCS Total Energy          =    -419.8774586871437577 [Eh]
	-----------------------------------------------------------

  Dipole Moment: [D]
     X:    10.0695      Y:     3.2553      Z:     1.2683     Total:    10.6584

*** Psi4 exiting successfully. Buy a developer a beer!
