                               Psi4 1.3.2 release

  ==> Input File <==

--------------------------------------------------------------------------
#psi4
#
memory 32 gb

molecule  {
-1 1
  O        0.5632720    -1.1719080    -0.3765930
  O       -2.2370500    -0.5589400     1.0879600
  O       -2.5032960     0.1554020    -1.0563790
  C        1.9927080     0.6815170     0.1510220
  C        0.6740473     0.0517359    -0.0293702
  C       -0.5777410     0.8814240     0.1686100
  C        3.1729130    -0.2631210    -0.0329300
  C       -1.9279961     0.1388837     0.0657065
  H        2.0429660     1.5133360    -0.5640360
  H        2.0060190     1.1470430     1.1438410
  H       -0.4967450     1.3515110     1.1569670
  H       -0.5352790     1.6874700    -0.5756840
  H        3.1399490    -1.0742180     0.6982180
  H        3.1613950    -0.7098910    -1.0291440
  H        4.1160350     0.2752530     0.0934100
units angstrom
no_reorient  #important for SAPT in psi4, default
symmetry c1  #important for SAPT in psi4, default
}

set PROPERTIES_ORIGIN ["COM"]
properties('MP2/aug-cc-pvtz', properties = ['dipole'])
--------------------------------------------------------------------------

    Molecular point group: c1
  Charge       = -1
  Multiplicity = 1
  Basis Set: AUG-CC-PVTZ
    Blend: AUG-CC-PVTZ
  Basis Set: (AUG-CC-PVTZ AUX)
    Blend: AUG-CC-PVTZ-JKFIT

    Orbital Energies [Eh]
    ---------------------

    Doubly Occupied:

       1A    -20.405984     2A    -20.298999     3A    -20.293156
       4A    -11.203692     5A    -11.147534     6A    -11.133476
       7A    -11.123230     8A    -11.085221     9A     -1.210390
      10A     -1.162972    11A     -1.062385    12A     -0.959023
      13A     -0.869585    14A     -0.775510    15A     -0.614775
      16A     -0.540947    17A     -0.531135    18A     -0.523083
      19A     -0.465676    20A     -0.454244    21A     -0.436703
      22A     -0.413533    23A     -0.405899    24A     -0.403659
      25A     -0.375698    26A     -0.336154    27A     -0.327918
      28A     -0.282947    29A     -0.211205    30A     -0.207581
      31A     -0.191326

  @DF-RHF Final Energy:  -418.18245446358105

   => Energetics <=

    Nuclear Repulsion Energy =            355.9896259413952180
    One-Electron Energy =               -1289.4368830879759571
    Two-Electron Energy =                 515.2648026829997434
    Total Energy =                       -418.1824544635810526
  Basis Set: (AUG-CC-PVTZ AUX)
    Blend: AUG-CC-PVTZ-RI
    Molecular point group: c1

    Geometry (in Angstrom), charge = -1, multiplicity = 1:

       Center              X                  Y                   Z               Mass
    ------------   -----------------  -----------------  -----------------  -----------------
         O            0.678582838847    -1.145042847455    -0.370410960056    15.994914619570
         O           -2.121739161153    -0.532074847455     1.094142039944    15.994914619570
         O           -2.387985161153     0.182267152545    -1.050196960056    15.994914619570
         C            2.108018838847     0.708382152545     0.157204039944    12.000000000000
         C            0.789358138847     0.078601052545    -0.023188160056    12.000000000000
         C           -0.462430161153     0.908289152545     0.174792039944    12.000000000000
         C            3.288223838847    -0.236255847455    -0.026747960056    12.000000000000
         C           -1.812685261153     0.165748852545     0.071888539944    12.000000000000
         H            2.158276838847     1.540201152545    -0.557853960056     1.007825032230
         H            2.121329838847     1.173908152545     1.150023039944     1.007825032230
         H           -0.381434161153     1.378376152545     1.163149039944     1.007825032230
         H           -0.419968161153     1.714335152545    -0.569501960056     1.007825032230
         H            3.255259838847    -1.047352847455     0.704400039944     1.007825032230
         H            3.276705838847    -0.683025847455    -1.022961960056     1.007825032230
         H            4.231345838847     0.302118152545     0.099592039944     1.007825032230

  Basis Set: AUG-CC-PVTZ
    Blend: AUG-CC-PVTZ
  Basis Set: (AUG-CC-PVTZ AUX)
    Blend: AUG-CC-PVTZ-JKFIT
	 Reference Energy          =    -418.1824544635810526 [Eh]
	 Singles Energy            =      -0.0000000000000000 [Eh]
	 Same-Spin Energy          =      -0.4179194312137716 [Eh]
	 Opposite-Spin Energy      =      -1.2962238649011542 [Eh]
	 Correlation Energy        =      -1.7141432961149259 [Eh]
	 Total Energy              =    -419.8965977596959647 [Eh]

	 ================> DF-SCS-MP2 Energies <==================
	-----------------------------------------------------------
	 SCS Same-Spin Scale       =       0.3333333333333333 [-]
	 SCS Opposite-Spin Scale   =       1.2000000000000000 [-]
	 SCS Same-Spin Energy      =      -0.1393064770712572 [Eh]
	 SCS Opposite-Spin Energy  =      -1.5554686378813849 [Eh]
	 SCS Correlation Energy    =      -1.6947751149526420 [Eh]
	 SCS Total Energy          =    -419.8772295785336723 [Eh]
	-----------------------------------------------------------

  Dipole Moment: [D]
     X:    10.1198      Y:     3.6580      Z:     0.5997     Total:    10.7773

*** Psi4 exiting successfully. Buy a developer a beer!
