                               Psi4 1.3.2 release

  ==> Input File <==

--------------------------------------------------------------------------
#psi4
#
memory 32 gb

molecule  {
-1 1
  O        0.5632720    -1.1719080    -0.3765930
  O       -2.2548964    -0.5663407     1.0772354
  O       -2.5188403     0.1418008    -1.0485048
  C        1.9927080     0.6815170     0.1510220
  C        0.6435570     0.0091630    -0.0366810
  C       -0.5777410     0.8814240     0.1686100
  C        3.1729130    -0.2631210    -0.0329300
  C       -1.9010600     0.0931950     0.0560670
  H        2.0429660     1.5133360    -0.5640360
  H        2.0060190     1.1470430     1.1438410
  H       -0.4967450     1.3515110     1.1569670
  H       -0.5352790     1.6874700    -0.5756840
  H        3.1399490    -1.0742180     0.6982180
  H        3.1613950    -0.7098910    -1.0291440
  H        4.1160350     0.2752530     0.0934100
units angstrom
no_reorient  #important for SAPT in psi4, default
symmetry c1  #important for SAPT in psi4, default
}

set PROPERTIES_ORIGIN ["COM"]
properties('MP2/aug-cc-pvtz', properties = ['dipole'])
--------------------------------------------------------------------------

    Molecular point group: c1
  Charge       = -1
  Multiplicity = 1
  Basis Set: AUG-CC-PVTZ
    Blend: AUG-CC-PVTZ
  Basis Set: (AUG-CC-PVTZ AUX)
    Blend: AUG-CC-PVTZ-JKFIT

    Orbital Energies [Eh]
    ---------------------

    Doubly Occupied:

       1A    -20.411212     2A    -20.294427     3A    -20.292625
       4A    -11.201187     5A    -11.145153     6A    -11.131149
       7A    -11.121504     8A    -11.085380     9A     -1.240434
      10A     -1.163534    11A     -1.060095    12A     -0.950720
      13A     -0.869804    14A     -0.767955    15A     -0.612733
      16A     -0.538610    17A     -0.530992    18A     -0.527167
      19A     -0.471653    20A     -0.455767    21A     -0.439765
      22A     -0.411202    23A     -0.408558    24A     -0.403386
      25A     -0.376086    26A     -0.347428    27A     -0.335283
      28A     -0.281366    29A     -0.208974    30A     -0.206515
      31A     -0.189919

  @DF-RHF Final Energy:  -418.19481286455448

   => Energetics <=

    Nuclear Repulsion Energy =            356.5022924036504151
    One-Electron Energy =               -1290.4330478941424190
    Two-Electron Energy =                 515.7359426259374686
    Total Energy =                       -418.1948128645544784
  Basis Set: (AUG-CC-PVTZ AUX)
    Blend: AUG-CC-PVTZ-RI
    Molecular point group: c1

    Geometry (in Angstrom), charge = -1, multiplicity = 1:

       Center              X                  Y                   Z               Mass
    ------------   -----------------  -----------------  -----------------  -----------------
         O            0.683596175135    -1.132916033918    -0.368246525551    15.994914619570
         O           -2.134572224865    -0.527348733918     1.085581874449    15.994914619570
         O           -2.398516124865     0.180792766082    -1.040158325551    15.994914619570
         C            2.113032175135     0.720508966082     0.159368474449    12.000000000000
         C            0.763881175135     0.048154966082    -0.028334525551    12.000000000000
         C           -0.457416824865     0.920415966082     0.176956474449    12.000000000000
         C            3.293237175135    -0.224129033918    -0.024583525551    12.000000000000
         C           -1.780735824865     0.132186966082     0.064413474449    12.000000000000
         H            2.163290175135     1.552327966082    -0.555689525551     1.007825032230
         H            2.126343175135     1.186034966082     1.152187474449     1.007825032230
         H           -0.376420824865     1.390502966082     1.165313474449     1.007825032230
         H           -0.414954824865     1.726461966082    -0.567337525551     1.007825032230
         H            3.260273175135    -1.035226033918     0.706564474449     1.007825032230
         H            3.281719175135    -0.670899033918    -1.020797525551     1.007825032230
         H            4.236359175135     0.314244966082     0.101756474449     1.007825032230

  Basis Set: AUG-CC-PVTZ
    Blend: AUG-CC-PVTZ
  Basis Set: (AUG-CC-PVTZ AUX)
    Blend: AUG-CC-PVTZ-JKFIT
	 Reference Energy          =    -418.1948128645544784 [Eh]
	 Singles Energy            =      -0.0000000000000000 [Eh]
	 Same-Spin Energy          =      -0.4161598687686014 [Eh]
	 Opposite-Spin Energy      =      -1.2925113338840215 [Eh]
	 Correlation Energy        =      -1.7086712026526230 [Eh]
	 Total Energy              =    -419.9034840672071027 [Eh]

	 ================> DF-SCS-MP2 Energies <==================
	-----------------------------------------------------------
	 SCS Same-Spin Scale       =       0.3333333333333333 [-]
	 SCS Opposite-Spin Scale   =       1.2000000000000000 [-]
	 SCS Same-Spin Energy      =      -0.1387199562562005 [Eh]
	 SCS Opposite-Spin Energy  =      -1.5510136006608257 [Eh]
	 SCS Correlation Energy    =      -1.6897335569170262 [Eh]
	 SCS Total Energy          =    -419.8845464214714980 [Eh]
	-----------------------------------------------------------

  Dipole Moment: [D]
     X:    10.1065      Y:     3.5109      Z:     0.6384     Total:    10.7180

*** Psi4 exiting successfully. Buy a developer a beer!
