                               Psi4 1.3.2 release

  ==> Input File <==

--------------------------------------------------------------------------
#psi4
#
memory 32 gb

molecule  {
-1 1
  O        0.5632720    -1.1719080    -0.3765930
  O       -2.2370500    -0.5589400     1.0879600
  O       -2.5032960     0.1554020    -1.0563790
  C        1.9927080     0.6815170     0.1510220
  C        0.6375259     0.0207073    -0.0342153
  C       -0.5777410     0.8814240     0.1686100
  C        3.1812596    -0.2530855    -0.0304341
  C       -1.9010600     0.0931950     0.0560670
  H        2.0429660     1.5133360    -0.5640360
  H        2.0060190     1.1470430     1.1438410
  H       -0.4967450     1.3515110     1.1569670
  H       -0.5352790     1.6874700    -0.5756840
  H        3.1399490    -1.0742180     0.6982180
  H        3.1613950    -0.7098910    -1.0291440
  H        4.1160350     0.2752530     0.0934100
units angstrom
no_reorient  #important for SAPT in psi4, default
symmetry c1  #important for SAPT in psi4, default
}

set PROPERTIES_ORIGIN ["COM"]
properties('MP2/aug-cc-pvtz', properties = ['dipole'])
--------------------------------------------------------------------------

    Molecular point group: c1
  Charge       = -1
  Multiplicity = 1
  Basis Set: AUG-CC-PVTZ
    Blend: AUG-CC-PVTZ
  Basis Set: (AUG-CC-PVTZ AUX)
    Blend: AUG-CC-PVTZ-JKFIT

    Orbital Energies [Eh]
    ---------------------

    Doubly Occupied:

       1A    -20.409081     2A    -20.296954     3A    -20.295125
       4A    -11.201214     5A    -11.146950     6A    -11.130666
       7A    -11.120862     8A    -11.083623     9A     -1.231894
      10A     -1.164310    11A     -1.064467    12A     -0.949935
      13A     -0.871374    14A     -0.767660    15A     -0.611860
      16A     -0.538931    17A     -0.529436    18A     -0.525264
      19A     -0.469321    20A     -0.455019    21A     -0.442323
      22A     -0.412173    23A     -0.405587    24A     -0.401471
      25A     -0.376932    26A     -0.343219    27A     -0.335479
      28A     -0.281994    29A     -0.210782    30A     -0.207928
      31A     -0.192862

  @DF-RHF Final Energy:  -418.19379404341043

   => Energetics <=

    Nuclear Repulsion Energy =            356.5768980111503197
    One-Electron Energy =               -1290.5919818082900292
    Two-Electron Energy =                 515.8212897537292747
    Total Energy =                       -418.1937940434104348
  Basis Set: (AUG-CC-PVTZ AUX)
    Blend: AUG-CC-PVTZ-RI
    Molecular point group: c1

    Geometry (in Angstrom), charge = -1, multiplicity = 1:

       Center              X                  Y                   Z               Mass
    ------------   -----------------  -----------------  -----------------  -----------------
         O            0.678712050096    -1.138087136875    -0.369160395023    15.994914619570
         O           -2.121609949904    -0.525119136875     1.095392604977    15.994914619570
         O           -2.387855949904     0.189222863125    -1.048946395023    15.994914619570
         C            2.108148050096     0.715337863125     0.158454604977    12.000000000000
         C            0.752965950096     0.054528163125    -0.026782695023    12.000000000000
         C           -0.462300949904     0.915244863125     0.176042604977    12.000000000000
         C            3.296699650096    -0.219264636875    -0.023001495023    12.000000000000
         C           -1.785619949904     0.127015863125     0.063499604977    12.000000000000
         H            2.158406050096     1.547156863125    -0.556603395023     1.007825032230
         H            2.121459050096     1.180863863125     1.151273604977     1.007825032230
         H           -0.381304949904     1.385331863125     1.164399604977     1.007825032230
         H           -0.419838949904     1.721290863125    -0.568251395023     1.007825032230
         H            3.255389050096    -1.040397136875     0.705650604977     1.007825032230
         H            3.276835050096    -0.676070136875    -1.021711395023     1.007825032230
         H            4.231475050096     0.309073863125     0.100842604977     1.007825032230

  Basis Set: AUG-CC-PVTZ
    Blend: AUG-CC-PVTZ
  Basis Set: (AUG-CC-PVTZ AUX)
    Blend: AUG-CC-PVTZ-JKFIT
	 Reference Energy          =    -418.1937940434104348 [Eh]
	 Singles Energy            =      -0.0000000000000000 [Eh]
	 Same-Spin Energy          =      -0.4165683591055097 [Eh]
	 Opposite-Spin Energy      =      -1.2932851421148333 [Eh]
	 Correlation Energy        =      -1.7098535012203429 [Eh]
	 Total Energy              =    -419.9036475446307577 [Eh]

	 ================> DF-SCS-MP2 Energies <==================
	-----------------------------------------------------------
	 SCS Same-Spin Scale       =       0.3333333333333333 [-]
	 SCS Opposite-Spin Scale   =       1.2000000000000000 [-]
	 SCS Same-Spin Energy      =      -0.1388561197018366 [Eh]
	 SCS Opposite-Spin Energy  =      -1.5519421705377998 [Eh]
	 SCS Correlation Energy    =      -1.6907982902396363 [Eh]
	 SCS Total Energy          =    -419.8845923336500618 [Eh]
	-----------------------------------------------------------

  Dipole Moment: [D]
     X:     9.9550      Y:     3.5185      Z:     0.6485     Total:    10.5784

*** Psi4 exiting successfully. Buy a developer a beer!
