                               Psi4 1.3.2 release

  ==> Input File <==

--------------------------------------------------------------------------
#psi4
#
memory 32 gb

molecule  {
-1 1
  O        0.5632720    -1.1719080    -0.3765930
  O       -2.2004889    -0.5444194     1.1080949
  O       -2.5032960     0.1554020    -1.0563790
  C        1.9927080     0.6815170     0.1510220
  C        0.6435570     0.0091630    -0.0366810
  C       -0.5723457     0.8633144     0.2190963
  C        3.1729130    -0.2631210    -0.0329300
  C       -1.9010600     0.0931950     0.0560670
  H        2.0429660     1.5133360    -0.5640360
  H        2.0060190     1.1470430     1.1438410
  H       -0.4967450     1.3515110     1.1569670
  H       -0.5352790     1.6874700    -0.5756840
  H        3.1399490    -1.0742180     0.6982180
  H        3.1613950    -0.7098910    -1.0291440
  H        4.1160350     0.2752530     0.0934100
units angstrom
no_reorient  #important for SAPT in psi4, default
symmetry c1  #important for SAPT in psi4, default
}

set PROPERTIES_ORIGIN ["COM"]
properties('MP2/aug-cc-pvtz', properties = ['dipole'])
--------------------------------------------------------------------------

    Molecular point group: c1
  Charge       = -1
  Multiplicity = 1
  Basis Set: AUG-CC-PVTZ
    Blend: AUG-CC-PVTZ
  Basis Set: (AUG-CC-PVTZ AUX)
    Blend: AUG-CC-PVTZ-JKFIT

    Orbital Energies [Eh]
    ---------------------

    Doubly Occupied:

       1A    -20.408759     2A    -20.300493     3A    -20.295269
       4A    -11.198769     5A    -11.147604     6A    -11.129201
       7A    -11.120138     8A    -11.081247     9A     -1.238452
      10A     -1.164731    11A     -1.068227    12A     -0.949030
      13A     -0.867264    14A     -0.765702    15A     -0.611239
      16A     -0.539038    17A     -0.530671    18A     -0.524762
      19A     -0.472563    20A     -0.450909    21A     -0.439363
      22A     -0.410664    23A     -0.407398    24A     -0.403240
      25A     -0.377149    26A     -0.342995    27A     -0.338208
      28A     -0.279727    29A     -0.214515    30A     -0.204368
      31A     -0.195266

  @DF-RHF Final Energy:  -418.19233117221495

   => Energetics <=

    Nuclear Repulsion Energy =            357.0849601656994423
    One-Electron Energy =               -1291.6006591805255539
    Two-Electron Energy =                 516.3233678426112192
    Total Energy =                       -418.1923311722149492
  Basis Set: (AUG-CC-PVTZ AUX)
    Blend: AUG-CC-PVTZ-RI
    Molecular point group: c1

    Geometry (in Angstrom), charge = -1, multiplicity = 1:

       Center              X                  Y                   Z               Mass
    ------------   -----------------  -----------------  -----------------  -----------------
         O            0.673307391959    -1.135965978471    -0.376708691585    15.994914619570
         O           -2.090453508041    -0.508477378471     1.107979208415    15.994914619570
         O           -2.393260608041     0.191344021529    -1.056494691585    15.994914619570
         C            2.102743391959     0.717459021529     0.150906308415    12.000000000000
         C            0.753592391959     0.045105021529    -0.036796691585    12.000000000000
         C           -0.462310308041     0.899256421529     0.218980608415    12.000000000000
         C            3.282948391959    -0.227178978471    -0.033045691585    12.000000000000
         C           -1.791024608041     0.129137021529     0.055951308415    12.000000000000
         H            2.153001391959     1.549278021529    -0.564151691585     1.007825032230
         H            2.116054391959     1.182985021529     1.143725308415     1.007825032230
         H           -0.386709608041     1.387453021529     1.156851308415     1.007825032230
         H           -0.425243608041     1.723412021529    -0.575799691585     1.007825032230
         H            3.249984391959    -1.038275978471     0.698102308415     1.007825032230
         H            3.271430391959    -0.673948978471    -1.029259691585     1.007825032230
         H            4.226070391959     0.311195021529     0.093294308415     1.007825032230

  Basis Set: AUG-CC-PVTZ
    Blend: AUG-CC-PVTZ
  Basis Set: (AUG-CC-PVTZ AUX)
    Blend: AUG-CC-PVTZ-JKFIT
	 Reference Energy          =    -418.1923311722149492 [Eh]
	 Singles Energy            =      -0.0000000000000000 [Eh]
	 Same-Spin Energy          =      -0.4164087682788215 [Eh]
	 Opposite-Spin Energy      =      -1.2928867028243152 [Eh]
	 Correlation Energy        =      -1.7092954711031365 [Eh]
	 Total Energy              =    -419.9016266433180817 [Eh]

	 ================> DF-SCS-MP2 Energies <==================
	-----------------------------------------------------------
	 SCS Same-Spin Scale       =       0.3333333333333333 [-]
	 SCS Opposite-Spin Scale   =       1.2000000000000000 [-]
	 SCS Same-Spin Energy      =      -0.1388029227596072 [Eh]
	 SCS Opposite-Spin Energy  =      -1.5514640433891782 [Eh]
	 SCS Correlation Energy    =      -1.6902669661487852 [Eh]
	 SCS Total Energy          =    -419.8825981383637327 [Eh]
	-----------------------------------------------------------

  Dipole Moment: [D]
     X:     9.8391      Y:     3.3997      Z:     0.6658     Total:    10.4312

*** Psi4 exiting successfully. Buy a developer a beer!
