                               Psi4 1.3.2 release

  ==> Input File <==

--------------------------------------------------------------------------
#psi4
#
memory 32 gb

molecule  {
-1 1
  O        0.5632720    -1.1719080    -0.3765930
  O       -2.2370500    -0.5589400     1.0879600
  O       -2.5032960     0.1554020    -1.0563790
  C        1.9927080     0.6815170     0.1510220
  C        0.6565942     0.2009528     0.0185161
  C       -0.5777410     0.8814240     0.1686100
  C        3.1729130    -0.2631210    -0.0329300
  C       -1.9010600     0.0931950     0.0560670
  H        2.0429660     1.5133360    -0.5640360
  H        2.0060190     1.1470430     1.1438410
  H       -0.4967450     1.3515110     1.1569670
  H       -0.5352790     1.6874700    -0.5756840
  H        3.1399490    -1.0742180     0.6982180
  H        3.1613950    -0.7098910    -1.0291440
  H        4.1160350     0.2752530     0.0934100
units angstrom
no_reorient  #important for SAPT in psi4, default
symmetry c1  #important for SAPT in psi4, default
}

set PROPERTIES_ORIGIN ["COM"]
properties('MP2/aug-cc-pvtz', properties = ['dipole'])
--------------------------------------------------------------------------

    Molecular point group: c1
  Charge       = -1
  Multiplicity = 1
  Basis Set: AUG-CC-PVTZ
    Blend: AUG-CC-PVTZ
  Basis Set: (AUG-CC-PVTZ AUX)
    Blend: AUG-CC-PVTZ-JKFIT

    Orbital Energies [Eh]
    ---------------------

    Doubly Occupied:

       1A    -20.388373     2A    -20.300157     3A    -20.297575
       4A    -11.214819     5A    -11.153942     6A    -11.140303
       7A    -11.126081     8A    -11.092273     9A     -1.169404
      10A     -1.129725    11A     -1.067113    12A     -0.968601
      13A     -0.898876    14A     -0.792083    15A     -0.619093
      16A     -0.548661    17A     -0.538695    18A     -0.517254
      19A     -0.466072    20A     -0.460789    21A     -0.434548
      22A     -0.425914    23A     -0.409516    24A     -0.381264
      25A     -0.365931    26A     -0.333994    27A     -0.280533
      28A     -0.277453    29A     -0.215175    30A     -0.212847
      31A     -0.194066

  @DF-RHF Final Energy:  -418.12139549974069

   => Energetics <=

    Nuclear Repulsion Energy =            355.6387141512469157
    One-Electron Energy =               -1288.6779574979907466
    Two-Electron Energy =                 514.9178478470031450
    Total Energy =                       -418.1213954997407427
  Basis Set: (AUG-CC-PVTZ AUX)
    Blend: AUG-CC-PVTZ-RI
    Molecular point group: c1

    Geometry (in Angstrom), charge = -1, multiplicity = 1:

       Center              X                  Y                   Z               Mass
    ------------   -----------------  -----------------  -----------------  -----------------
         O            0.677593648342    -1.155842078970    -0.374400559489    15.994914619570
         O           -2.122728351658    -0.542874078970     1.090152440511    15.994914619570
         O           -2.388974351658     0.171467921030    -1.054186559489    15.994914619570
         C            2.107029648342     0.697582921030     0.153214440511    12.000000000000
         C            0.770915848342     0.217018721030     0.020708540511    12.000000000000
         C           -0.463419351658     0.897489921030     0.170802440511    12.000000000000
         C            3.287234648342    -0.247055078970    -0.030737559489    12.000000000000
         C           -1.786738351658     0.109260921030     0.058259440511    12.000000000000
         H            2.157287648342     1.529401921030    -0.561843559489     1.007825032230
         H            2.120340648342     1.163108921030     1.146033440511     1.007825032230
         H           -0.382423351658     1.367576921030     1.159159440511     1.007825032230
         H           -0.420957351658     1.703535921030    -0.573491559489     1.007825032230
         H            3.254270648342    -1.058152078970     0.700410440511     1.007825032230
         H            3.275716648342    -0.693825078970    -1.026951559489     1.007825032230
         H            4.230356648342     0.291318921030     0.095602440511     1.007825032230

  Basis Set: AUG-CC-PVTZ
    Blend: AUG-CC-PVTZ
  Basis Set: (AUG-CC-PVTZ AUX)
    Blend: AUG-CC-PVTZ-JKFIT
	 Reference Energy          =    -418.1213954997406859 [Eh]
	 Singles Energy            =      -0.0000000000000000 [Eh]
	 Same-Spin Energy          =      -0.4240120184382896 [Eh]
	 Opposite-Spin Energy      =      -1.3074002176691661 [Eh]
	 Correlation Energy        =      -1.7314122361074558 [Eh]
	 Total Energy              =    -419.8528077358481596 [Eh]

	 ================> DF-SCS-MP2 Energies <==================
	-----------------------------------------------------------
	 SCS Same-Spin Scale       =       0.3333333333333333 [-]
	 SCS Opposite-Spin Scale   =       1.2000000000000000 [-]
	 SCS Same-Spin Energy      =      -0.1413373394794299 [Eh]
	 SCS Opposite-Spin Energy  =      -1.5688802612029993 [Eh]
	 SCS Correlation Energy    =      -1.7102176006824292 [Eh]
	 SCS Total Energy          =    -419.8316131004231124 [Eh]
	-----------------------------------------------------------

  Dipole Moment: [D]
     X:     9.9071      Y:     4.0666      Z:     0.8011     Total:    10.7391

*** Psi4 exiting successfully. Buy a developer a beer!
