                               Psi4 1.3.2 release

  ==> Input File <==

--------------------------------------------------------------------------
#psi4
#
memory 32 gb

molecule  {
-1 1
  O        0.5632720    -1.1719080    -0.3765930
  O       -2.2370500    -0.5589400     1.0879600
  O       -2.5032960     0.1554020    -1.0563790
  C        1.9927080     0.6815170     0.1510220
  C        0.6435570     0.0091630    -0.0366810
  C       -0.5777410     0.8814240     0.1686100
  C        3.1729130    -0.2631210    -0.0329300
  C       -1.9131262     0.1081024     0.1064466
  H        2.0429660     1.5133360    -0.5640360
  H        2.0060190     1.1470430     1.1438410
  H       -0.5307456     1.3364574     1.1661709
  H       -0.5352790     1.6874700    -0.5756840
  H        3.1399490    -1.0742180     0.6982180
  H        3.1613950    -0.7098910    -1.0291440
  H        4.1160350     0.2752530     0.0934100
units angstrom
no_reorient  #important for SAPT in psi4, default
symmetry c1  #important for SAPT in psi4, default
}

set PROPERTIES_ORIGIN ["COM"]
properties('MP2/aug-cc-pvtz', properties = ['dipole'])
--------------------------------------------------------------------------

    Molecular point group: c1
  Charge       = -1
  Multiplicity = 1
  Basis Set: AUG-CC-PVTZ
    Blend: AUG-CC-PVTZ
  Basis Set: (AUG-CC-PVTZ AUX)
    Blend: AUG-CC-PVTZ-JKFIT

    Orbital Energies [Eh]
    ---------------------

    Doubly Occupied:

       1A    -20.410500     2A    -20.304919     3A    -20.286697
       4A    -11.200680     5A    -11.145647     6A    -11.130520
       7A    -11.121052     8A    -11.082691     9A     -1.239595
      10A     -1.171929    11A     -1.056386    12A     -0.949915
      13A     -0.867696    14A     -0.767302    15A     -0.612819
      16A     -0.538280    17A     -0.529625    18A     -0.526284
      19A     -0.471998    20A     -0.455397    21A     -0.439987
      22A     -0.411594    23A     -0.407926    24A     -0.403404
      25A     -0.376544    26A     -0.348126    27A     -0.337230
      28A     -0.280443    29A     -0.213036    30A     -0.201513
      31A     -0.190681

  @DF-RHF Final Energy:  -418.19163860226911

   => Energetics <=

    Nuclear Repulsion Energy =            356.5758614934150614
    One-Electron Energy =               -1290.5741688805637750
    Two-Electron Energy =                 515.8066687848796619
    Total Energy =                       -418.1916386022691086
  Basis Set: (AUG-CC-PVTZ AUX)
    Blend: AUG-CC-PVTZ-RI
    Molecular point group: c1

    Geometry (in Angstrom), charge = -1, multiplicity = 1:

       Center              X                  Y                   Z               Mass
    ------------   -----------------  -----------------  -----------------  -----------------
         O            0.680510102256    -1.137259245767    -0.373978668998    15.994914619570
         O           -2.119811897744    -0.524291245767     1.090574331002    15.994914619570
         O           -2.386057897744     0.190050754233    -1.053764668998    15.994914619570
         C            2.109946102256     0.716165754233     0.153636331002    12.000000000000
         C            0.760795102256     0.043811754233    -0.034066668998    12.000000000000
         C           -0.460502897744     0.916072754233     0.171224331002    12.000000000000
         C            3.290151102256    -0.228472245767    -0.030315668998    12.000000000000
         C           -1.795888097744     0.142751154233     0.109060931002    12.000000000000
         H            2.160204102256     1.547984754233    -0.561421668998     1.007825032230
         H            2.123257102256     1.181691754233     1.146455331002     1.007825032230
         H           -0.413507497744     1.371106154233     1.168785231002     1.007825032230
         H           -0.418040897744     1.722118754233    -0.573069668998     1.007825032230
         H            3.257187102256    -1.039569245767     0.700832331002     1.007825032230
         H            3.278633102256    -0.675242245767    -1.026529668998     1.007825032230
         H            4.233273102256     0.309901754233     0.096024331002     1.007825032230

  Basis Set: AUG-CC-PVTZ
    Blend: AUG-CC-PVTZ
  Basis Set: (AUG-CC-PVTZ AUX)
    Blend: AUG-CC-PVTZ-JKFIT
	 Reference Energy          =    -418.1916386022691086 [Eh]
	 Singles Energy            =      -0.0000000000000000 [Eh]
	 Same-Spin Energy          =      -0.4162854629429525 [Eh]
	 Opposite-Spin Energy      =      -1.2928305182495590 [Eh]
	 Correlation Energy        =      -1.7091159811925114 [Eh]
	 Total Energy              =    -419.9007545834616053 [Eh]

	 ================> DF-SCS-MP2 Energies <==================
	-----------------------------------------------------------
	 SCS Same-Spin Scale       =       0.3333333333333333 [-]
	 SCS Opposite-Spin Scale   =       1.2000000000000000 [-]
	 SCS Same-Spin Energy      =      -0.1387618209809842 [Eh]
	 SCS Opposite-Spin Energy  =      -1.5513966218994708 [Eh]
	 SCS Correlation Energy    =      -1.6901584428804550 [Eh]
	 SCS Total Energy          =    -419.8817970451495398 [Eh]
	-----------------------------------------------------------

  Dipole Moment: [D]
     X:    10.0397      Y:     3.3232      Z:     1.0577     Total:    10.6282

*** Psi4 exiting successfully. Buy a developer a beer!
