                               Psi4 1.3.2 release

  ==> Input File <==

--------------------------------------------------------------------------
#psi4
#
memory 32 gb

molecule  {
-1 1
  O        0.5632720    -1.1719080    -0.3765930
  O       -2.2370500    -0.5589400     1.0879600
  O       -2.5032960     0.1554020    -1.0563790
  C        1.9927080     0.6815170     0.1510220
  C        0.6435570     0.0091630    -0.0366810
  C       -0.5777410     0.8814240     0.1686100
  C        3.1729130    -0.2631210    -0.0329300
  C       -1.8535099     0.0882834     0.1439013
  H        2.0429660     1.5133360    -0.5640360
  H        2.0060190     1.1470430     1.1438410
  H       -0.4967450     1.3515110     1.1569670
  H       -0.5352790     1.6874700    -0.5756840
  H        3.1399490    -1.0742180     0.6982180
  H        3.1613950    -0.7098910    -1.0291440
  H        4.1160350     0.2752530     0.0934100
units angstrom
no_reorient  #important for SAPT in psi4, default
symmetry c1  #important for SAPT in psi4, default
}

set PROPERTIES_ORIGIN ["COM"]
properties('MP2/aug-cc-pvtz', properties = ['dipole'])
--------------------------------------------------------------------------

    Molecular point group: c1
  Charge       = -1
  Multiplicity = 1
  Basis Set: AUG-CC-PVTZ
    Blend: AUG-CC-PVTZ
  Basis Set: (AUG-CC-PVTZ AUX)
    Blend: AUG-CC-PVTZ-JKFIT

    Orbital Energies [Eh]
    ---------------------

    Doubly Occupied:

       1A    -20.413659     2A    -20.314009     3A    -20.274051
       4A    -11.203689     5A    -11.145294     6A    -11.132789
       7A    -11.122748     8A    -11.087630     9A     -1.243101
      10A     -1.182864    11A     -1.025760    12A     -0.952517
      13A     -0.876447    14A     -0.772002    15A     -0.617296
      16A     -0.546508    17A     -0.534227    18A     -0.528751
      19A     -0.475882    20A     -0.458877    21A     -0.444755
      22A     -0.416636    23A     -0.410398    24A     -0.403819
      25A     -0.370455    26A     -0.349960    27A     -0.335759
      28A     -0.283889    29A     -0.213176    30A     -0.191057
      31A     -0.179750

  @DF-RHF Final Energy:  -418.17862576694563

   => Energetics <=

    Nuclear Repulsion Energy =            356.9613389969346713
    One-Electron Energy =               -1291.2644161766136222
    Two-Electron Energy =                 516.1244514127332650
    Total Energy =                       -418.1786257669456290
  Basis Set: (AUG-CC-PVTZ AUX)
    Blend: AUG-CC-PVTZ-RI
    Molecular point group: c1

    Geometry (in Angstrom), charge = -1, multiplicity = 1:

       Center              X                  Y                   Z               Mass
    ------------   -----------------  -----------------  -----------------  -----------------
         O            0.673993539411    -1.135323766492    -0.377805010438    15.994914619570
         O           -2.126328460589    -0.522355766492     1.086747989562    15.994914619570
         O           -2.392574460589     0.191986233508    -1.057591010438    15.994914619570
         C            2.103429539411     0.718101233508     0.149809989562    12.000000000000
         C            0.754278539411     0.045747233508    -0.037893010438    12.000000000000
         C           -0.467019460589     0.918008233508     0.167397989562    12.000000000000
         C            3.283634539411    -0.226536766492    -0.034142010438    12.000000000000
         C           -1.742788360589     0.124867633508     0.142689289562    12.000000000000
         H            2.153687539411     1.549920233508    -0.565248010438     1.007825032230
         H            2.116740539411     1.183627233508     1.142628989562     1.007825032230
         H           -0.386023460589     1.388095233508     1.155754989562     1.007825032230
         H           -0.424557460589     1.724054233508    -0.576896010438     1.007825032230
         H            3.250670539411    -1.037633766492     0.697005989562     1.007825032230
         H            3.272116539411    -0.673306766492    -1.030356010438     1.007825032230
         H            4.226756539411     0.311837233508     0.092197989562     1.007825032230

  Basis Set: AUG-CC-PVTZ
    Blend: AUG-CC-PVTZ
  Basis Set: (AUG-CC-PVTZ AUX)
    Blend: AUG-CC-PVTZ-JKFIT
	 Reference Energy          =    -418.1786257669456290 [Eh]
	 Singles Energy            =      -0.0000000000000000 [Eh]
	 Same-Spin Energy          =      -0.4170711156298110 [Eh]
	 Opposite-Spin Energy      =      -1.2946466793243034 [Eh]
	 Correlation Energy        =      -1.7117177949541145 [Eh]
	 Total Energy              =    -419.8903435618997264 [Eh]

	 ================> DF-SCS-MP2 Energies <==================
	-----------------------------------------------------------
	 SCS Same-Spin Scale       =       0.3333333333333333 [-]
	 SCS Opposite-Spin Scale   =       1.2000000000000000 [-]
	 SCS Same-Spin Energy      =      -0.1390237052099370 [Eh]
	 SCS Opposite-Spin Energy  =      -1.5535760151891640 [Eh]
	 SCS Correlation Energy    =      -1.6925997203991010 [Eh]
	 SCS Total Energy          =    -419.8712254873447023 [Eh]
	-----------------------------------------------------------

  Dipole Moment: [D]
     X:    10.4093      Y:     3.2800      Z:     1.5300     Total:    11.0206

*** Psi4 exiting successfully. Buy a developer a beer!
