                               Psi4 1.4a3.dev225

  ==> Input File <==

--------------------------------------------------------------------------
#psi4
#
memory 32 gb

molecule  {
-1 1
  O        1.0745520     1.3418620    -0.8745480
  O       -1.1230780    -1.1034960    -0.8170800
  O       -2.9206860    -0.1812610     0.2330210
  C        1.4738630    -0.3704550     0.7611780
  C        0.6359102     0.6815442     0.0453664
  C       -0.7798250     0.8397660     0.5534010
  C        2.7202340    -0.7612590    -0.0182770
  C       -1.7002430    -0.2566580    -0.0711330
  H        1.7414500     0.0432240     1.7443780
  H        0.8355880    -1.2371210     0.9565080
  H       -0.8294850     0.7587360     1.6458800
  H       -1.1523820     1.8284630     0.2671350
  H        2.4446610    -1.1885100    -0.9860420
  H        3.3521650     0.1095510    -0.2043800
  H        3.3054110    -1.5035610     0.5312540
units angstrom
no_reorient  #important for SAPT in psi4, default
symmetry c1  #important for SAPT in psi4, default
}

set PROPERTIES_ORIGIN ["COM"]
properties('MP2/aug-cc-pvtz', properties = ['dipole'])
--------------------------------------------------------------------------

    Molecular point group: c1
  Charge       = -1
  Multiplicity = 1
  Basis Set: AUG-CC-PVTZ
    Blend: AUG-CC-PVTZ
  Basis Set: (AUG-CC-PVTZ AUX)
    Blend: AUG-CC-PVTZ-JKFIT

    Orbital Energies [Eh]
    ---------------------

    Doubly Occupied:

       1A    -20.402403     2A    -20.313092     3A    -20.310656
       4A    -11.188132     5A    -11.163478     6A    -11.106738
       7A    -11.101634     8A    -11.079805     9A     -1.244167
      10A     -1.182486    11A     -1.083615    12A     -0.930306
      13A     -0.860014    14A     -0.749865    15A     -0.601345
      16A     -0.546506    17A     -0.514707    18A     -0.504671
      19A     -0.481100    20A     -0.449753    21A     -0.442287
      22A     -0.407426    23A     -0.399764    24A     -0.390749
      25A     -0.378979    26A     -0.354841    27A     -0.337805
      28A     -0.273814    29A     -0.228630    30A     -0.215479
      31A     -0.210995

  @DF-RHF Final Energy:  -418.21108420510205

   => Energetics <=

    Nuclear Repulsion Energy =            362.6354890871814973
    One-Electron Energy =               -1302.7826631846601231
    Two-Electron Energy =                 521.9360898923766854
    Total Energy =                       -418.2110842051019972
  Basis Set: (AUG-CC-PVTZ AUX)
    Blend: AUG-CC-PVTZ-RI
    Molecular point group: c1

    Geometry (in Angstrom), charge = -1, multiplicity = 1:

       Center              X                  Y                   Z               Mass
    ------------   -----------------  -----------------  -----------------  -----------------
         O            1.157303836700     1.330473528103    -0.838923801047    15.994914619570
         O           -1.040326163300    -1.114884471897    -0.781455801047    15.994914619570
         O           -2.837934163300    -0.192649471897     0.268645198953    15.994914619570
         C            1.556614836700    -0.381843471897     0.796802198953    12.000000000000
         C            0.718662036700     0.670155728103     0.080990598953    12.000000000000
         C           -0.697073163300     0.828377528103     0.589025198953    12.000000000000
         C            2.802985836700    -0.772647471897     0.017347198953    12.000000000000
         C           -1.617491163300    -0.268046471897    -0.035508801047    12.000000000000
         H            1.824201836700     0.031835528103     1.780002198953     1.007825032230
         H            0.918339836700    -1.248509471897     0.992132198953     1.007825032230
         H           -0.746733163300     0.747347528103     1.681504198953     1.007825032230
         H           -1.069630163300     1.817074528103     0.302759198953     1.007825032230
         H            2.527412836700    -1.199898471897    -0.950417801047     1.007825032230
         H            3.434916836700     0.098162528103    -0.168755801047     1.007825032230
         H            3.388162836700    -1.514949471897     0.566878198953     1.007825032230

  Basis Set: AUG-CC-PVTZ
    Blend: AUG-CC-PVTZ
  Basis Set: (AUG-CC-PVTZ AUX)
    Blend: AUG-CC-PVTZ-JKFIT
	 Reference Energy          =    -418.2110842051020541 [Eh]
	 Singles Energy            =      -0.0000000000000000 [Eh]
	 Same-Spin Energy          =      -0.4161139645400427 [Eh]
	 Opposite-Spin Energy      =      -1.2910775715857747 [Eh]
	 Correlation Energy        =      -1.7071915361258174 [Eh]
	 Total Energy              =    -419.9182757412278875 [Eh]

	 ================> DF-SCS-MP2 Energies <==================
	-----------------------------------------------------------
	 SCS Same-Spin Scale       =       0.3333333333333333 [-]
	 SCS Opposite-Spin Scale   =       1.2000000000000000 [-]
	 SCS Same-Spin Energy      =      -0.1387046548466809 [Eh]
	 SCS Opposite-Spin Energy  =      -1.5492930859029297 [Eh]
	 SCS Correlation Energy    =      -1.6879977407496105 [Eh]
	 SCS Total Energy          =    -419.8990819458516626 [Eh]
	-----------------------------------------------------------

  Dipole Moment: [D]
     X:     6.7829      Y:     1.3291      Z:     3.1218     Total:     7.5841

*** Psi4 exiting successfully. Buy a developer a beer!
