                               Psi4 1.3.2 release

  ==> Input File <==

--------------------------------------------------------------------------
#psi4
#
memory 32 gb

molecule  {
-1 1
  O        0.5632720    -1.1719080    -0.3765930
  O       -2.2370500    -0.5589400     1.0879600
  O       -2.5032960     0.1554020    -1.0563790
  C        1.9927080     0.6815170     0.1510220
  C        0.6435570     0.0091630    -0.0366810
  C       -0.5777410     0.8814240     0.1686100
  C        3.1729130    -0.2631210    -0.0329300
  C       -1.9010600     0.0931950     0.0560670
  H        2.0429660     1.5133360    -0.5640360
  H        2.0060190     1.1470430     1.1438410
  H       -0.5115058     1.2658419     0.9768478
  H       -0.5352790     1.6874700    -0.5756840
  H        3.1399490    -1.0742180     0.6982180
  H        3.1613950    -0.7098910    -1.0291440
  H        4.1160350     0.2752530     0.0934100
units angstrom
no_reorient  #important for SAPT in psi4, default
symmetry c1  #important for SAPT in psi4, default
}

set PROPERTIES_ORIGIN ["COM"]
properties('MP2/aug-cc-pvtz', properties = ['dipole'])
--------------------------------------------------------------------------

    Molecular point group: c1
  Charge       = -1
  Multiplicity = 1
  Basis Set: AUG-CC-PVTZ
    Blend: AUG-CC-PVTZ
  Basis Set: (AUG-CC-PVTZ AUX)
    Blend: AUG-CC-PVTZ-JKFIT

    Orbital Energies [Eh]
    ---------------------

    Doubly Occupied:

       1A    -20.409172     2A    -20.294597     3A    -20.294372
       4A    -11.198646     5A    -11.144306     6A    -11.130803
       7A    -11.121160     8A    -11.057433     9A     -1.238497
      10A     -1.162941    11A     -1.062939    12A     -0.951695
      13A     -0.885395    14A     -0.771691    15A     -0.613839
      16A     -0.549425    17A     -0.533336    18A     -0.526979
      19A     -0.480421    20A     -0.464034    21A     -0.439532
      22A     -0.412641    23A     -0.408290    24A     -0.403972
      25A     -0.379216    26A     -0.348544    27A     -0.336685
      28A     -0.279616    29A     -0.209852    30A     -0.205505
      31A     -0.191607

  @DF-RHF Final Energy:  -418.16248022974821

   => Energetics <=

    Nuclear Repulsion Energy =            357.8288890787192713
    One-Electron Energy =               -1292.9684566243429344
    Two-Electron Energy =                 516.9770873158754512
    Total Energy =                       -418.1624802297482120
  Basis Set: (AUG-CC-PVTZ AUX)
    Blend: AUG-CC-PVTZ-RI
    Molecular point group: c1

    Geometry (in Angstrom), charge = -1, multiplicity = 1:

       Center              X                  Y                   Z               Mass
    ------------   -----------------  -----------------  -----------------  -----------------
         O            0.679082899210    -1.135085585181    -0.367064873063    15.994914619570
         O           -2.121239100790    -0.522117585181     1.097488126937    15.994914619570
         O           -2.387485100790     0.192224414819    -1.046850873063    15.994914619570
         C            2.108518899210     0.718339414819     0.160550126937    12.000000000000
         C            0.759367899210     0.045985414819    -0.027152873063    12.000000000000
         C           -0.461930100790     0.918246414819     0.178138126937    12.000000000000
         C            3.288723899210    -0.226298585181    -0.023401873063    12.000000000000
         C           -1.785249100790     0.130017414819     0.065595126937    12.000000000000
         H            2.158776899210     1.550158414819    -0.554507873063     1.007825032230
         H            2.121829899210     1.183865414819     1.153369126937     1.007825032230
         H           -0.395694900790     1.302664314819     0.986375926937     1.007825032230
         H           -0.419468100790     1.724292414819    -0.566155873063     1.007825032230
         H            3.255759899210    -1.037395585181     0.707746126937     1.007825032230
         H            3.277205899210    -0.673068585181    -1.019615873063     1.007825032230
         H            4.231845899210     0.312075414819     0.102938126937     1.007825032230

  Basis Set: AUG-CC-PVTZ
    Blend: AUG-CC-PVTZ
  Basis Set: (AUG-CC-PVTZ AUX)
    Blend: AUG-CC-PVTZ-JKFIT
	 Reference Energy          =    -418.1624802297482120 [Eh]
	 Singles Energy            =      -0.0000000000000000 [Eh]
	 Same-Spin Energy          =      -0.4161484926862367 [Eh]
	 Opposite-Spin Energy      =      -1.2919465617232053 [Eh]
	 Correlation Energy        =      -1.7080950544094420 [Eh]
	 Total Energy              =    -419.8705752841576668 [Eh]

	 ================> DF-SCS-MP2 Energies <==================
	-----------------------------------------------------------
	 SCS Same-Spin Scale       =       0.3333333333333333 [-]
	 SCS Opposite-Spin Scale   =       1.2000000000000000 [-]
	 SCS Same-Spin Energy      =      -0.1387161642287456 [Eh]
	 SCS Opposite-Spin Energy  =      -1.5503358740678463 [Eh]
	 SCS Correlation Energy    =      -1.6890520382965919 [Eh]
	 SCS Total Energy          =    -419.8515322680448207 [Eh]
	-----------------------------------------------------------

  Dipole Moment: [D]
     X:    10.0626      Y:     3.5188      Z:     0.6846     Total:    10.6821

*** Psi4 exiting successfully. Buy a developer a beer!
