                               Psi4 1.4a3.dev225

  ==> Input File <==

--------------------------------------------------------------------------
#psi4
#
memory 32 gb

molecule  {
-1 1
  O        1.0745520     1.3418620    -0.8745480
  O       -1.1230780    -1.1034960    -0.8170800
  O       -2.9206860    -0.1812610     0.2330210
  C        1.4738630    -0.3704550     0.7611780
  C        0.6286860     0.6706690     0.0605170
  C       -0.7798250     0.8397660     0.5534010
  C        2.7202340    -0.7612590    -0.0182770
  C       -1.6707773    -0.2215577    -0.0511395
  H        1.7414500     0.0432240     1.7443780
  H        0.8355880    -1.2371210     0.9565080
  H       -0.8294850     0.7587360     1.6458800
  H       -1.1523820     1.8284630     0.2671350
  H        2.4446610    -1.1885100    -0.9860420
  H        3.3521650     0.1095510    -0.2043800
  H        3.3054110    -1.5035610     0.5312540
units angstrom
no_reorient  #important for SAPT in psi4, default
symmetry c1  #important for SAPT in psi4, default
}

set PROPERTIES_ORIGIN ["COM"]
properties('MP2/aug-cc-pvtz', properties = ['dipole'])
--------------------------------------------------------------------------

    Molecular point group: c1
  Charge       = -1
  Multiplicity = 1
  Basis Set: AUG-CC-PVTZ
    Blend: AUG-CC-PVTZ
  Basis Set: (AUG-CC-PVTZ AUX)
    Blend: AUG-CC-PVTZ-JKFIT

    Orbital Energies [Eh]
    ---------------------

    Doubly Occupied:

       1A    -20.403776     2A    -20.311670     3A    -20.308453
       4A    -11.193716     5A    -11.164645     6A    -11.109867
       7A    -11.103488     8A    -11.086172     9A     -1.233817
      10A     -1.169786    11A     -1.067079    12A     -0.935344
      13A     -0.873361    14A     -0.756721    15A     -0.607928
      16A     -0.552843    17A     -0.517434    18A     -0.505873
      19A     -0.484389    20A     -0.450451    21A     -0.441575
      22A     -0.403385    23A     -0.397651    24A     -0.389219
      25A     -0.379288    26A     -0.349543    27A     -0.329039
      28A     -0.278811    29A     -0.227772    30A     -0.217607
      31A     -0.204094

  @DF-RHF Final Energy:  -418.20231232936447

   => Energetics <=

    Nuclear Repulsion Energy =            362.6558514967259157
    One-Electron Energy =               -1302.8067397083380001
    Two-Electron Energy =                 521.9485758822476100
    Total Energy =                       -418.2023123293644176
  Basis Set: (AUG-CC-PVTZ AUX)
    Blend: AUG-CC-PVTZ-RI
    Molecular point group: c1

    Geometry (in Angstrom), charge = -1, multiplicity = 1:

       Center              X                  Y                   Z               Mass
    ------------   -----------------  -----------------  -----------------  -----------------
         O            1.154983781799     1.327946559959    -0.842589751699    15.994914619570
         O           -1.042646218201    -1.117411440041    -0.785121751699    15.994914619570
         O           -2.840254218201    -0.195176440041     0.264979248301    15.994914619570
         C            1.554294781799    -0.384370440041     0.793136248301    12.000000000000
         C            0.709117781799     0.656753559959     0.092475248301    12.000000000000
         C           -0.699393218201     0.825850559959     0.585359248301    12.000000000000
         C            2.800665781799    -0.775174440041     0.013681248301    12.000000000000
         C           -1.590345518201    -0.235473140041    -0.019181251699    12.000000000000
         H            1.821881781799     0.029308559959     1.776336248301     1.007825032230
         H            0.916019781799    -1.251036440041     0.988466248301     1.007825032230
         H           -0.749053218201     0.744820559959     1.677838248301     1.007825032230
         H           -1.071950218201     1.814547559959     0.299093248301     1.007825032230
         H            2.525092781799    -1.202425440041    -0.954083751699     1.007825032230
         H            3.432596781799     0.095635559959    -0.172421751699     1.007825032230
         H            3.385842781799    -1.517476440041     0.563212248301     1.007825032230

  Basis Set: AUG-CC-PVTZ
    Blend: AUG-CC-PVTZ
  Basis Set: (AUG-CC-PVTZ AUX)
    Blend: AUG-CC-PVTZ-JKFIT
	 Reference Energy          =    -418.2023123293644744 [Eh]
	 Singles Energy            =      -0.0000000000000000 [Eh]
	 Same-Spin Energy          =      -0.4176021277382074 [Eh]
	 Opposite-Spin Energy      =      -1.2943763448728987 [Eh]
	 Correlation Energy        =      -1.7119784726111060 [Eh]
	 Total Energy              =    -419.9142908019755964 [Eh]

	 ================> DF-SCS-MP2 Energies <==================
	-----------------------------------------------------------
	 SCS Same-Spin Scale       =       0.3333333333333333 [-]
	 SCS Opposite-Spin Scale   =       1.2000000000000000 [-]
	 SCS Same-Spin Energy      =      -0.1392007092460691 [Eh]
	 SCS Opposite-Spin Energy  =      -1.5532516138474783 [Eh]
	 SCS Correlation Energy    =      -1.6924523230935475 [Eh]
	 SCS Total Energy          =    -419.8947646524580364 [Eh]
	-----------------------------------------------------------

  Dipole Moment: [D]
     X:     7.0180      Y:     1.4758      Z:     3.2959     Total:     7.8926

*** Psi4 exiting successfully. Buy a developer a beer!
