                               Psi4 1.3.2 release

  ==> Input File <==

--------------------------------------------------------------------------
#psi4
#
memory 32 gb

molecule  {
-1 1
  O        0.5632720    -1.1719080    -0.3765930
  O       -2.2370500    -0.5589400     1.0879600
  O       -2.5032960     0.1554020    -1.0563790
  C        1.9803241     0.7042784     0.1566296
  C        0.6435570     0.0091630    -0.0366810
  C       -0.5619195     0.9019066     0.1740030
  C        3.1729130    -0.2631210    -0.0329300
  C       -1.9010600     0.0931950     0.0560670
  H        2.0429660     1.5133360    -0.5640360
  H        2.0060190     1.1470430     1.1438410
  H       -0.4967450     1.3515110     1.1569670
  H       -0.5352790     1.6874700    -0.5756840
  H        3.1399490    -1.0742180     0.6982180
  H        3.1613950    -0.7098910    -1.0291440
  H        4.1160350     0.2752530     0.0934100
units angstrom
no_reorient  #important for SAPT in psi4, default
symmetry c1  #important for SAPT in psi4, default
}

set PROPERTIES_ORIGIN ["COM"]
properties('MP2/aug-cc-pvtz', properties = ['dipole'])
--------------------------------------------------------------------------

    Molecular point group: c1
  Charge       = -1
  Multiplicity = 1
  Basis Set: AUG-CC-PVTZ
    Blend: AUG-CC-PVTZ
  Basis Set: (AUG-CC-PVTZ AUX)
    Blend: AUG-CC-PVTZ-JKFIT

    Orbital Energies [Eh]
    ---------------------

    Doubly Occupied:

       1A    -20.411673     2A    -20.296789     3A    -20.295049
       4A    -11.200253     5A    -11.147548     6A    -11.128238
       7A    -11.121016     8A    -11.080255     9A     -1.239633
      10A     -1.163259    11A     -1.063908    12A     -0.947521
      13A     -0.866792    14A     -0.766592    15A     -0.611927
      16A     -0.534938    17A     -0.528862    18A     -0.528110
      19A     -0.472026    20A     -0.457342    21A     -0.436799
      22A     -0.409480    23A     -0.406261    24A     -0.402736
      25A     -0.380121    26A     -0.349477    27A     -0.336652
      28A     -0.280844    29A     -0.210645    30A     -0.204127
      31A     -0.192813

  @DF-RHF Final Energy:  -418.19444301285233

   => Energetics <=

    Nuclear Repulsion Energy =            356.2851898839369937
    One-Electron Energy =               -1290.0158928429668777
    Two-Electron Energy =                 515.5362599461776654
    Total Energy =                       -418.1944430128522754
  Basis Set: (AUG-CC-PVTZ AUX)
    Blend: AUG-CC-PVTZ-RI
    Molecular point group: c1

    Geometry (in Angstrom), charge = -1, multiplicity = 1:

       Center              X                  Y                   Z               Mass
    ------------   -----------------  -----------------  -----------------  -----------------
         O            0.678595001624    -1.140346972470    -0.369790335070    15.994914619570
         O           -2.121726998376    -0.527378972470     1.094762664930    15.994914619570
         O           -2.387972998376     0.186963027530    -1.049576335070    15.994914619570
         C            2.095647101624     0.735839427530     0.163432264930    12.000000000000
         C            0.758880001624     0.040724027530    -0.029878335070    12.000000000000
         C           -0.446596498376     0.933467627530     0.180805664930    12.000000000000
         C            3.288236001624    -0.231559972470    -0.026127335070    12.000000000000
         C           -1.785736998376     0.124756027530     0.062869664930    12.000000000000
         H            2.158289001624     1.544897027530    -0.557233335070     1.007825032230
         H            2.121342001624     1.178604027530     1.150643664930     1.007825032230
         H           -0.381421998376     1.383072027530     1.163769664930     1.007825032230
         H           -0.419955998376     1.719031027530    -0.568881335070     1.007825032230
         H            3.255272001624    -1.042656972470     0.705020664930     1.007825032230
         H            3.276718001624    -0.678329972470    -1.022341335070     1.007825032230
         H            4.231358001624     0.306814027530     0.100212664930     1.007825032230

  Basis Set: AUG-CC-PVTZ
    Blend: AUG-CC-PVTZ
  Basis Set: (AUG-CC-PVTZ AUX)
    Blend: AUG-CC-PVTZ-JKFIT
	 Reference Energy          =    -418.1944430128523322 [Eh]
	 Singles Energy            =      -0.0000000000000000 [Eh]
	 Same-Spin Energy          =      -0.4160673518124769 [Eh]
	 Opposite-Spin Energy      =      -1.2924680155670454 [Eh]
	 Correlation Energy        =      -1.7085353673795223 [Eh]
	 Total Energy              =    -419.9029783802318434 [Eh]

	 ================> DF-SCS-MP2 Energies <==================
	-----------------------------------------------------------
	 SCS Same-Spin Scale       =       0.3333333333333333 [-]
	 SCS Opposite-Spin Scale   =       1.2000000000000000 [-]
	 SCS Same-Spin Energy      =      -0.1386891172708256 [Eh]
	 SCS Opposite-Spin Energy  =      -1.5509616186804545 [Eh]
	 SCS Correlation Energy    =      -1.6896507359512800 [Eh]
	 SCS Total Energy          =    -419.8840937488035934 [Eh]
	-----------------------------------------------------------

  Dipole Moment: [D]
     X:     9.9355      Y:     3.4698      Z:     0.6379     Total:    10.5433

*** Psi4 exiting successfully. Buy a developer a beer!
