                               Psi4 1.3.2 release

  ==> Input File <==

--------------------------------------------------------------------------
#psi4
#
memory 32 gb

molecule  {
-1 1
  O        0.5632720    -1.1719080    -0.3765930
  O       -2.2370500    -0.5589400     1.0879600
  O       -2.4953115     0.1619742    -1.0602791
  C        1.9927080     0.6815170     0.1510220
  C        0.6435570     0.0091630    -0.0366810
  C       -0.5791924     0.8855649     0.1558670
  C        3.1729130    -0.2631210    -0.0329300
  C       -1.9010600     0.0931950     0.0560670
  H        2.0429660     1.5133360    -0.5640360
  H        2.0060190     1.1470430     1.1438410
  H       -0.4967450     1.3515110     1.1569670
  H       -0.5352790     1.6874700    -0.5756840
  H        3.1399490    -1.0742180     0.6982180
  H        3.1613950    -0.7098910    -1.0291440
  H        4.1160350     0.2752530     0.0934100
units angstrom
no_reorient  #important for SAPT in psi4, default
symmetry c1  #important for SAPT in psi4, default
}

set PROPERTIES_ORIGIN ["COM"]
properties('MP2/aug-cc-pvtz', properties = ['dipole'])
--------------------------------------------------------------------------

    Molecular point group: c1
  Charge       = -1
  Multiplicity = 1
  Basis Set: AUG-CC-PVTZ
    Blend: AUG-CC-PVTZ
  Basis Set: (AUG-CC-PVTZ AUX)
    Blend: AUG-CC-PVTZ-JKFIT

    Orbital Energies [Eh]
    ---------------------

    Doubly Occupied:

       1A    -20.410015     2A    -20.296506     3A    -20.295579
       4A    -11.199843     5A    -11.146427     6A    -11.130075
       7A    -11.120725     8A    -11.082166     9A     -1.239256
      10A     -1.163965    11A     -1.064919    12A     -0.949581
      13A     -0.867449    14A     -0.766700    15A     -0.611342
      16A     -0.538224    17A     -0.529689    18A     -0.526013
      19A     -0.471344    20A     -0.454476    21A     -0.439314
      22A     -0.410674    23A     -0.407547    24A     -0.403438
      25A     -0.377469    26A     -0.347328    27A     -0.335673
      28A     -0.279843    29A     -0.211167    30A     -0.206646
      31A     -0.193127

  @DF-RHF Final Energy:  -418.19546588995445

   => Energetics <=

    Nuclear Repulsion Energy =            356.7344953287650355
    One-Electron Energy =               -1290.9068904061807643
    Two-Electron Energy =                 515.9769291874613373
    Total Energy =                       -418.1954658899544484
  Basis Set: (AUG-CC-PVTZ AUX)
    Blend: AUG-CC-PVTZ-RI
    Molecular point group: c1

    Geometry (in Angstrom), charge = -1, multiplicity = 1:

       Center              X                  Y                   Z               Mass
    ------------   -----------------  -----------------  -----------------  -----------------
         O            0.677994830514    -1.137181839087    -0.366771329347    15.994914619570
         O           -2.122327169486    -0.524213839087     1.097781670653    15.994914619570
         O           -2.380588669486     0.196700360913    -1.050457429347    15.994914619570
         C            2.107430830514     0.716243160913     0.160843670653    12.000000000000
         C            0.758279830514     0.043889160913    -0.026859329347    12.000000000000
         C           -0.464469569486     0.920291060913     0.165688670653    12.000000000000
         C            3.287635830514    -0.228394839087    -0.023108329347    12.000000000000
         C           -1.786337169486     0.127921160913     0.065888670653    12.000000000000
         H            2.157688830514     1.548062160913    -0.554214329347     1.007825032230
         H            2.120741830514     1.181769160913     1.153662670653     1.007825032230
         H           -0.382022169486     1.386237160913     1.166788670653     1.007825032230
         H           -0.420556169486     1.722196160913    -0.565862329347     1.007825032230
         H            3.254671830514    -1.039491839087     0.708039670653     1.007825032230
         H            3.276117830514    -0.675164839087    -1.019322329347     1.007825032230
         H            4.230757830514     0.309979160913     0.103231670653     1.007825032230

  Basis Set: AUG-CC-PVTZ
    Blend: AUG-CC-PVTZ
  Basis Set: (AUG-CC-PVTZ AUX)
    Blend: AUG-CC-PVTZ-JKFIT
	 Reference Energy          =    -418.1954658899544484 [Eh]
	 Singles Energy            =      -0.0000000000000000 [Eh]
	 Same-Spin Energy          =      -0.4161897588850940 [Eh]
	 Opposite-Spin Energy      =      -1.2925421938135326 [Eh]
	 Correlation Energy        =      -1.7087319526986267 [Eh]
	 Total Energy              =    -419.9041978426530477 [Eh]

	 ================> DF-SCS-MP2 Energies <==================
	-----------------------------------------------------------
	 SCS Same-Spin Scale       =       0.3333333333333333 [-]
	 SCS Opposite-Spin Scale   =       1.2000000000000000 [-]
	 SCS Same-Spin Energy      =      -0.1387299196283647 [Eh]
	 SCS Opposite-Spin Energy  =      -1.5510506325762392 [Eh]
	 SCS Correlation Energy    =      -1.6897805522046039 [Eh]
	 SCS Total Energy          =    -419.8852464421590298 [Eh]
	-----------------------------------------------------------

  Dipole Moment: [D]
     X:     9.9669      Y:     3.4453      Z:     0.6228     Total:    10.5640

*** Psi4 exiting successfully. Buy a developer a beer!
