                               Psi4 1.3.2 release

  ==> Input File <==

--------------------------------------------------------------------------
#psi4
#
memory 32 gb

molecule  {
-1 1
  O        0.5632720    -1.1719080    -0.3765930
  O       -2.2370500    -0.5589400     1.0879600
  O       -2.5032960     0.1554020    -1.0563790
  C        2.0162392     0.6353868     0.1396369
  C        0.6435570     0.0091630    -0.0366810
  C       -0.6082633     0.8396680     0.1576380
  C        3.1729130    -0.2631210    -0.0329300
  C       -1.9010600     0.0931950     0.0560670
  H        2.0429660     1.5133360    -0.5640360
  H        2.0060190     1.1470430     1.1438410
  H       -0.4967450     1.3515110     1.1569670
  H       -0.5352790     1.6874700    -0.5756840
  H        3.1399490    -1.0742180     0.6982180
  H        3.1613950    -0.7098910    -1.0291440
  H        4.1160350     0.2752530     0.0934100
units angstrom
no_reorient  #important for SAPT in psi4, default
symmetry c1  #important for SAPT in psi4, default
}

set PROPERTIES_ORIGIN ["COM"]
properties('MP2/aug-cc-pvtz', properties = ['dipole'])
--------------------------------------------------------------------------

    Molecular point group: c1
  Charge       = -1
  Multiplicity = 1
  Basis Set: AUG-CC-PVTZ
    Blend: AUG-CC-PVTZ
  Basis Set: (AUG-CC-PVTZ AUX)
    Blend: AUG-CC-PVTZ-JKFIT

    Orbital Energies [Eh]
    ---------------------

    Doubly Occupied:

       1A    -20.407246     2A    -20.296141     3A    -20.294206
       4A    -11.200061     5A    -11.143504     6A    -11.134950
       7A    -11.120385     8A    -11.088548     9A     -1.239381
      10A     -1.165598    11A     -1.064467    12A     -0.956089
      13A     -0.870400    14A     -0.767771    15A     -0.612559
      16A     -0.546233    17A     -0.531028    18A     -0.523666
      19A     -0.470818    20A     -0.450203    21A     -0.446710
      22A     -0.422799    23A     -0.404606    24A     -0.398913
      25A     -0.368991    26A     -0.341759    27A     -0.333607
      28A     -0.278692    29A     -0.212654    30A     -0.209514
      31A     -0.192122

  @DF-RHF Final Energy:  -418.18853535291760

   => Energetics <=

    Nuclear Repulsion Energy =            357.6118945939602440
    One-Electron Energy =               -1292.6136182594095771
    Two-Electron Energy =                 516.8131883125317927
    Total Energy =                       -418.1885353529175973
  Basis Set: (AUG-CC-PVTZ AUX)
    Blend: AUG-CC-PVTZ-RI
    Molecular point group: c1

    Geometry (in Angstrom), charge = -1, multiplicity = 1:

       Center              X                  Y                   Z               Mass
    ------------   -----------------  -----------------  -----------------  -----------------
         O            0.679682839968    -1.126668521686    -0.366310727339    15.994914619570
         O           -2.120639160032    -0.513700521686     1.098242272661    15.994914619570
         O           -2.386885160032     0.200641478314    -1.046096727339    15.994914619570
         C            2.132650039968     0.680626278314     0.149919172661    12.000000000000
         C            0.759967839968     0.054402478314    -0.026398727339    12.000000000000
         C           -0.491852460032     0.884907478314     0.167920272661    12.000000000000
         C            3.289323839968    -0.217881521686    -0.022647727339    12.000000000000
         C           -1.784649160032     0.138434478314     0.066349272661    12.000000000000
         H            2.159376839968     1.558575478314    -0.553753727339     1.007825032230
         H            2.122429839968     1.192282478314     1.154123272661     1.007825032230
         H           -0.380334160032     1.396750478314     1.167249272661     1.007825032230
         H           -0.418868160032     1.732709478314    -0.565401727339     1.007825032230
         H            3.256359839968    -1.028978521686     0.708500272661     1.007825032230
         H            3.277805839968    -0.664651521686    -1.018861727339     1.007825032230
         H            4.232445839968     0.320492478314     0.103692272661     1.007825032230

  Basis Set: AUG-CC-PVTZ
    Blend: AUG-CC-PVTZ
  Basis Set: (AUG-CC-PVTZ AUX)
    Blend: AUG-CC-PVTZ-JKFIT
	 Reference Energy          =    -418.1885353529175973 [Eh]
	 Singles Energy            =      -0.0000000000000000 [Eh]
	 Same-Spin Energy          =      -0.4168266628076436 [Eh]
	 Opposite-Spin Energy      =      -1.2934321259485937 [Eh]
	 Correlation Energy        =      -1.7102587887562373 [Eh]
	 Total Energy              =    -419.8987941416738181 [Eh]

	 ================> DF-SCS-MP2 Energies <==================
	-----------------------------------------------------------
	 SCS Same-Spin Scale       =       0.3333333333333333 [-]
	 SCS Opposite-Spin Scale   =       1.2000000000000000 [-]
	 SCS Same-Spin Energy      =      -0.1389422209358812 [Eh]
	 SCS Opposite-Spin Energy  =      -1.5521185511383124 [Eh]
	 SCS Correlation Energy    =      -1.6910607720741937 [Eh]
	 SCS Total Energy          =    -419.8795961249917923 [Eh]
	-----------------------------------------------------------

  Dipole Moment: [D]
     X:    10.0794      Y:     3.4206      Z:     0.6194     Total:    10.6620

*** Psi4 exiting successfully. Buy a developer a beer!
