                               Psi4 1.3.2 release

  ==> Input File <==

--------------------------------------------------------------------------
#psi4
#
memory 32 gb

molecule  {
-1 1
  O        0.5632720    -1.1719080    -0.3765930
  O       -2.2370500    -0.5589400     1.0879600
  O       -2.5032960     0.1554020    -1.0563790
  C        1.9927080     0.6815170     0.1510220
  C        0.6634358    -0.0420710     0.0208047
  C       -0.5777410     0.8814240     0.1686100
  C        3.1729130    -0.2631210    -0.0329300
  C       -1.9010600     0.0931950     0.0560670
  H        2.0955102     1.5253568    -0.5440484
  H        2.0060190     1.1470430     1.1438410
  H       -0.4967450     1.3515110     1.1569670
  H       -0.5352790     1.6874700    -0.5756840
  H        3.1399490    -1.0742180     0.6982180
  H        3.1613950    -0.7098910    -1.0291440
  H        4.1160350     0.2752530     0.0934100
units angstrom
no_reorient  #important for SAPT in psi4, default
symmetry c1  #important for SAPT in psi4, default
}

set PROPERTIES_ORIGIN ["COM"]
properties('MP2/aug-cc-pvtz', properties = ['dipole'])
--------------------------------------------------------------------------

    Molecular point group: c1
  Charge       = -1
  Multiplicity = 1
  Basis Set: AUG-CC-PVTZ
    Blend: AUG-CC-PVTZ
  Basis Set: (AUG-CC-PVTZ AUX)
    Blend: AUG-CC-PVTZ-JKFIT

    Orbital Energies [Eh]
    ---------------------

    Doubly Occupied:

       1A    -20.414932     2A    -20.295222     3A    -20.293188
       4A    -11.199049     5A    -11.143958     6A    -11.129451
       7A    -11.120377     8A    -11.080965     9A     -1.261342
      10A     -1.162586    11A     -1.062635    12A     -0.949828
      13A     -0.858019    14A     -0.764339    15A     -0.614115
      16A     -0.536324    17A     -0.535306    18A     -0.525045
      19A     -0.476037    20A     -0.451791    21A     -0.438966
      22A     -0.413153    23A     -0.408061    24A     -0.402502
      25A     -0.377217    26A     -0.356840    27A     -0.336079
      28A     -0.274721    29A     -0.208951    30A     -0.204756
      31A     -0.191506

  @DF-RHF Final Energy:  -418.19321737922456

   => Energetics <=

    Nuclear Repulsion Energy =            356.7437205432794372
    One-Electron Energy =               -1290.8993586941971898
    Two-Electron Energy =                 515.9624207716931323
    Total Energy =                       -418.1932173792246203
  Basis Set: (AUG-CC-PVTZ AUX)
    Blend: AUG-CC-PVTZ-RI
    Molecular point group: c1

    Geometry (in Angstrom), charge = -1, multiplicity = 1:

       Center              X                  Y                   Z               Mass
    ------------   -----------------  -----------------  -----------------  -----------------
         O            0.676419664296    -1.130597095682    -0.374814392961    15.994914619570
         O           -2.123902335704    -0.517629095682     1.089738607039    15.994914619570
         O           -2.390148335704     0.196712904318    -1.054600392961    15.994914619570
         C            2.105855664296     0.722827904318     0.152800607039    12.000000000000
         C            0.776583464296    -0.000760095682     0.022583307039    12.000000000000
         C           -0.464593335704     0.922734904318     0.170388607039    12.000000000000
         C            3.286060664296    -0.221810095682    -0.031151392961    12.000000000000
         C           -1.787912335704     0.134505904318     0.057845607039    12.000000000000
         H            2.208657864296     1.566667704318    -0.542269792961     1.007825032230
         H            2.119166664296     1.188353904318     1.145619607039     1.007825032230
         H           -0.383597335704     1.392821904318     1.158745607039     1.007825032230
         H           -0.422131335704     1.728780904318    -0.573905392961     1.007825032230
         H            3.253096664296    -1.032907095682     0.699996607039     1.007825032230
         H            3.274542664296    -0.668580095682    -1.027365392961     1.007825032230
         H            4.229182664296     0.316563904318     0.095188607039     1.007825032230

  Basis Set: AUG-CC-PVTZ
    Blend: AUG-CC-PVTZ
  Basis Set: (AUG-CC-PVTZ AUX)
    Blend: AUG-CC-PVTZ-JKFIT
	 Reference Energy          =    -418.1932173792245635 [Eh]
	 Singles Energy            =      -0.0000000000000000 [Eh]
	 Same-Spin Energy          =      -0.4153922865027446 [Eh]
	 Opposite-Spin Energy      =      -1.2911841720861914 [Eh]
	 Correlation Energy        =      -1.7065764585889360 [Eh]
	 Total Energy              =    -419.8997938378134904 [Eh]

	 ================> DF-SCS-MP2 Energies <==================
	-----------------------------------------------------------
	 SCS Same-Spin Scale       =       0.3333333333333333 [-]
	 SCS Opposite-Spin Scale   =       1.2000000000000000 [-]
	 SCS Same-Spin Energy      =      -0.1384640955009148 [Eh]
	 SCS Opposite-Spin Energy  =      -1.5494210065034297 [Eh]
	 SCS Correlation Energy    =      -1.6878851020043446 [Eh]
	 SCS Total Energy          =    -419.8811024812289361 [Eh]
	-----------------------------------------------------------

  Dipole Moment: [D]
     X:    10.1387      Y:     3.2929      Z:     0.6400     Total:    10.6792

*** Psi4 exiting successfully. Buy a developer a beer!
