                               Psi4 1.3.2 release

  ==> Input File <==

--------------------------------------------------------------------------
#psi4
#
memory 32 gb

molecule  {
-1 1
  O        0.5632720    -1.1719080    -0.3765930
  O       -2.2370500    -0.5589400     1.0879600
  O       -2.5032960     0.1554020    -1.0563790
  C        1.9927080     0.6815170     0.1510220
  C        0.6559269    -0.0137712    -0.0415693
  C       -0.5777410     0.8814240     0.1686100
  C        3.1559508    -0.2829754    -0.0378795
  C       -1.9010600     0.0931950     0.0560670
  H        2.0429660     1.5133360    -0.5640360
  H        2.0060190     1.1470430     1.1438410
  H       -0.4967450     1.3515110     1.1569670
  H       -0.5352790     1.6874700    -0.5756840
  H        3.1399490    -1.0742180     0.6982180
  H        3.1613950    -0.7098910    -1.0291440
  H        4.1160350     0.2752530     0.0934100
units angstrom
no_reorient  #important for SAPT in psi4, default
symmetry c1  #important for SAPT in psi4, default
}

set PROPERTIES_ORIGIN ["COM"]
properties('MP2/aug-cc-pvtz', properties = ['dipole'])
--------------------------------------------------------------------------

    Molecular point group: c1
  Charge       = -1
  Multiplicity = 1
  Basis Set: AUG-CC-PVTZ
    Blend: AUG-CC-PVTZ
  Basis Set: (AUG-CC-PVTZ AUX)
    Blend: AUG-CC-PVTZ-JKFIT

    Orbital Energies [Eh]
    ---------------------

    Doubly Occupied:

       1A    -20.412431     2A    -20.295485     3A    -20.293748
       4A    -11.197848     5A    -11.144651     6A    -11.129652
       7A    -11.121124     8A    -11.081193     9A     -1.255083
      10A     -1.162985    11A     -1.063030    12A     -0.949909
      13A     -0.861651    14A     -0.765625    15A     -0.611657
      16A     -0.537002    17A     -0.531698    18A     -0.528782
      19A     -0.474852    20A     -0.454551    21A     -0.434693
      22A     -0.411965    23A     -0.407388    24A     -0.406624
      25A     -0.378264    26A     -0.354003    27A     -0.336374
      28A     -0.276121    29A     -0.209283    30A     -0.205452
      31A     -0.191773

  @DF-RHF Final Energy:  -418.19626158437899

   => Energetics <=

    Nuclear Repulsion Energy =            356.9926325293340028
    One-Electron Energy =               -1291.4079960473013671
    Two-Electron Energy =                 516.2191019335882629
    Total Energy =                       -418.1962615843790445
  Basis Set: (AUG-CC-PVTZ AUX)
    Blend: AUG-CC-PVTZ-RI
    Molecular point group: c1

    Geometry (in Angstrom), charge = -1, multiplicity = 1:

       Center              X                  Y                   Z               Mass
    ------------   -----------------  -----------------  -----------------  -----------------
         O            0.679432616391    -1.131372741630    -0.367616640308    15.994914619570
         O           -2.120889383609    -0.518404741630     1.096936359692    15.994914619570
         O           -2.387135383609     0.195937258370    -1.047402640308    15.994914619570
         C            2.108868616391     0.722052258370     0.159998359692    12.000000000000
         C            0.772087516391     0.026764058370    -0.032592940308    12.000000000000
         C           -0.461580383609     0.921959258370     0.177586359692    12.000000000000
         C            3.272111416391    -0.242440141630    -0.028903140308    12.000000000000
         C           -1.784899383609     0.133730258370     0.065043359692    12.000000000000
         H            2.159126616391     1.553871258370    -0.555059640308     1.007825032230
         H            2.122179616391     1.187578258370     1.152817359692     1.007825032230
         H           -0.380584383609     1.392046258370     1.165943359692     1.007825032230
         H           -0.419118383609     1.728005258370    -0.566707640308     1.007825032230
         H            3.256109616391    -1.033682741630     0.707194359692     1.007825032230
         H            3.277555616391    -0.669355741630    -1.020167640308     1.007825032230
         H            4.232195616391     0.315788258370     0.102386359692     1.007825032230

  Basis Set: AUG-CC-PVTZ
    Blend: AUG-CC-PVTZ
  Basis Set: (AUG-CC-PVTZ AUX)
    Blend: AUG-CC-PVTZ-JKFIT
	 Reference Energy          =    -418.1962615843789877 [Eh]
	 Singles Energy            =      -0.0000000000000000 [Eh]
	 Same-Spin Energy          =      -0.4155289236719749 [Eh]
	 Opposite-Spin Energy      =      -1.2912111769490182 [Eh]
	 Correlation Energy        =      -1.7067401006209932 [Eh]
	 Total Energy              =    -419.9030016849999924 [Eh]

	 ================> DF-SCS-MP2 Energies <==================
	-----------------------------------------------------------
	 SCS Same-Spin Scale       =       0.3333333333333333 [-]
	 SCS Opposite-Spin Scale   =       1.2000000000000000 [-]
	 SCS Same-Spin Energy      =      -0.1385096412239916 [Eh]
	 SCS Opposite-Spin Energy  =      -1.5494534123388217 [Eh]
	 SCS Correlation Energy    =      -1.6879630535628134 [Eh]
	 SCS Total Energy          =    -419.8842246379418270 [Eh]
	-----------------------------------------------------------

  Dipole Moment: [D]
     X:    10.0620      Y:     3.3360      Z:     0.6009     Total:    10.6176

*** Psi4 exiting successfully. Buy a developer a beer!
