                               Psi4 1.3.2 release

  ==> Input File <==

--------------------------------------------------------------------------
#psi4
#
memory 32 gb

molecule  {
-1 1
  O        0.5632720    -1.1719080    -0.3765930
  O       -2.2370500    -0.5589400     1.0879600
  O       -2.5032960     0.1554020    -1.0563790
  C        1.9927080     0.6815170     0.1510220
  C        0.6590843    -0.0064370    -0.0849187
  C       -0.5777410     0.8814240     0.1686100
  C        3.1729130    -0.2631210    -0.0329300
  C       -1.9010600     0.0931950     0.0560670
  H        2.0429660     1.5133360    -0.5640360
  H        2.0416183     1.1592724     1.1368916
  H       -0.4967450     1.3515110     1.1569670
  H       -0.5352790     1.6874700    -0.5756840
  H        3.1399490    -1.0742180     0.6982180
  H        3.1613950    -0.7098910    -1.0291440
  H        4.1160350     0.2752530     0.0934100
units angstrom
no_reorient  #important for SAPT in psi4, default
symmetry c1  #important for SAPT in psi4, default
}

set PROPERTIES_ORIGIN ["COM"]
properties('MP2/aug-cc-pvtz', properties = ['dipole'])
--------------------------------------------------------------------------

    Molecular point group: c1
  Charge       = -1
  Multiplicity = 1
  Basis Set: AUG-CC-PVTZ
    Blend: AUG-CC-PVTZ
  Basis Set: (AUG-CC-PVTZ AUX)
    Blend: AUG-CC-PVTZ-JKFIT

    Orbital Energies [Eh]
    ---------------------

    Doubly Occupied:

       1A    -20.413505     2A    -20.295272     3A    -20.293743
       4A    -11.198596     5A    -11.144484     6A    -11.129406
       7A    -11.120531     8A    -11.081105     9A     -1.258279
      10A     -1.162868    11A     -1.062899    12A     -0.949775
      13A     -0.860575    14A     -0.765078    15A     -0.613039
      16A     -0.537105    17A     -0.534536    18A     -0.525308
      19A     -0.475422    20A     -0.452640    21A     -0.439176
      22A     -0.412393    23A     -0.408726    24A     -0.402847
      25A     -0.377314    26A     -0.354753    27A     -0.336826
      28A     -0.276054    29A     -0.209092    30A     -0.205337
      31A     -0.191643

  @DF-RHF Final Energy:  -418.19605841429740

   => Energetics <=

    Nuclear Repulsion Energy =            356.7740033651554086
    One-Electron Energy =               -1290.9634686881076959
    Two-Electron Energy =                 515.9934069086549471
    Total Energy =                       -418.1960584142973403
  Basis Set: (AUG-CC-PVTZ AUX)
    Blend: AUG-CC-PVTZ-RI
    Molecular point group: c1

    Geometry (in Angstrom), charge = -1, multiplicity = 1:

       Center              X                  Y                   Z               Mass
    ------------   -----------------  -----------------  -----------------  -----------------
         O            0.677022026814    -1.134315976251    -0.363550189205    15.994914619570
         O           -2.123299973186    -0.521347976251     1.101002810795    15.994914619570
         O           -2.389545973186     0.192994023749    -1.043336189205    15.994914619570
         C            2.106458026814     0.719109023749     0.164064810795    12.000000000000
         C            0.772834326814     0.031155023749    -0.071875889205    12.000000000000
         C           -0.463990973186     0.919016023749     0.181652810795    12.000000000000
         C            3.286663026814    -0.225528976251    -0.019887189205    12.000000000000
         C           -1.787309973186     0.130787023749     0.069109810795    12.000000000000
         H            2.156716026814     1.550928023749    -0.550993189205     1.007825032230
         H            2.155368326814     1.196864423749     1.149934410795     1.007825032230
         H           -0.382994973186     1.389103023749     1.170009810795     1.007825032230
         H           -0.421528973186     1.725062023749    -0.562641189205     1.007825032230
         H            3.253699026814    -1.036625976251     0.711260810795     1.007825032230
         H            3.275145026814    -0.672298976251    -1.016101189205     1.007825032230
         H            4.229785026814     0.312845023749     0.106452810795     1.007825032230

  Basis Set: AUG-CC-PVTZ
    Blend: AUG-CC-PVTZ
  Basis Set: (AUG-CC-PVTZ AUX)
    Blend: AUG-CC-PVTZ-JKFIT
	 Reference Energy          =    -418.1960584142973971 [Eh]
	 Singles Energy            =      -0.0000000000000000 [Eh]
	 Same-Spin Energy          =      -0.4154485258085684 [Eh]
	 Opposite-Spin Energy      =      -1.2910816309520952 [Eh]
	 Correlation Energy        =      -1.7065301567606634 [Eh]
	 Total Energy              =    -419.9025885710580610 [Eh]

	 ================> DF-SCS-MP2 Energies <==================
	-----------------------------------------------------------
	 SCS Same-Spin Scale       =       0.3333333333333333 [-]
	 SCS Opposite-Spin Scale   =       1.2000000000000000 [-]
	 SCS Same-Spin Energy      =      -0.1384828419361895 [Eh]
	 SCS Opposite-Spin Energy  =      -1.5492979571425141 [Eh]
	 SCS Correlation Energy    =      -1.6877807990787035 [Eh]
	 SCS Total Energy          =    -419.8838392133761204 [Eh]
	-----------------------------------------------------------

  Dipole Moment: [D]
     X:    10.1015      Y:     3.3506      Z:     0.5708     Total:    10.6580

*** Psi4 exiting successfully. Buy a developer a beer!
