                               Psi4 1.3.2 release

  ==> Input File <==

--------------------------------------------------------------------------
#psi4
#
memory 32 gb

molecule  {
-1 1
  O        0.5632720    -1.1719080    -0.3765930
  O       -2.2370500    -0.5589400     1.0879600
  O       -2.5032960     0.1554020    -1.0563790
  C        1.9927080     0.6815170     0.1510220
  C        0.6513206     0.0197086    -0.0348764
  C       -0.5777410     0.8814240     0.1686100
  C        3.1729130    -0.2631210    -0.0329300
  C       -1.9079465     0.1045293     0.0584645
  H        2.0429660     1.5133360    -0.5640360
  H        2.0060190     1.1470430     1.1438410
  H       -0.4967450     1.3515110     1.1569670
  H       -0.5352790     1.6874700    -0.5756840
  H        3.1399490    -1.0742180     0.6982180
  H        3.1613950    -0.7098910    -1.0291440
  H        4.1160350     0.2752530     0.0934100
units angstrom
no_reorient  #important for SAPT in psi4, default
symmetry c1  #important for SAPT in psi4, default
}

set PROPERTIES_ORIGIN ["COM"]
properties('MP2/aug-cc-pvtz', properties = ['dipole'])
--------------------------------------------------------------------------

    Molecular point group: c1
  Charge       = -1
  Multiplicity = 1
  Basis Set: AUG-CC-PVTZ
    Blend: AUG-CC-PVTZ
  Basis Set: (AUG-CC-PVTZ AUX)
    Blend: AUG-CC-PVTZ-JKFIT

    Orbital Energies [Eh]
    ---------------------

    Doubly Occupied:

       1A    -20.409127     2A    -20.297040     3A    -20.294224
       4A    -11.200919     5A    -11.146407     6A    -11.131164
       7A    -11.121472     8A    -11.083353     9A     -1.231975
      10A     -1.163713    11A     -1.063797    12A     -0.952087
      13A     -0.868397    14A     -0.769050    15A     -0.612447
      16A     -0.538502    17A     -0.528566    18A     -0.527395
      19A     -0.469450    20A     -0.454493    21A     -0.438902
      22A     -0.411399    23A     -0.407050    24A     -0.403979
      25A     -0.376803    26A     -0.343060    27A     -0.335227
      28A     -0.281199    29A     -0.210367    30A     -0.207473
      31A     -0.192283

  @DF-RHF Final Energy:  -418.19346195469365

   => Energetics <=

    Nuclear Repulsion Energy =            356.5331771726221746
    One-Electron Energy =               -1290.5106360409668014
    Two-Electron Energy =                 515.7839969136509808
    Total Energy =                       -418.1934619546937029
  Basis Set: (AUG-CC-PVTZ AUX)
    Blend: AUG-CC-PVTZ-RI
    Molecular point group: c1

    Geometry (in Angstrom), charge = -1, multiplicity = 1:

       Center              X                  Y                   Z               Mass
    ------------   -----------------  -----------------  -----------------  -----------------
         O            0.678862092448    -1.138118440900    -0.369081170075    15.994914619570
         O           -2.121459907552    -0.525150440900     1.095471829925    15.994914619570
         O           -2.387705907552     0.189191559100    -1.048867170075    15.994914619570
         C            2.108298092448     0.715306559100     0.158533829925    12.000000000000
         C            0.766910692448     0.053498159100    -0.027364570075    12.000000000000
         C           -0.462150907552     0.915213559100     0.176121829925    12.000000000000
         C            3.288503092448    -0.229331440900    -0.025418170075    12.000000000000
         C           -1.792356407552     0.138318859100     0.065976329925    12.000000000000
         H            2.158556092448     1.547125559100    -0.556524170075     1.007825032230
         H            2.121609092448     1.180832559100     1.151352829925     1.007825032230
         H           -0.381154907552     1.385300559100     1.164478829925     1.007825032230
         H           -0.419688907552     1.721259559100    -0.568172170075     1.007825032230
         H            3.255539092448    -1.040428440900     0.705729829925     1.007825032230
         H            3.276985092448    -0.676101440900    -1.021632170075     1.007825032230
         H            4.231625092448     0.309042559100     0.100921829925     1.007825032230

  Basis Set: AUG-CC-PVTZ
    Blend: AUG-CC-PVTZ
  Basis Set: (AUG-CC-PVTZ AUX)
    Blend: AUG-CC-PVTZ-JKFIT
	 Reference Energy          =    -418.1934619546936460 [Eh]
	 Singles Energy            =      -0.0000000000000000 [Eh]
	 Same-Spin Energy          =      -0.4165614732619829 [Eh]
	 Opposite-Spin Energy      =      -1.2933284056962309 [Eh]
	 Correlation Energy        =      -1.7098898789582138 [Eh]
	 Total Energy              =    -419.9033518336518682 [Eh]

	 ================> DF-SCS-MP2 Energies <==================
	-----------------------------------------------------------
	 SCS Same-Spin Scale       =       0.3333333333333333 [-]
	 SCS Opposite-Spin Scale   =       1.2000000000000000 [-]
	 SCS Same-Spin Energy      =      -0.1388538244206610 [Eh]
	 SCS Opposite-Spin Energy  =      -1.5519940868354769 [Eh]
	 SCS Correlation Energy    =      -1.6908479112561379 [Eh]
	 SCS Total Energy          =    -419.8843098659497741 [Eh]
	-----------------------------------------------------------

  Dipole Moment: [D]
     X:    10.0260      Y:     3.5111      Z:     0.6251     Total:    10.6414

*** Psi4 exiting successfully. Buy a developer a beer!
