                               Psi4 1.3.2 release

  ==> Input File <==

--------------------------------------------------------------------------
#psi4
#
memory 32 gb

molecule  {
-1 1
  O        0.5632720    -1.1719080    -0.3765930
  O       -2.2726351    -0.5735405     1.0661998
  O       -2.5341965     0.1281847    -1.0402942
  C        1.9927080     0.6815170     0.1510220
  C        0.6435570     0.0091630    -0.0366810
  C       -0.5777410     0.8814240     0.1686100
  C        3.1729130    -0.2631210    -0.0329300
  C       -1.9010600     0.0931950     0.0560670
  H        2.0429660     1.5133360    -0.5640360
  H        2.0060190     1.1470430     1.1438410
  H       -0.4967450     1.3515110     1.1569670
  H       -0.5352790     1.6874700    -0.5756840
  H        3.1399490    -1.0742180     0.6982180
  H        3.1613950    -0.7098910    -1.0291440
  H        4.1160350     0.2752530     0.0934100
units angstrom
no_reorient  #important for SAPT in psi4, default
symmetry c1  #important for SAPT in psi4, default
}

set PROPERTIES_ORIGIN ["COM"]
properties('MP2/aug-cc-pvtz', properties = ['dipole'])
--------------------------------------------------------------------------

    Molecular point group: c1
  Charge       = -1
  Multiplicity = 1
  Basis Set: AUG-CC-PVTZ
    Blend: AUG-CC-PVTZ
  Basis Set: (AUG-CC-PVTZ AUX)
    Blend: AUG-CC-PVTZ-JKFIT

    Orbital Energies [Eh]
    ---------------------

    Doubly Occupied:

       1A    -20.412224     2A    -20.292337     3A    -20.290530
       4A    -11.202307     5A    -11.144140     6A    -11.132025
       7A    -11.122131     8A    -11.087857     9A     -1.241380
      10A     -1.163268    11A     -1.056074    12A     -0.951594
      13A     -0.871501    14A     -0.768984    15A     -0.613751
      16A     -0.539019    17A     -0.531985    18A     -0.528014
      19A     -0.472129    20A     -0.456840    21A     -0.440011
      22A     -0.411609    23A     -0.409306    24A     -0.403476
      25A     -0.374831    26A     -0.348002    27A     -0.334586
      28A     -0.282420    29A     -0.210630    30A     -0.202638
      31A     -0.187264

  @DF-RHF Final Energy:  -418.19343891212981

   => Energetics <=

    Nuclear Repulsion Energy =            356.3071378932230004
    One-Electron Energy =               -1290.0354318486138254
    Two-Electron Energy =                 515.5348550432611319
    Total Energy =                       -418.1934389121297500
  Basis Set: (AUG-CC-PVTZ AUX)
    Blend: AUG-CC-PVTZ-RI
    Molecular point group: c1

    Geometry (in Angstrom), charge = -1, multiplicity = 1:

       Center              X                  Y                   Z               Mass
    ------------   -----------------  -----------------  -----------------  -----------------
         O            0.688197638215    -1.130021823773    -0.367853741974    15.994914619570
         O           -2.147709461785    -0.531654323773     1.074939058026    15.994914619570
         O           -2.409270861785     0.170070876227    -1.031554941974    15.994914619570
         C            2.117633638215     0.723403176227     0.159761258026    12.000000000000
         C            0.768482638215     0.051049176227    -0.027941741974    12.000000000000
         C           -0.452815361785     0.923310176227     0.177349258026    12.000000000000
         C            3.297838638215    -0.221234823773    -0.024190741974    12.000000000000
         C           -1.776134361785     0.135081176227     0.064806258026    12.000000000000
         H            2.167891638215     1.555222176227    -0.555296741974     1.007825032230
         H            2.130944638215     1.188929176227     1.152580258026     1.007825032230
         H           -0.371819361785     1.393397176227     1.165706258026     1.007825032230
         H           -0.410353361785     1.729356176227    -0.566944741974     1.007825032230
         H            3.264874638215    -1.032331823773     0.706957258026     1.007825032230
         H            3.286320638215    -0.668004823773    -1.020404741974     1.007825032230
         H            4.240960638215     0.317139176227     0.102149258026     1.007825032230

  Basis Set: AUG-CC-PVTZ
    Blend: AUG-CC-PVTZ
  Basis Set: (AUG-CC-PVTZ AUX)
    Blend: AUG-CC-PVTZ-JKFIT
	 Reference Energy          =    -418.1934389121298068 [Eh]
	 Singles Energy            =      -0.0000000000000000 [Eh]
	 Same-Spin Energy          =      -0.4161518429712271 [Eh]
	 Opposite-Spin Energy      =      -1.2925332136955325 [Eh]
	 Correlation Energy        =      -1.7086850566667597 [Eh]
	 Total Energy              =    -419.9021239687965590 [Eh]

	 ================> DF-SCS-MP2 Energies <==================
	-----------------------------------------------------------
	 SCS Same-Spin Scale       =       0.3333333333333333 [-]
	 SCS Opposite-Spin Scale   =       1.2000000000000000 [-]
	 SCS Same-Spin Energy      =      -0.1387172809904090 [Eh]
	 SCS Opposite-Spin Energy  =      -1.5510398564346390 [Eh]
	 SCS Correlation Energy    =      -1.6897571374250480 [Eh]
	 SCS Total Energy          =    -419.8831960495548401 [Eh]
	-----------------------------------------------------------

  Dipole Moment: [D]
     X:    10.2208      Y:     3.5621      Z:     0.6437     Total:    10.8429

*** Psi4 exiting successfully. Buy a developer a beer!
