                               Psi4 1.3.2 release

  ==> Input File <==

--------------------------------------------------------------------------
#psi4
#
memory 32 gb

molecule  {
-1 1
  O        0.5632720    -1.1719080    -0.3765930
  O       -2.2370500    -0.5589400     1.0879600
  O       -2.5032960     0.1554020    -1.0563790
  C        1.9927080     0.6815170     0.1510220
  C        0.6435570     0.0091630    -0.0366810
  C       -0.5777410     0.8814240     0.1686100
  C        3.1729130    -0.2631210    -0.0329300
  C       -1.8847551     0.0618517     0.0967816
  H        2.0429660     1.5133360    -0.5640360
  H        2.0060190     1.1470430     1.1438410
  H       -0.4967450     1.3515110     1.1569670
  H       -0.5007043     1.6971271    -0.5622665
  H        3.1399490    -1.0742180     0.6982180
  H        3.1613950    -0.7098910    -1.0291440
  H        4.1160350     0.2752530     0.0934100
units angstrom
no_reorient  #important for SAPT in psi4, default
symmetry c1  #important for SAPT in psi4, default
}

set PROPERTIES_ORIGIN ["COM"]
properties('MP2/aug-cc-pvtz', properties = ['dipole'])
--------------------------------------------------------------------------

    Molecular point group: c1
  Charge       = -1
  Multiplicity = 1
  Basis Set: AUG-CC-PVTZ
    Blend: AUG-CC-PVTZ
  Basis Set: (AUG-CC-PVTZ AUX)
    Blend: AUG-CC-PVTZ-JKFIT

    Orbital Energies [Eh]
    ---------------------

    Doubly Occupied:

       1A    -20.410470     2A    -20.306817     3A    -20.284452
       4A    -11.199897     5A    -11.146254     6A    -11.130276
       7A    -11.120989     8A    -11.083388     9A     -1.240067
      10A     -1.175968    11A     -1.053926    12A     -0.950082
      13A     -0.868911    14A     -0.766877    15A     -0.611179
      16A     -0.540706    17A     -0.530313    18A     -0.526403
      19A     -0.472373    20A     -0.453655    21A     -0.442010
      22A     -0.413669    23A     -0.408123    24A     -0.402922
      25A     -0.376427    26A     -0.348633    27A     -0.337954
      28A     -0.280853    29A     -0.213919    30A     -0.200142
      31A     -0.190256

  @DF-RHF Final Energy:  -418.19142864506819

   => Energetics <=

    Nuclear Repulsion Energy =            356.8883549492331326
    One-Electron Energy =               -1291.1837484628624679
    Two-Electron Energy =                 516.1039648685610928
    Total Energy =                       -418.1914286450681857
  Basis Set: (AUG-CC-PVTZ AUX)
    Blend: AUG-CC-PVTZ-RI
    Molecular point group: c1

    Geometry (in Angstrom), charge = -1, multiplicity = 1:

       Center              X                  Y                   Z               Mass
    ------------   -----------------  -----------------  -----------------  -----------------
         O            0.676949890016    -1.132651226348    -0.373007407736    15.994914619570
         O           -2.123372109984    -0.519683226348     1.091545592264    15.994914619570
         O           -2.389618109984     0.194658773652    -1.052793407736    15.994914619570
         C            2.106385890016     0.720773773652     0.154607592264    12.000000000000
         C            0.757234890016     0.048419773652    -0.033095407736    12.000000000000
         C           -0.464063109984     0.920680773652     0.172195592264    12.000000000000
         C            3.286590890016    -0.223864226348    -0.029344407736    12.000000000000
         C           -1.771077209984     0.101108473652     0.100367192264    12.000000000000
         H            2.156643890016     1.552592773652    -0.560450407736     1.007825032230
         H            2.119696890016     1.186299773652     1.147426592264     1.007825032230
         H           -0.383067109984     1.390767773652     1.160552592264     1.007825032230
         H           -0.387026409984     1.736383873652    -0.558680907736     1.007825032230
         H            3.253626890016    -1.034961226348     0.701803592264     1.007825032230
         H            3.275072890016    -0.670634226348    -1.025558407736     1.007825032230
         H            4.229712890016     0.314509773652     0.096995592264     1.007825032230

  Basis Set: AUG-CC-PVTZ
    Blend: AUG-CC-PVTZ
  Basis Set: (AUG-CC-PVTZ AUX)
    Blend: AUG-CC-PVTZ-JKFIT
	 Reference Energy          =    -418.1914286450681857 [Eh]
	 Singles Energy            =      -0.0000000000000000 [Eh]
	 Same-Spin Energy          =      -0.4162082890962988 [Eh]
	 Opposite-Spin Energy      =      -1.2925046977224728 [Eh]
	 Correlation Energy        =      -1.7087129868187716 [Eh]
	 Total Energy              =    -419.9001416318869815 [Eh]

	 ================> DF-SCS-MP2 Energies <==================
	-----------------------------------------------------------
	 SCS Same-Spin Scale       =       0.3333333333333333 [-]
	 SCS Opposite-Spin Scale   =       1.2000000000000000 [-]
	 SCS Same-Spin Energy      =      -0.1387360963654329 [Eh]
	 SCS Opposite-Spin Energy  =      -1.5510056372669674 [Eh]
	 SCS Correlation Energy    =      -1.6897417336324003 [Eh]
	 SCS Total Energy          =    -419.8811703787005740 [Eh]
	-----------------------------------------------------------

  Dipole Moment: [D]
     X:    10.0739      Y:     3.2958      Z:     1.1459     Total:    10.6610

*** Psi4 exiting successfully. Buy a developer a beer!
