                               Psi4 1.4a3.dev225

  ==> Input File <==

--------------------------------------------------------------------------
#psi4
#
memory 32 gb

molecule  {
-1 1
  O        1.0745520     1.3418620    -0.8745480
  O       -1.1230780    -1.1034960    -0.8170800
  O       -2.9206860    -0.1812610     0.2330210
  C        1.4738630    -0.3704550     0.7611780
  C        0.6286860     0.6706690     0.0605170
  C       -0.7798250     0.8397660     0.5534010
  C        2.7202340    -0.7612590    -0.0182770
  C       -1.6808713    -0.2578547    -0.0759607
  H        1.7414500     0.0432240     1.7443780
  H        0.8355880    -1.2371210     0.9565080
  H       -0.8294850     0.7587360     1.6458800
  H       -1.1523820     1.8284630     0.2671350
  H        2.4446610    -1.1885100    -0.9860420
  H        3.3521650     0.1095510    -0.2043800
  H        3.3054110    -1.5035610     0.5312540
units angstrom
no_reorient  #important for SAPT in psi4, default
symmetry c1  #important for SAPT in psi4, default
}

set PROPERTIES_ORIGIN ["COM"]
properties('MP2/aug-cc-pvtz', properties = ['dipole'])
--------------------------------------------------------------------------

    Molecular point group: c1
  Charge       = -1
  Multiplicity = 1
  Basis Set: AUG-CC-PVTZ
    Blend: AUG-CC-PVTZ
  Basis Set: (AUG-CC-PVTZ AUX)
    Blend: AUG-CC-PVTZ-JKFIT

    Orbital Energies [Eh]
    ---------------------

    Doubly Occupied:

       1A    -20.401474     2A    -20.317551     3A    -20.306500
       4A    -11.190705     5A    -11.164347     6A    -11.108983
       7A    -11.103110     8A    -11.081744     9A     -1.231725
      10A     -1.182433    11A     -1.079517    12A     -0.933795
      13A     -0.865143    14A     -0.753540    15A     -0.602440
      16A     -0.548268    17A     -0.515078    18A     -0.505305
      19A     -0.481980    20A     -0.449796    21A     -0.441930
      22A     -0.406673    23A     -0.398880    24A     -0.390569
      25A     -0.379653    26A     -0.349668    27A     -0.336489
      28A     -0.277431    29A     -0.230062    30A     -0.215448
      31A     -0.209634

  @DF-RHF Final Energy:  -418.20806764508154

   => Energetics <=

    Nuclear Repulsion Energy =            362.6880192714923510
    One-Electron Energy =               -1302.8724283825417842
    Two-Electron Energy =                 521.9763414659679484
    Total Energy =                       -418.2080676450815417
  Basis Set: (AUG-CC-PVTZ AUX)
    Blend: AUG-CC-PVTZ-RI
    Molecular point group: c1

    Geometry (in Angstrom), charge = -1, multiplicity = 1:

       Center              X                  Y                   Z               Mass
    ------------   -----------------  -----------------  -----------------  -----------------
         O            1.156036706924     1.331732771893    -0.840000603184    15.994914619570
         O           -1.041593293076    -1.113625228107    -0.782532603184    15.994914619570
         O           -2.839201293076    -0.191390228107     0.267568396816    15.994914619570
         C            1.555347706924    -0.380584228107     0.795725396816    12.000000000000
         C            0.710170706924     0.660539771893     0.095064396816    12.000000000000
         C           -0.698340293076     0.829636771893     0.587948396816    12.000000000000
         C            2.801718706924    -0.771388228107     0.016270396816    12.000000000000
         C           -1.599386593076    -0.267983928107    -0.041413303184    12.000000000000
         H            1.822934706924     0.033094771893     1.778925396816     1.007825032230
         H            0.917072706924    -1.247250228107     0.991055396816     1.007825032230
         H           -0.748000293076     0.748606771893     1.680427396816     1.007825032230
         H           -1.070897293076     1.818333771893     0.301682396816     1.007825032230
         H            2.526145706924    -1.198639228107    -0.951494603184     1.007825032230
         H            3.433649706924     0.099421771893    -0.169832603184     1.007825032230
         H            3.386895706924    -1.513690228107     0.565801396816     1.007825032230

  Basis Set: AUG-CC-PVTZ
    Blend: AUG-CC-PVTZ
  Basis Set: (AUG-CC-PVTZ AUX)
    Blend: AUG-CC-PVTZ-JKFIT
	 Reference Energy          =    -418.2080676450815417 [Eh]
	 Singles Energy            =      -0.0000000000000000 [Eh]
	 Same-Spin Energy          =      -0.4168468812900676 [Eh]
	 Opposite-Spin Energy      =      -1.2925578379538578 [Eh]
	 Correlation Energy        =      -1.7094047192439255 [Eh]
	 Total Energy              =    -419.9174723643254765 [Eh]

	 ================> DF-SCS-MP2 Energies <==================
	-----------------------------------------------------------
	 SCS Same-Spin Scale       =       0.3333333333333333 [-]
	 SCS Opposite-Spin Scale   =       1.2000000000000000 [-]
	 SCS Same-Spin Energy      =      -0.1389489604300225 [Eh]
	 SCS Opposite-Spin Energy  =      -1.5510694055446292 [Eh]
	 SCS Correlation Energy    =      -1.6900183659746517 [Eh]
	 SCS Total Energy          =    -419.8980860110561935 [Eh]
	-----------------------------------------------------------

  Dipole Moment: [D]
     X:     6.9574      Y:     1.2332      Z:     3.1337     Total:     7.7296

*** Psi4 exiting successfully. Buy a developer a beer!
