                               Psi4 1.4a3.dev225

  ==> Input File <==

--------------------------------------------------------------------------
#psi4
#
memory 32 gb

molecule  {
-1 1
  O        1.0745520     1.3418620    -0.8745480
  O       -1.1230780    -1.1034960    -0.8170800
  O       -2.9206860    -0.1812610     0.2330210
  C        1.4738630    -0.3704550     0.7611780
  C        0.6286860     0.6706690     0.0605170
  C       -0.7798250     0.8397660     0.5534010
  C        2.7202340    -0.7612590    -0.0182770
  C       -1.7002430    -0.2566580    -0.0711330
  H        1.7414500     0.0432240     1.7443780
  H        0.8355880    -1.2371210     0.9565080
  H       -0.8285793     0.7602138     1.6259552
  H       -1.1523820     1.8284630     0.2671350
  H        2.4446610    -1.1885100    -0.9860420
  H        3.3521650     0.1095510    -0.2043800
  H        3.3054110    -1.5035610     0.5312540
units angstrom
no_reorient  #important for SAPT in psi4, default
symmetry c1  #important for SAPT in psi4, default
}

set PROPERTIES_ORIGIN ["COM"]
properties('MP2/aug-cc-pvtz', properties = ['dipole'])
--------------------------------------------------------------------------

    Molecular point group: c1
  Charge       = -1
  Multiplicity = 1
  Basis Set: AUG-CC-PVTZ
    Blend: AUG-CC-PVTZ
  Basis Set: (AUG-CC-PVTZ AUX)
    Blend: AUG-CC-PVTZ-JKFIT

    Orbital Energies [Eh]
    ---------------------

    Doubly Occupied:

       1A    -20.400055     2A    -20.313620     3A    -20.311355
       4A    -11.189548     5A    -11.164239     6A    -11.107915
       7A    -11.102252     8A    -11.078119     9A     -1.230297
      10A     -1.182997    11A     -1.084247    12A     -0.932691
      13A     -0.864186    14A     -0.752655    15A     -0.601625
      16A     -0.546778    17A     -0.514894    18A     -0.504532
      19A     -0.480493    20A     -0.450565    21A     -0.441613
      22A     -0.408537    23A     -0.398574    24A     -0.390468
      25A     -0.378606    26A     -0.349335    27A     -0.337493
      28A     -0.276329    29A     -0.229360    30A     -0.216418
      31A     -0.211549

  @DF-RHF Final Energy:  -418.20948076359184

   => Energetics <=

    Nuclear Repulsion Energy =            362.6764202471667318
    One-Electron Energy =               -1302.8691049843309884
    Two-Electron Energy =                 521.9832039735723583
    Total Energy =                       -418.2094807635918414
  Basis Set: (AUG-CC-PVTZ AUX)
    Blend: AUG-CC-PVTZ-RI
    Molecular point group: c1

    Geometry (in Angstrom), charge = -1, multiplicity = 1:

       Center              X                  Y                   Z               Mass
    ------------   -----------------  -----------------  -----------------  -----------------
         O            1.158049472752     1.331594995205    -0.840329635225    15.994914619570
         O           -1.039580527248    -1.113763004795    -0.782861635225    15.994914619570
         O           -2.837188527248    -0.191528004795     0.267239364775    15.994914619570
         C            1.557360472752    -0.380722004795     0.795396364775    12.000000000000
         C            0.712183472752     0.660401995205     0.094735364775    12.000000000000
         C           -0.696327527248     0.829498995205     0.587619364775    12.000000000000
         C            2.803731472752    -0.771526004795     0.015941364775    12.000000000000
         C           -1.616745527248    -0.266925004795    -0.036914635225    12.000000000000
         H            1.824947472752     0.032956995205     1.778596364775     1.007825032230
         H            0.919085472752    -1.247388004795     0.990726364775     1.007825032230
         H           -0.745081827248     0.749946795205     1.660173564775     1.007825032230
         H           -1.068884527248     1.818195995205     0.301353364775     1.007825032230
         H            2.528158472752    -1.198777004795    -0.951823635225     1.007825032230
         H            3.435662472752     0.099283995205    -0.170161635225     1.007825032230
         H            3.388908472752    -1.513828004795     0.565472364775     1.007825032230

  Basis Set: AUG-CC-PVTZ
    Blend: AUG-CC-PVTZ
  Basis Set: (AUG-CC-PVTZ AUX)
    Blend: AUG-CC-PVTZ-JKFIT
	 Reference Energy          =    -418.2094807635918414 [Eh]
	 Singles Energy            =      -0.0000000000000000 [Eh]
	 Same-Spin Energy          =      -0.4167098468503304 [Eh]
	 Opposite-Spin Energy      =      -1.2921164167901429 [Eh]
	 Correlation Energy        =      -1.7088262636404732 [Eh]
	 Total Energy              =    -419.9183070272322880 [Eh]

	 ================> DF-SCS-MP2 Energies <==================
	-----------------------------------------------------------
	 SCS Same-Spin Scale       =       0.3333333333333333 [-]
	 SCS Opposite-Spin Scale   =       1.2000000000000000 [-]
	 SCS Same-Spin Energy      =      -0.1389032822834435 [Eh]
	 SCS Opposite-Spin Energy  =      -1.5505397001481713 [Eh]
	 SCS Correlation Energy    =      -1.6894429824316148 [Eh]
	 SCS Total Energy          =    -419.8989237460234563 [Eh]
	-----------------------------------------------------------

  Dipole Moment: [D]
     X:     6.7362      Y:     1.2606      Z:     3.2048     Total:     7.5655

*** Psi4 exiting successfully. Buy a developer a beer!
