                               Psi4 1.3.2 release

  ==> Input File <==

--------------------------------------------------------------------------
#psi4
#
memory 32 gb

molecule  {
-1 1
  O        0.5418352    -1.1704071    -0.3760652
  O       -2.2370500    -0.5589400     1.0879600
  O       -2.5032960     0.1554020    -1.0563790
  C        1.9803202     0.7040260     0.1575620
  C        0.6435570     0.0091630    -0.0366810
  C       -0.5777410     0.8814240     0.1686100
  C        3.1729130    -0.2631210    -0.0329300
  C       -1.9010600     0.0931950     0.0560670
  H        2.0429660     1.5133360    -0.5640360
  H        2.0060190     1.1470430     1.1438410
  H       -0.4967450     1.3515110     1.1569670
  H       -0.5352790     1.6874700    -0.5756840
  H        3.1399490    -1.0742180     0.6982180
  H        3.1613950    -0.7098910    -1.0291440
  H        4.1160350     0.2752530     0.0934100
units angstrom
no_reorient  #important for SAPT in psi4, default
symmetry c1  #important for SAPT in psi4, default
}

set PROPERTIES_ORIGIN ["COM"]
properties('MP2/aug-cc-pvtz', properties = ['dipole'])
--------------------------------------------------------------------------

    Molecular point group: c1
  Charge       = -1
  Multiplicity = 1
  Basis Set: AUG-CC-PVTZ
    Blend: AUG-CC-PVTZ
  Basis Set: (AUG-CC-PVTZ AUX)
    Blend: AUG-CC-PVTZ-JKFIT

    Orbital Energies [Eh]
    ---------------------

    Doubly Occupied:

       1A    -20.410944     2A    -20.295660     3A    -20.293842
       4A    -11.200121     5A    -11.145205     6A    -11.130246
       7A    -11.122349     8A    -11.081197     9A     -1.239418
      10A     -1.163035    11A     -1.063187    12A     -0.948452
      13A     -0.866308    14A     -0.768223    15A     -0.613409
      16A     -0.537021    17A     -0.529538    18A     -0.528511
      19A     -0.470498    20A     -0.454009    21A     -0.437818
      22A     -0.410543    23A     -0.406874    24A     -0.404615
      25A     -0.378522    26A     -0.347007    27A     -0.335098
      28A     -0.279951    29A     -0.209504    30A     -0.206149
      31A     -0.191786

  @DF-RHF Final Energy:  -418.19451913071288

   => Energetics <=

    Nuclear Repulsion Energy =            356.6700881878606992
    One-Electron Energy =               -1290.7911373433764766
    Two-Electron Energy =                 515.9265300248029007
    Total Energy =                       -418.1945191307128198
  Basis Set: (AUG-CC-PVTZ AUX)
    Blend: AUG-CC-PVTZ-RI
    Molecular point group: c1

    Geometry (in Angstrom), charge = -1, multiplicity = 1:

       Center              X                  Y                   Z               Mass
    ------------   -----------------  -----------------  -----------------  -----------------
         O            0.661789519539    -1.136891846353    -0.368870625538    15.994914619570
         O           -2.117095680461    -0.525424746353     1.095154574462    15.994914619570
         O           -2.383341680461     0.188917253647    -1.049184425538    15.994914619570
         C            2.100274519539     0.737541253647     0.164756574462    12.000000000000
         C            0.763511319539     0.042678253647    -0.029486425538    12.000000000000
         C           -0.457786680461     0.914939253647     0.175804574462    12.000000000000
         C            3.292867319539    -0.229605746353    -0.025735425538    12.000000000000
         C           -1.781105680461     0.126710253647     0.063261574462    12.000000000000
         H            2.162920319539     1.546851253647    -0.556841425538     1.007825032230
         H            2.125973319539     1.180558253647     1.151035574462     1.007825032230
         H           -0.376790680461     1.385026253647     1.164161574462     1.007825032230
         H           -0.415324680461     1.720985253647    -0.568489425538     1.007825032230
         H            3.259903319539    -1.040702746353     0.705412574462     1.007825032230
         H            3.281349319539    -0.676375746353    -1.021949425538     1.007825032230
         H            4.235989319539     0.308768253647     0.100604574462     1.007825032230

  Basis Set: AUG-CC-PVTZ
    Blend: AUG-CC-PVTZ
  Basis Set: (AUG-CC-PVTZ AUX)
    Blend: AUG-CC-PVTZ-JKFIT
	 Reference Energy          =    -418.1945191307128766 [Eh]
	 Singles Energy            =      -0.0000000000000000 [Eh]
	 Same-Spin Energy          =      -0.4160940592323517 [Eh]
	 Opposite-Spin Energy      =      -1.2925348460705954 [Eh]
	 Correlation Energy        =      -1.7086289053029471 [Eh]
	 Total Energy              =    -419.9031480360158071 [Eh]

	 ================> DF-SCS-MP2 Energies <==================
	-----------------------------------------------------------
	 SCS Same-Spin Scale       =       0.3333333333333333 [-]
	 SCS Opposite-Spin Scale   =       1.2000000000000000 [-]
	 SCS Same-Spin Energy      =      -0.1386980197441172 [Eh]
	 SCS Opposite-Spin Energy  =      -1.5510418152847145 [Eh]
	 SCS Correlation Energy    =      -1.6897398350288317 [Eh]
	 SCS Total Energy          =    -419.8842589657417079 [Eh]
	-----------------------------------------------------------

  Dipole Moment: [D]
     X:    10.0337      Y:     3.4701      Z:     0.6360     Total:    10.6358

*** Psi4 exiting successfully. Buy a developer a beer!
