                               Psi4 1.3.2 release

  ==> Input File <==

--------------------------------------------------------------------------
#psi4
#
memory 32 gb

molecule  {
-1 1
  O        0.5632720    -1.1719080    -0.3765930
  O       -2.2370500    -0.5589400     1.0879600
  O       -2.5032960     0.1554020    -1.0563790
  C        1.9927080     0.6815170     0.1510220
  C        0.4659256    -0.0793602    -0.0613943
  C       -0.5777410     0.8814240     0.1686100
  C        3.1729130    -0.2631210    -0.0329300
  C       -1.9010600     0.0931950     0.0560670
  H        2.0429660     1.5133360    -0.5640360
  H        2.0060190     1.1470430     1.1438410
  H       -0.4967450     1.3515110     1.1569670
  H       -0.5352790     1.6874700    -0.5756840
  H        3.1399490    -1.0742180     0.6982180
  H        3.1613950    -0.7098910    -1.0291440
  H        4.1160350     0.2752530     0.0934100
units angstrom
no_reorient  #important for SAPT in psi4, default
symmetry c1  #important for SAPT in psi4, default
}

set PROPERTIES_ORIGIN ["COM"]
properties('MP2/aug-cc-pvtz', properties = ['dipole'])
--------------------------------------------------------------------------

    Molecular point group: c1
  Charge       = -1
  Multiplicity = 1
  Basis Set: AUG-CC-PVTZ
    Blend: AUG-CC-PVTZ
  Basis Set: (AUG-CC-PVTZ AUX)
    Blend: AUG-CC-PVTZ-JKFIT

    Orbital Energies [Eh]
    ---------------------

    Doubly Occupied:

       1A    -20.421926     2A    -20.303123     3A    -20.302090
       4A    -11.200376     5A    -11.151577     6A    -11.109474
       7A    -11.108817     8A    -11.085999     9A     -1.308462
      10A     -1.172215    11A     -1.071433    12A     -0.922024
      13A     -0.886883    14A     -0.734703    15A     -0.610367
      16A     -0.555735    17A     -0.535207    18A     -0.511108
      19A     -0.493067    20A     -0.467339    21A     -0.443237
      22A     -0.412242    23A     -0.407320    24A     -0.398308
      25A     -0.377849    26A     -0.372215    27A     -0.345143
      28A     -0.258038    29A     -0.217451    30A     -0.201637
      31A     -0.200153

  @DF-RHF Final Energy:  -418.17053771771396

   => Energetics <=

    Nuclear Repulsion Energy =            358.1640000655320364
    One-Electron Energy =               -1293.4980373747689555
    Two-Electron Energy =                 517.1634995915229638
    Total Energy =                       -418.1705377177139553
  Basis Set: (AUG-CC-PVTZ AUX)
    Blend: AUG-CC-PVTZ-RI
    Molecular point group: c1

    Geometry (in Angstrom), charge = -1, multiplicity = 1:

       Center              X                  Y                   Z               Mass
    ------------   -----------------  -----------------  -----------------  -----------------
         O            0.697482667508    -1.126602074955    -0.366064947452    15.994914619570
         O           -2.102839332492    -0.513634074955     1.098488052548    15.994914619570
         O           -2.369085332492     0.200707925045    -1.045850947452    15.994914619570
         C            2.126918667508     0.726822925045     0.161550052548    12.000000000000
         C            0.600136267508    -0.034054274955    -0.050866247452    12.000000000000
         C           -0.443530332492     0.926729925045     0.179138052548    12.000000000000
         C            3.307123667508    -0.217815074955    -0.022401947452    12.000000000000
         C           -1.766849332492     0.138500925045     0.066595052548    12.000000000000
         H            2.177176667508     1.558641925045    -0.553507947452     1.007825032230
         H            2.140229667508     1.192348925045     1.154369052548     1.007825032230
         H           -0.362534332492     1.396816925045     1.167495052548     1.007825032230
         H           -0.401068332492     1.732775925045    -0.565155947452     1.007825032230
         H            3.274159667508    -1.028912074955     0.708746052548     1.007825032230
         H            3.295605667508    -0.664585074955    -1.018615947452     1.007825032230
         H            4.250245667508     0.320558925045     0.103938052548     1.007825032230

  Basis Set: AUG-CC-PVTZ
    Blend: AUG-CC-PVTZ
  Basis Set: (AUG-CC-PVTZ AUX)
    Blend: AUG-CC-PVTZ-JKFIT
	 Reference Energy          =    -418.1705377177139553 [Eh]
	 Singles Energy            =      -0.0000000000000000 [Eh]
	 Same-Spin Energy          =      -0.4155373172465300 [Eh]
	 Opposite-Spin Energy      =      -1.2904522570028294 [Eh]
	 Correlation Energy        =      -1.7059895742493594 [Eh]
	 Total Energy              =    -419.8765272919633276 [Eh]

	 ================> DF-SCS-MP2 Energies <==================
	-----------------------------------------------------------
	 SCS Same-Spin Scale       =       0.3333333333333333 [-]
	 SCS Opposite-Spin Scale   =       1.2000000000000000 [-]
	 SCS Same-Spin Energy      =      -0.1385124390821767 [Eh]
	 SCS Opposite-Spin Energy  =      -1.5485427084033951 [Eh]
	 SCS Correlation Energy    =      -1.6870551474855717 [Eh]
	 SCS Total Energy          =    -419.8575928651995355 [Eh]
	-----------------------------------------------------------

  Dipole Moment: [D]
     X:     8.6472      Y:     2.9885      Z:     0.4952     Total:     9.1624

*** Psi4 exiting successfully. Buy a developer a beer!
