                               Psi4 1.3.2 release

  ==> Input File <==

--------------------------------------------------------------------------
#psi4
#
memory 32 gb

molecule  {
-1 1
  O        0.5632720    -1.1719080    -0.3765930
  O       -2.2370500    -0.5589400     1.0879600
  O       -2.5032960     0.1554020    -1.0563790
  C        1.9927080     0.6815170     0.1510220
  C        0.6089275     0.0791661    -0.0216790
  C       -0.5777410     0.8814240     0.1686100
  C        3.2216224    -0.2018561    -0.0177514
  C       -1.9010600     0.0931950     0.0560670
  H        2.0429660     1.5133360    -0.5640360
  H        2.0060190     1.1470430     1.1438410
  H       -0.4967450     1.3515110     1.1569670
  H       -0.5352790     1.6874700    -0.5756840
  H        3.1399490    -1.0742180     0.6982180
  H        3.1613950    -0.7098910    -1.0291440
  H        4.1160350     0.2752530     0.0934100
units angstrom
no_reorient  #important for SAPT in psi4, default
symmetry c1  #important for SAPT in psi4, default
}

set PROPERTIES_ORIGIN ["COM"]
properties('MP2/aug-cc-pvtz', properties = ['dipole'])
--------------------------------------------------------------------------

    Molecular point group: c1
  Charge       = -1
  Multiplicity = 1
  Basis Set: AUG-CC-PVTZ
    Blend: AUG-CC-PVTZ
  Basis Set: (AUG-CC-PVTZ AUX)
    Blend: AUG-CC-PVTZ-JKFIT

    Orbital Energies [Eh]
    ---------------------

    Doubly Occupied:

       1A    -20.403419     2A    -20.299415     3A    -20.297432
       4A    -11.207398     5A    -11.150864     6A    -11.133625
       7A    -11.121940     8A    -11.086795     9A     -1.196759
      10A     -1.165720    11A     -1.066860    12A     -0.951795
      13A     -0.888303    14A     -0.772646    15A     -0.613908
      16A     -0.542867    17A     -0.529097    18A     -0.521930
      19A     -0.461746    20A     -0.458878    21A     -0.456792
      22A     -0.416795    23A     -0.392906    24A     -0.391686
      25A     -0.374946    26A     -0.338412    27A     -0.319819
      28A     -0.286427    29A     -0.213350    30A     -0.211584
      31A     -0.194670

  @DF-RHF Final Energy:  -418.17043502073500

   => Energetics <=

    Nuclear Repulsion Energy =            355.9657700120081927
    One-Electron Energy =               -1289.3348425798444623
    Two-Electron Energy =                 515.1986375471012707
    Total Energy =                       -418.1704350207349989
  Basis Set: (AUG-CC-PVTZ AUX)
    Blend: AUG-CC-PVTZ-RI
    Molecular point group: c1

    Geometry (in Angstrom), charge = -1, multiplicity = 1:

       Center              X                  Y                   Z               Mass
    ------------   -----------------  -----------------  -----------------  -----------------
         O            0.677484882240    -1.149528930187    -0.371791038844    15.994914619570
         O           -2.122837117760    -0.536560930187     1.092761961156    15.994914619570
         O           -2.389083117760     0.177781069813    -1.051577038844    15.994914619570
         C            2.106920882240     0.703896069813     0.155823961156    12.000000000000
         C            0.723140382240     0.101545169813    -0.016877038844    12.000000000000
         C           -0.463528117760     0.903803069813     0.173411961156    12.000000000000
         C            3.335835282240    -0.179477030187    -0.012949438844    12.000000000000
         C           -1.786847117760     0.115574069813     0.060868961156    12.000000000000
         H            2.157178882240     1.535715069813    -0.559234038844     1.007825032230
         H            2.120231882240     1.169422069813     1.148642961156     1.007825032230
         H           -0.382532117760     1.373890069813     1.161768961156     1.007825032230
         H           -0.421066117760     1.709849069813    -0.570882038844     1.007825032230
         H            3.254161882240    -1.051838930187     0.703019961156     1.007825032230
         H            3.275607882240    -0.687511930187    -1.024342038844     1.007825032230
         H            4.230247882240     0.297632069813     0.098211961156     1.007825032230

  Basis Set: AUG-CC-PVTZ
    Blend: AUG-CC-PVTZ
  Basis Set: (AUG-CC-PVTZ AUX)
    Blend: AUG-CC-PVTZ-JKFIT
	 Reference Energy          =    -418.1704350207349989 [Eh]
	 Singles Energy            =      -0.0000000000000000 [Eh]
	 Same-Spin Energy          =      -0.4188891361674567 [Eh]
	 Opposite-Spin Energy      =      -1.2978817035630406 [Eh]
	 Correlation Energy        =      -1.7167708397304973 [Eh]
	 Total Energy              =    -419.8872058604654853 [Eh]

	 ================> DF-SCS-MP2 Energies <==================
	-----------------------------------------------------------
	 SCS Same-Spin Scale       =       0.3333333333333333 [-]
	 SCS Opposite-Spin Scale   =       1.2000000000000000 [-]
	 SCS Same-Spin Energy      =      -0.1396297120558189 [Eh]
	 SCS Opposite-Spin Energy  =      -1.5574580442756487 [Eh]
	 SCS Correlation Energy    =      -1.6970877563314677 [Eh]
	 SCS Total Energy          =    -419.8675227770664833 [Eh]
	-----------------------------------------------------------

  Dipole Moment: [D]
     X:     9.7682      Y:     3.7977      Z:     0.7210     Total:    10.5052

*** Psi4 exiting successfully. Buy a developer a beer!
