                               Psi4 1.3.2 release

  ==> Input File <==

--------------------------------------------------------------------------
#psi4
#
memory 32 gb

molecule  {
-1 1
  O        0.5525501    -1.1712025    -0.3763420
  O       -2.2370500    -0.5589400     1.0879600
  O       -2.5032960     0.1554020    -1.0563790
  C        1.9865652     0.6927975     0.1542993
  C        0.6435570     0.0091630    -0.0366810
  C       -0.5777410     0.8814240     0.1686100
  C        3.1729130    -0.2631210    -0.0329300
  C       -1.9010600     0.0931950     0.0560670
  H        2.0429660     1.5133360    -0.5640360
  H        2.0060190     1.1470430     1.1438410
  H       -0.4967450     1.3515110     1.1569670
  H       -0.5352790     1.6874700    -0.5756840
  H        3.1399490    -1.0742180     0.6982180
  H        3.1613950    -0.7098910    -1.0291440
  H        4.1160350     0.2752530     0.0934100
units angstrom
no_reorient  #important for SAPT in psi4, default
symmetry c1  #important for SAPT in psi4, default
}

set PROPERTIES_ORIGIN ["COM"]
properties('MP2/aug-cc-pvtz', properties = ['dipole'])
--------------------------------------------------------------------------

    Molecular point group: c1
  Charge       = -1
  Multiplicity = 1
  Basis Set: AUG-CC-PVTZ
    Blend: AUG-CC-PVTZ
  Basis Set: (AUG-CC-PVTZ AUX)
    Blend: AUG-CC-PVTZ-JKFIT

    Orbital Energies [Eh]
    ---------------------

    Doubly Occupied:

       1A    -20.410565     2A    -20.296062     3A    -20.294253
       4A    -11.200074     5A    -11.145692     6A    -11.130225
       7A    -11.121613     8A    -11.082031     9A     -1.239435
      10A     -1.163460    11A     -1.063588    12A     -0.949100
      13A     -0.867197    14A     -0.767570    15A     -0.612556
      16A     -0.537617    17A     -0.529600    18A     -0.527516
      19A     -0.470818    20A     -0.454352    21A     -0.438574
      22A     -0.409858    23A     -0.407116    24A     -0.405093
      25A     -0.377929    26A     -0.346943    27A     -0.335525
      28A     -0.280155    29A     -0.209892    30A     -0.206641
      31A     -0.192142

  @DF-RHF Final Energy:  -418.19526841734785

   => Energetics <=

    Nuclear Repulsion Energy =            356.6885999072462710
    One-Electron Energy =               -1290.8213537383139737
    Two-Electron Energy =                 515.9374854137198554
    Total Energy =                       -418.1952684173478474
  Basis Set: (AUG-CC-PVTZ AUX)
    Blend: AUG-CC-PVTZ-RI
    Molecular point group: c1

    Geometry (in Angstrom), charge = -1, multiplicity = 1:

       Center              X                  Y                   Z               Mass
    ------------   -----------------  -----------------  -----------------  -----------------
         O            0.670363208305    -1.136405388116    -0.368768601003    15.994914619570
         O           -2.119236891695    -0.524142888116     1.095533398997    15.994914619570
         O           -2.385482891695     0.190199111884    -1.048805601003    15.994914619570
         C            2.104378308305     0.727594611884     0.161872698997    12.000000000000
         C            0.761370108305     0.043960111884    -0.029107601003    12.000000000000
         C           -0.459927891695     0.916221111884     0.176183398997    12.000000000000
         C            3.290726108305    -0.228323888116    -0.025356601003    12.000000000000
         C           -1.783246891695     0.127992111884     0.063640398997    12.000000000000
         H            2.160779108305     1.548133111884    -0.556462601003     1.007825032230
         H            2.123832108305     1.181840111884     1.151414398997     1.007825032230
         H           -0.378931891695     1.386308111884     1.164540398997     1.007825032230
         H           -0.417465891695     1.722267111884    -0.568110601003     1.007825032230
         H            3.257762108305    -1.039420888116     0.705791398997     1.007825032230
         H            3.279208108305    -0.675093888116    -1.021570601003     1.007825032230
         H            4.233848108305     0.310050111884     0.100983398997     1.007825032230

  Basis Set: AUG-CC-PVTZ
    Blend: AUG-CC-PVTZ
  Basis Set: (AUG-CC-PVTZ AUX)
    Blend: AUG-CC-PVTZ-JKFIT
	 Reference Energy          =    -418.1952684173478474 [Eh]
	 Singles Energy            =      -0.0000000000000000 [Eh]
	 Same-Spin Energy          =      -0.4161352486768407 [Eh]
	 Opposite-Spin Energy      =      -1.2925184067973006 [Eh]
	 Correlation Energy        =      -1.7086536554741412 [Eh]
	 Total Energy              =    -419.9039220728220130 [Eh]

	 ================> DF-SCS-MP2 Energies <==================
	-----------------------------------------------------------
	 SCS Same-Spin Scale       =       0.3333333333333333 [-]
	 SCS Opposite-Spin Scale   =       1.2000000000000000 [-]
	 SCS Same-Spin Energy      =      -0.1387117495589469 [Eh]
	 SCS Opposite-Spin Energy  =      -1.5510220881567607 [Eh]
	 SCS Correlation Energy    =      -1.6897338377157076 [Eh]
	 SCS Total Energy          =    -419.8850022550635686 [Eh]
	-----------------------------------------------------------

  Dipole Moment: [D]
     X:    10.0124      Y:     3.4649      Z:     0.6347     Total:    10.6140

*** Psi4 exiting successfully. Buy a developer a beer!
