                               Psi4 1.4a3.dev225

  ==> Input File <==

--------------------------------------------------------------------------
#psi4
#
memory 32 gb

molecule  {
-1 1
  O        1.0745520     1.3418620    -0.8745480
  O       -1.1230780    -1.1034960    -0.8170800
  O       -2.9206860    -0.1812610     0.2330210
  C        1.4738630    -0.3704550     0.7611780
  C        0.6286860     0.6706690     0.0605170
  C       -0.7798250     0.8397660     0.5534010
  C        2.7202340    -0.7612590    -0.0182770
  C       -1.7093498    -0.2432962    -0.0593631
  H        1.7414500     0.0432240     1.7443780
  H        0.8355880    -1.2371210     0.9565080
  H       -0.8294850     0.7587360     1.6458800
  H       -1.1523820     1.8284630     0.2671350
  H        2.4446610    -1.1885100    -0.9860420
  H        3.3521650     0.1095510    -0.2043800
  H        3.3054110    -1.5035610     0.5312540
units angstrom
no_reorient  #important for SAPT in psi4, default
symmetry c1  #important for SAPT in psi4, default
}

set PROPERTIES_ORIGIN ["COM"]
properties('MP2/aug-cc-pvtz', properties = ['dipole'])
--------------------------------------------------------------------------

    Molecular point group: c1
  Charge       = -1
  Multiplicity = 1
  Basis Set: AUG-CC-PVTZ
    Blend: AUG-CC-PVTZ
  Basis Set: (AUG-CC-PVTZ AUX)
    Blend: AUG-CC-PVTZ-JKFIT

    Orbital Energies [Eh]
    ---------------------

    Doubly Occupied:

       1A    -20.400335     2A    -20.315121     3A    -20.309199
       4A    -11.190281     5A    -11.164296     6A    -11.107515
       7A    -11.101820     8A    -11.081677     9A     -1.230476
      10A     -1.182506    11A     -1.080239    12A     -0.932253
      13A     -0.864305    14A     -0.752748    15A     -0.602810
      16A     -0.547233    17A     -0.513336    18A     -0.503885
      19A     -0.480688    20A     -0.449805    21A     -0.441549
      22A     -0.406960    23A     -0.398343    24A     -0.390332
      25A     -0.378130    26A     -0.348416    27A     -0.336355
      28A     -0.276313    29A     -0.226637    30A     -0.218945
      31A     -0.210291

  @DF-RHF Final Energy:  -418.20818700501383

   => Energetics <=

    Nuclear Repulsion Energy =            362.5001416714691231
    One-Electron Energy =               -1302.5310588540228309
    Two-Electron Energy =                 521.8227301775398246
    Total Energy =                       -418.2081870050138832
  Basis Set: (AUG-CC-PVTZ AUX)
    Blend: AUG-CC-PVTZ-RI
    Molecular point group: c1

    Geometry (in Angstrom), charge = -1, multiplicity = 1:

       Center              X                  Y                   Z               Mass
    ------------   -----------------  -----------------  -----------------  -----------------
         O            1.159007355643     1.330214145934    -0.841731931701    15.994914619570
         O           -1.038622644357    -1.115143854066    -0.784263931701    15.994914619570
         O           -2.836230644357    -0.192908854066     0.265837068299    15.994914619570
         C            1.558318355643    -0.382102854066     0.793994068299    12.000000000000
         C            0.713141355643     0.659021145934     0.093333068299    12.000000000000
         C           -0.695369644357     0.828118145934     0.586217068299    12.000000000000
         C            2.804689355643    -0.772906854066     0.014539068299    12.000000000000
         C           -1.624894444357    -0.254944054066    -0.026547031701    12.000000000000
         H            1.825905355643     0.031576145934     1.777194068299     1.007825032230
         H            0.920043355643    -1.248768854066     0.989324068299     1.007825032230
         H           -0.745029644357     0.747088145934     1.678696068299     1.007825032230
         H           -1.067926644357     1.816815145934     0.299951068299     1.007825032230
         H            2.529116355643    -1.200157854066    -0.953225931701     1.007825032230
         H            3.436620355643     0.097903145934    -0.171563931701     1.007825032230
         H            3.389866355643    -1.515208854066     0.564070068299     1.007825032230

  Basis Set: AUG-CC-PVTZ
    Blend: AUG-CC-PVTZ
  Basis Set: (AUG-CC-PVTZ AUX)
    Blend: AUG-CC-PVTZ-JKFIT
	 Reference Energy          =    -418.2081870050138264 [Eh]
	 Singles Energy            =      -0.0000000000000000 [Eh]
	 Same-Spin Energy          =      -0.4168373443552336 [Eh]
	 Opposite-Spin Energy      =      -1.2925719440411356 [Eh]
	 Correlation Energy        =      -1.7094092883963692 [Eh]
	 Total Energy              =    -419.9175962934102131 [Eh]

	 ================> DF-SCS-MP2 Energies <==================
	-----------------------------------------------------------
	 SCS Same-Spin Scale       =       0.3333333333333333 [-]
	 SCS Opposite-Spin Scale   =       1.2000000000000000 [-]
	 SCS Same-Spin Energy      =      -0.1389457814517445 [Eh]
	 SCS Opposite-Spin Energy  =      -1.5510863328493627 [Eh]
	 SCS Correlation Energy    =      -1.6900321143011072 [Eh]
	 SCS Total Energy          =    -419.8982191193149447 [Eh]
	-----------------------------------------------------------

  Dipole Moment: [D]
     X:     6.6180      Y:     1.3638      Z:     3.2898     Total:     7.5153

*** Psi4 exiting successfully. Buy a developer a beer!
