                               Psi4 1.3.2 release

  ==> Input File <==

--------------------------------------------------------------------------
#psi4
#
memory 32 gb

molecule  {
-1 1
  O        0.5632720    -1.1719080    -0.3765930
  O       -2.2370500    -0.5589400     1.0879600
  O       -2.5032960     0.1554020    -1.0563790
  C        1.9927080     0.6815170     0.1510220
  C        0.6435570     0.0091630    -0.0366810
  C       -0.5777410     0.8814240     0.1686100
  C        3.1729130    -0.2631210    -0.0329300
  C       -1.9048850     0.1011824     0.0459078
  H        2.0429660     1.5133360    -0.5640360
  H        2.0060190     1.1470430     1.1438410
  H       -0.4967450     1.3515110     1.1569670
  H       -0.5439324     1.6849018    -0.5788973
  H        3.1399490    -1.0742180     0.6982180
  H        3.1613950    -0.7098910    -1.0291440
  H        4.1160350     0.2752530     0.0934100
units angstrom
no_reorient  #important for SAPT in psi4, default
symmetry c1  #important for SAPT in psi4, default
}

set PROPERTIES_ORIGIN ["COM"]
properties('MP2/aug-cc-pvtz', properties = ['dipole'])
--------------------------------------------------------------------------

    Molecular point group: c1
  Charge       = -1
  Multiplicity = 1
  Basis Set: AUG-CC-PVTZ
    Blend: AUG-CC-PVTZ
  Basis Set: (AUG-CC-PVTZ AUX)
    Blend: AUG-CC-PVTZ-JKFIT

    Orbital Energies [Eh]
    ---------------------

    Doubly Occupied:

       1A    -20.410131     2A    -20.299499     3A    -20.291648
       4A    -11.200106     5A    -11.146059     6A    -11.130263
       7A    -11.120843     8A    -11.082795     9A     -1.239359
      10A     -1.164708    11A     -1.063170    12A     -0.949779
      13A     -0.867902    14A     -0.766941    15A     -0.611895
      16A     -0.537989    17A     -0.529844    18A     -0.526259
      19A     -0.471162    20A     -0.454903    21A     -0.439503
      22A     -0.410766    23A     -0.407743    24A     -0.403409
      25A     -0.377098    26A     -0.346546    27A     -0.336423
      28A     -0.280206    29A     -0.211172    30A     -0.205876
      31A     -0.192253

  @DF-RHF Final Energy:  -418.19524615784792

   => Energetics <=

    Nuclear Repulsion Energy =            356.6774976969092563
    One-Electron Energy =               -1290.7929834838876104
    Two-Electron Energy =                 515.9202396291303785
    Total Energy =                       -418.1952461578479188
  Basis Set: (AUG-CC-PVTZ AUX)
    Blend: AUG-CC-PVTZ-RI
    Molecular point group: c1

    Geometry (in Angstrom), charge = -1, multiplicity = 1:

       Center              X                  Y                   Z               Mass
    ------------   -----------------  -----------------  -----------------  -----------------
         O            0.679428387523    -1.136646787528    -0.367554963728    15.994914619570
         O           -2.120893612477    -0.523678787528     1.096998036272    15.994914619570
         O           -2.387139612477     0.190663212472    -1.047340963728    15.994914619570
         C            2.108864387523     0.716778212472     0.160060036272    12.000000000000
         C            0.759713387523     0.044424212472    -0.027642963728    12.000000000000
         C           -0.461584612477     0.916685212472     0.177648036272    12.000000000000
         C            3.289069387523    -0.227859787528    -0.023891963728    12.000000000000
         C           -1.788728612477     0.136443612472     0.054945836272    12.000000000000
         H            2.159122387523     1.548597212472    -0.554997963728     1.007825032230
         H            2.122175387523     1.182304212472     1.152879036272     1.007825032230
         H           -0.380588612477     1.386772212472     1.166005036272     1.007825032230
         H           -0.427776012477     1.720163012472    -0.569859263728     1.007825032230
         H            3.256105387523    -1.038956787528     0.707256036272     1.007825032230
         H            3.277551387523    -0.674629787528    -1.020105963728     1.007825032230
         H            4.232191387523     0.310514212472     0.102448036272     1.007825032230

  Basis Set: AUG-CC-PVTZ
    Blend: AUG-CC-PVTZ
  Basis Set: (AUG-CC-PVTZ AUX)
    Blend: AUG-CC-PVTZ-JKFIT
	 Reference Energy          =    -418.1952461578479188 [Eh]
	 Singles Energy            =      -0.0000000000000000 [Eh]
	 Same-Spin Energy          =      -0.4161978140290178 [Eh]
	 Opposite-Spin Energy      =      -1.2925683924666485 [Eh]
	 Correlation Energy        =      -1.7087662064956661 [Eh]
	 Total Energy              =    -419.9040123643436004 [Eh]

	 ================> DF-SCS-MP2 Energies <==================
	-----------------------------------------------------------
	 SCS Same-Spin Scale       =       0.3333333333333333 [-]
	 SCS Opposite-Spin Scale   =       1.2000000000000000 [-]
	 SCS Same-Spin Energy      =      -0.1387326046763392 [Eh]
	 SCS Opposite-Spin Energy  =      -1.5510820709599782 [Eh]
	 SCS Correlation Energy    =      -1.6898146756363175 [Eh]
	 SCS Total Energy          =    -419.8850608334842605 [Eh]
	-----------------------------------------------------------

  Dipole Moment: [D]
     X:     9.9729      Y:     3.4997      Z:     0.5054     Total:    10.5812

*** Psi4 exiting successfully. Buy a developer a beer!
