                               Psi4 1.3.2 release

  ==> Input File <==

--------------------------------------------------------------------------
#psi4
#
memory 32 gb

molecule  {
-1 1
  O        0.5632720    -1.1719080    -0.3765930
  O       -2.2370500    -0.5589400     1.0879600
  O       -2.5032960     0.1554020    -1.0563790
  C        1.9675330     0.7268280     0.1621784
  C        0.6435570     0.0091630    -0.0366810
  C       -0.5457308     0.9221173     0.1793319
  C        3.1729130    -0.2631210    -0.0329300
  C       -1.9010600     0.0931950     0.0560670
  H        2.0429660     1.5133360    -0.5640360
  H        2.0060190     1.1470430     1.1438410
  H       -0.4967450     1.3515110     1.1569670
  H       -0.5352790     1.6874700    -0.5756840
  H        3.1399490    -1.0742180     0.6982180
  H        3.1613950    -0.7098910    -1.0291440
  H        4.1160350     0.2752530     0.0934100
units angstrom
no_reorient  #important for SAPT in psi4, default
symmetry c1  #important for SAPT in psi4, default
}

set PROPERTIES_ORIGIN ["COM"]
properties('MP2/aug-cc-pvtz', properties = ['dipole'])
--------------------------------------------------------------------------

    Molecular point group: c1
  Charge       = -1
  Multiplicity = 1
  Basis Set: AUG-CC-PVTZ
    Blend: AUG-CC-PVTZ
  Basis Set: (AUG-CC-PVTZ AUX)
    Blend: AUG-CC-PVTZ-JKFIT

    Orbital Energies [Eh]
    ---------------------

    Doubly Occupied:

       1A    -20.413161     2A    -20.297224     3A    -20.295537
       4A    -11.200585     5A    -11.148937     6A    -11.126448
       7A    -11.121080     8A    -11.077815     9A     -1.239850
      10A     -1.162782    11A     -1.063934    12A     -0.945730
      13A     -0.865396    14A     -0.766328    15A     -0.612476
      16A     -0.532766    17A     -0.530995    18A     -0.526032
      19A     -0.473154    20A     -0.460228    21A     -0.434560
      22A     -0.410058    23A     -0.409313    24A     -0.394907
      25A     -0.382398    26A     -0.352021    27A     -0.337236
      28A     -0.281211    29A     -0.211069    30A     -0.200882
      31A     -0.193213

  @DF-RHF Final Energy:  -418.19039898150612

   => Energetics <=

    Nuclear Repulsion Energy =            355.8746803994936840
    One-Electron Energy =               -1289.1955033546255436
    Two-Electron Energy =                 515.1304239736257387
    Total Energy =                       -418.1903989815061777
  Basis Set: (AUG-CC-PVTZ AUX)
    Blend: AUG-CC-PVTZ-RI
    Molecular point group: c1

    Geometry (in Angstrom), charge = -1, multiplicity = 1:

       Center              X                  Y                   Z               Mass
    ------------   -----------------  -----------------  -----------------  -----------------
         O            0.678240591241    -1.144807384023    -0.370925009493    15.994914619570
         O           -2.122081408759    -0.531839384023     1.093627990507    15.994914619570
         O           -2.388327408759     0.182502615977    -1.050711009493    15.994914619570
         C            2.082501591241     0.753928615977     0.167846390507    12.000000000000
         C            0.758525591241     0.036263615977    -0.031013009493    12.000000000000
         C           -0.430762208759     0.949217915977     0.184999890507    12.000000000000
         C            3.287881591241    -0.236020384023    -0.027262009493    12.000000000000
         C           -1.786091408759     0.120295615977     0.061734990507    12.000000000000
         H            2.157934591241     1.540436615977    -0.558368009493     1.007825032230
         H            2.120987591241     1.174143615977     1.149508990507     1.007825032230
         H           -0.381776408759     1.378611615977     1.162634990507     1.007825032230
         H           -0.420310408759     1.714570615977    -0.570016009493     1.007825032230
         H            3.254917591241    -1.047117384023     0.703885990507     1.007825032230
         H            3.276363591241    -0.682790384023    -1.023476009493     1.007825032230
         H            4.231003591241     0.302353615977     0.099077990507     1.007825032230

  Basis Set: AUG-CC-PVTZ
    Blend: AUG-CC-PVTZ
  Basis Set: (AUG-CC-PVTZ AUX)
    Blend: AUG-CC-PVTZ-JKFIT
	 Reference Energy          =    -418.1903989815061209 [Eh]
	 Singles Energy            =      -0.0000000000000000 [Eh]
	 Same-Spin Energy          =      -0.4160712208555496 [Eh]
	 Opposite-Spin Energy      =      -1.2926562492772762 [Eh]
	 Correlation Energy        =      -1.7087274701328257 [Eh]
	 Total Energy              =    -419.8991264516389492 [Eh]

	 ================> DF-SCS-MP2 Energies <==================
	-----------------------------------------------------------
	 SCS Same-Spin Scale       =       0.3333333333333333 [-]
	 SCS Opposite-Spin Scale   =       1.2000000000000000 [-]
	 SCS Same-Spin Energy      =      -0.1386904069518499 [Eh]
	 SCS Opposite-Spin Energy  =      -1.5511874991327315 [Eh]
	 SCS Correlation Energy    =      -1.6898779060845812 [Eh]
	 SCS Total Energy          =    -419.8802768875906963 [Eh]
	-----------------------------------------------------------

  Dipole Moment: [D]
     X:     9.8719      Y:     3.4755      Z:     0.6416     Total:    10.4855

*** Psi4 exiting successfully. Buy a developer a beer!
