                               Psi4 1.3.2 release

  ==> Input File <==

--------------------------------------------------------------------------
#psi4
#
memory 32 gb

molecule  {
-1 1
  O        0.5632720    -1.1719080    -0.3765930
  O       -2.2370500    -0.5589400     1.0879600
  O       -2.5032960     0.1554020    -1.0563790
  C        1.9927080     0.6815170     0.1510220
  C        0.6435570     0.0091630    -0.0366810
  C       -0.5777410     0.8814240     0.1686100
  C        3.1729130    -0.2631210    -0.0329300
  C       -1.8153745     0.1442332     0.0633542
  H        2.0429660     1.5133360    -0.5640360
  H        2.0060190     1.1470430     1.1438410
  H       -0.4967450     1.3515110     1.1569670
  H       -0.5352790     1.6874700    -0.5756840
  H        3.1399490    -1.0742180     0.6982180
  H        3.1613950    -0.7098910    -1.0291440
  H        4.1160350     0.2752530     0.0934100
units angstrom
no_reorient  #important for SAPT in psi4, default
symmetry c1  #important for SAPT in psi4, default
}

set PROPERTIES_ORIGIN ["COM"]
properties('MP2/aug-cc-pvtz', properties = ['dipole'])
--------------------------------------------------------------------------

    Molecular point group: c1
  Charge       = -1
  Multiplicity = 1
  Basis Set: AUG-CC-PVTZ
    Blend: AUG-CC-PVTZ
  Basis Set: (AUG-CC-PVTZ AUX)
    Blend: AUG-CC-PVTZ-JKFIT

    Orbital Energies [Eh]
    ---------------------

    Doubly Occupied:

       1A    -20.416524     2A    -20.293740     3A    -20.291753
       4A    -11.207629     5A    -11.148301     6A    -11.135550
       7A    -11.124523     8A    -11.091792     9A     -1.245760
      10A     -1.138367    11A     -1.031158    12A     -0.955497
      13A     -0.888180    14A     -0.778232    15A     -0.624893
      16A     -0.553642    17A     -0.538384    18A     -0.531674
      19A     -0.475641    20A     -0.466384    21A     -0.439245
      22A     -0.412621    23A     -0.409430    24A     -0.405905
      25A     -0.364533    26A     -0.343682    27A     -0.316115
      28A     -0.284371    29A     -0.219296    30A     -0.194496
      31A     -0.178708

  @DF-RHF Final Energy:  -418.17320394602132

   => Energetics <=

    Nuclear Repulsion Energy =            356.9051390870636169
    One-Electron Energy =               -1291.1446379727958629
    Two-Electron Energy =                 516.0662949397109287
    Total Energy =                       -418.1732039460213173
  Basis Set: (AUG-CC-PVTZ AUX)
    Blend: AUG-CC-PVTZ-RI
    Molecular point group: c1

    Geometry (in Angstrom), charge = -1, multiplicity = 1:

       Center              X                  Y                   Z               Mass
    ------------   -----------------  -----------------  -----------------  -----------------
         O            0.670015560334    -1.141160000903    -0.369402982964    15.994914619570
         O           -2.130306439666    -0.528192000903     1.095150017036    15.994914619570
         O           -2.396552439666     0.186149999097    -1.049188982964    15.994914619570
         C            2.099451560334     0.712264999097     0.158212017036    12.000000000000
         C            0.750300560334     0.039910999097    -0.029490982964    12.000000000000
         C           -0.470997439666     0.912171999097     0.175800017036    12.000000000000
         C            3.279656560334    -0.232373000903    -0.025739982964    12.000000000000
         C           -1.708630939666     0.174981199097     0.070544217036    12.000000000000
         H            2.149709560334     1.544083999097    -0.556845982964     1.007825032230
         H            2.112762560334     1.177790999097     1.151031017036     1.007825032230
         H           -0.390001439666     1.382258999097     1.164157017036     1.007825032230
         H           -0.428535439666     1.718217999097    -0.568493982964     1.007825032230
         H            3.246692560334    -1.043470000903     0.705408017036     1.007825032230
         H            3.268138560334    -0.679143000903    -1.021953982964     1.007825032230
         H            4.222778560334     0.306000999097     0.100600017036     1.007825032230

  Basis Set: AUG-CC-PVTZ
    Blend: AUG-CC-PVTZ
  Basis Set: (AUG-CC-PVTZ AUX)
    Blend: AUG-CC-PVTZ-JKFIT
	 Reference Energy          =    -418.1732039460213173 [Eh]
	 Singles Energy            =      -0.0000000000000000 [Eh]
	 Same-Spin Energy          =      -0.4187446099179870 [Eh]
	 Opposite-Spin Energy      =      -1.2982682635103164 [Eh]
	 Correlation Energy        =      -1.7170128734283034 [Eh]
	 Total Energy              =    -419.8902168194496198 [Eh]

	 ================> DF-SCS-MP2 Energies <==================
	-----------------------------------------------------------
	 SCS Same-Spin Scale       =       0.3333333333333333 [-]
	 SCS Opposite-Spin Scale   =       1.2000000000000000 [-]
	 SCS Same-Spin Energy      =      -0.1395815366393290 [Eh]
	 SCS Opposite-Spin Energy  =      -1.5579219162123796 [Eh]
	 SCS Correlation Energy    =      -1.6975034528517086 [Eh]
	 SCS Total Energy          =    -419.8707073988730372 [Eh]
	-----------------------------------------------------------

  Dipole Moment: [D]
     X:    10.5914      Y:     3.6808      Z:     0.6610     Total:    11.2323

*** Psi4 exiting successfully. Buy a developer a beer!
