                               Psi4 1.4a3.dev225

  ==> Input File <==

--------------------------------------------------------------------------
#psi4
#
memory 32 gb

molecule  {
-1 1
  O        1.0745520     1.3418620    -0.8745480
  O       -1.1230780    -1.1034960    -0.8170800
  O       -2.9206860    -0.1812610     0.2330210
  C        1.4738630    -0.3704550     0.7611780
  C        0.6286860     0.6706690     0.0605170
  C       -0.7798250     0.8397660     0.5534010
  C        2.7202340    -0.7612590    -0.0182770
  C       -1.7002430    -0.2566580    -0.0711330
  H        1.7414500     0.0432240     1.7443780
  H        0.8355880    -1.2371210     0.9565080
  H       -0.8303907     0.7572582     1.6658048
  H       -1.1523820     1.8284630     0.2671350
  H        2.4446610    -1.1885100    -0.9860420
  H        3.3521650     0.1095510    -0.2043800
  H        3.3054110    -1.5035610     0.5312540
units angstrom
no_reorient  #important for SAPT in psi4, default
symmetry c1  #important for SAPT in psi4, default
}

set PROPERTIES_ORIGIN ["COM"]
properties('MP2/aug-cc-pvtz', properties = ['dipole'])
--------------------------------------------------------------------------

    Molecular point group: c1
  Charge       = -1
  Multiplicity = 1
  Basis Set: AUG-CC-PVTZ
    Blend: AUG-CC-PVTZ
  Basis Set: (AUG-CC-PVTZ AUX)
    Blend: AUG-CC-PVTZ-JKFIT

    Orbital Energies [Eh]
    ---------------------

    Doubly Occupied:

       1A    -20.400510     2A    -20.313995     3A    -20.311420
       4A    -11.190054     5A    -11.164636     6A    -11.107874
       7A    -11.102229     8A    -11.083164     9A     -1.230715
      10A     -1.183209    11A     -1.084464    12A     -0.932428
      13A     -0.861870    14A     -0.752138    15A     -0.601493
      16A     -0.546589    17A     -0.512348    18A     -0.504018
      19A     -0.480842    20A     -0.448697    21A     -0.440769
      22A     -0.407959    23A     -0.398485    24A     -0.390484
      25A     -0.378700    26A     -0.348640    27A     -0.336977
      28A     -0.276592    29A     -0.229555    30A     -0.216765
      31A     -0.211709

  @DF-RHF Final Energy:  -418.20890233602120

   => Energetics <=

    Nuclear Repulsion Energy =            362.4770782417891155
    One-Electron Energy =               -1302.4733097490136515
    Two-Electron Energy =                 521.7873291712033961
    Total Energy =                       -418.2089023360211968
  Basis Set: (AUG-CC-PVTZ AUX)
    Blend: AUG-CC-PVTZ-RI
    Molecular point group: c1

    Geometry (in Angstrom), charge = -1, multiplicity = 1:

       Center              X                  Y                   Z               Mass
    ------------   -----------------  -----------------  -----------------  -----------------
         O            1.158065341857     1.331620888287    -0.840678745033    15.994914619570
         O           -1.039564658143    -1.113737111713    -0.783210745033    15.994914619570
         O           -2.837172658143    -0.191502111713     0.266890254967    15.994914619570
         C            1.557376341857    -0.380696111713     0.795047254967    12.000000000000
         C            0.712199341857     0.660427888287     0.094386254967    12.000000000000
         C           -0.696311658143     0.829524888287     0.587270254967    12.000000000000
         C            2.803747341857    -0.771500111713     0.015592254967    12.000000000000
         C           -1.616729658143    -0.266899111713    -0.037263745033    12.000000000000
         H            1.824963341857     0.032982888287     1.778247254967     1.007825032230
         H            0.919101341857    -1.247362111713     0.990377254967     1.007825032230
         H           -0.746877358143     0.747017088287     1.699674054967     1.007825032230
         H           -1.068868658143     1.818221888287     0.301004254967     1.007825032230
         H            2.528174341857    -1.198751111713    -0.952172745033     1.007825032230
         H            3.435678341857     0.099309888287    -0.170510745033     1.007825032230
         H            3.388924341857    -1.513802111713     0.565123254967     1.007825032230

  Basis Set: AUG-CC-PVTZ
    Blend: AUG-CC-PVTZ
  Basis Set: (AUG-CC-PVTZ AUX)
    Blend: AUG-CC-PVTZ-JKFIT
	 Reference Energy          =    -418.2089023360211968 [Eh]
	 Singles Energy            =      -0.0000000000000000 [Eh]
	 Same-Spin Energy          =      -0.4167236679513310 [Eh]
	 Opposite-Spin Energy      =      -1.2923708469875486 [Eh]
	 Correlation Energy        =      -1.7090945149388794 [Eh]
	 Total Energy              =    -419.9179968509600940 [Eh]

	 ================> DF-SCS-MP2 Energies <==================
	-----------------------------------------------------------
	 SCS Same-Spin Scale       =       0.3333333333333333 [-]
	 SCS Opposite-Spin Scale   =       1.2000000000000000 [-]
	 SCS Same-Spin Energy      =      -0.1389078893171103 [Eh]
	 SCS Opposite-Spin Energy  =      -1.5508450163850582 [Eh]
	 SCS Correlation Energy    =      -1.6897529057021685 [Eh]
	 SCS Total Energy          =    -419.8986552417233611 [Eh]
	-----------------------------------------------------------

  Dipole Moment: [D]
     X:     6.7353      Y:     1.2556      Z:     3.1795     Total:     7.5531

*** Psi4 exiting successfully. Buy a developer a beer!
