                               Psi4 1.4a3.dev225

  ==> Input File <==

--------------------------------------------------------------------------
#psi4
#
memory 32 gb

molecule  {
-1 1
  O        1.0745520     1.3418620    -0.8745480
  O       -1.1230780    -1.1034960    -0.8170800
  O       -2.9206860    -0.1812610     0.2330210
  C        1.4738630    -0.3704550     0.7611780
  C        0.6286860     0.6706690     0.0605170
  C       -0.7798250     0.8397660     0.5534010
  C        2.7202340    -0.7612590    -0.0182770
  C       -1.7486721    -0.2536661    -0.0590637
  H        1.7414500     0.0432240     1.7443780
  H        0.8355880    -1.2371210     0.9565080
  H       -0.8294850     0.7587360     1.6458800
  H       -1.1523820     1.8284630     0.2671350
  H        2.4446610    -1.1885100    -0.9860420
  H        3.3521650     0.1095510    -0.2043800
  H        3.3054110    -1.5035610     0.5312540
units angstrom
no_reorient  #important for SAPT in psi4, default
symmetry c1  #important for SAPT in psi4, default
}

set PROPERTIES_ORIGIN ["COM"]
properties('MP2/aug-cc-pvtz', properties = ['dipole'])
--------------------------------------------------------------------------

    Molecular point group: c1
  Charge       = -1
  Multiplicity = 1
  Basis Set: AUG-CC-PVTZ
    Blend: AUG-CC-PVTZ
  Basis Set: (AUG-CC-PVTZ AUX)
    Blend: AUG-CC-PVTZ-JKFIT

    Orbital Energies [Eh]
    ---------------------

    Doubly Occupied:

       1A    -20.397064     2A    -20.323922     3A    -20.304628
       4A    -11.187349     5A    -11.164255     6A    -11.105093
       7A    -11.100003     8A    -11.077712     9A     -1.227397
      10A     -1.200054    11A     -1.083889    12A     -0.929393
      13A     -0.857493    14A     -0.749397    15A     -0.599233
      16A     -0.543654    17A     -0.509698    18A     -0.502199
      19A     -0.477815    20A     -0.452174    21A     -0.440594
      22A     -0.412362    23A     -0.398382    24A     -0.389520
      25A     -0.376538    26A     -0.349219    27A     -0.340775
      28A     -0.273892    29A     -0.229752    30A     -0.214136
      31A     -0.212758

  @DF-RHF Final Energy:  -418.20767788656713

   => Energetics <=

    Nuclear Repulsion Energy =            362.3460630995716087
    One-Electron Energy =               -1302.2467849613447015
    Two-Electron Energy =                 521.6930439752059101
    Total Energy =                       -418.2076778865671258
  Basis Set: (AUG-CC-PVTZ AUX)
    Blend: AUG-CC-PVTZ-RI
    Molecular point group: c1

    Geometry (in Angstrom), charge = -1, multiplicity = 1:

       Center              X                  Y                   Z               Mass
    ------------   -----------------  -----------------  -----------------  -----------------
         O            1.163109142609     1.331295850734    -0.841763162708    15.994914619570
         O           -1.034520857391    -1.114062149266    -0.784295162708    15.994914619570
         O           -2.832128857391    -0.191827149266     0.265805837292    15.994914619570
         C            1.562420142609    -0.381021149266     0.793962837292    12.000000000000
         C            0.717243142609     0.660102850734     0.093301837292    12.000000000000
         C           -0.691267857391     0.829199850734     0.586185837292    12.000000000000
         C            2.808791142609    -0.771825149266     0.014507837292    12.000000000000
         C           -1.660114957391    -0.264232249266    -0.026278862708    12.000000000000
         H            1.830007142609     0.032657850734     1.777162837292     1.007825032230
         H            0.924145142609    -1.247687149266     0.989292837292     1.007825032230
         H           -0.740927857391     0.748169850734     1.678664837292     1.007825032230
         H           -1.063824857391     1.817896850734     0.299919837292     1.007825032230
         H            2.533218142609    -1.199076149266    -0.953257162708     1.007825032230
         H            3.440722142609     0.098984850734    -0.171595162708     1.007825032230
         H            3.393968142609    -1.514127149266     0.564038837292     1.007825032230

  Basis Set: AUG-CC-PVTZ
    Blend: AUG-CC-PVTZ
  Basis Set: (AUG-CC-PVTZ AUX)
    Blend: AUG-CC-PVTZ-JKFIT
	 Reference Energy          =    -418.2076778865671258 [Eh]
	 Singles Energy            =      -0.0000000000000000 [Eh]
	 Same-Spin Energy          =      -0.4164110115809926 [Eh]
	 Opposite-Spin Energy      =      -1.2914895535242925 [Eh]
	 Correlation Energy        =      -1.7079005651052852 [Eh]
	 Total Energy              =    -419.9155784516723884 [Eh]

	 ================> DF-SCS-MP2 Energies <==================
	-----------------------------------------------------------
	 SCS Same-Spin Scale       =       0.3333333333333333 [-]
	 SCS Opposite-Spin Scale   =       1.2000000000000000 [-]
	 SCS Same-Spin Energy      =      -0.1388036705269975 [Eh]
	 SCS Opposite-Spin Energy  =      -1.5497874642291509 [Eh]
	 SCS Correlation Energy    =      -1.6885911347561484 [Eh]
	 SCS Total Energy          =    -419.8962690213232918 [Eh]
	-----------------------------------------------------------

  Dipole Moment: [D]
     X:     6.1662      Y:     1.3197      Z:     3.3421     Total:     7.1367

*** Psi4 exiting successfully. Buy a developer a beer!
