                               Psi4 1.3.2 release

  ==> Input File <==

--------------------------------------------------------------------------
#psi4
#
memory 32 gb

molecule  {
-1 1
  O        0.5632720    -1.1719080    -0.3765930
  O       -2.2370500    -0.5589400     1.0879600
  O       -2.5032960     0.1554020    -1.0563790
  C        1.9927080     0.6815170     0.1510220
  C        0.6343891     0.0023380    -0.0605203
  C       -0.5777410     0.8814240     0.1686100
  C        3.1729130    -0.2631210    -0.0329300
  C       -1.9010600     0.0931950     0.0560670
  H        2.0429660     1.5133360    -0.5640360
  H        2.0060190     1.1470430     1.1438410
  H       -0.5134550     1.3603693     1.1539376
  H       -0.5352790     1.6874700    -0.5756840
  H        3.1399490    -1.0742180     0.6982180
  H        3.1613950    -0.7098910    -1.0291440
  H        4.1160350     0.2752530     0.0934100
units angstrom
no_reorient  #important for SAPT in psi4, default
symmetry c1  #important for SAPT in psi4, default
}

set PROPERTIES_ORIGIN ["COM"]
properties('MP2/aug-cc-pvtz', properties = ['dipole'])
--------------------------------------------------------------------------

    Molecular point group: c1
  Charge       = -1
  Multiplicity = 1
  Basis Set: AUG-CC-PVTZ
    Blend: AUG-CC-PVTZ
  Basis Set: (AUG-CC-PVTZ AUX)
    Blend: AUG-CC-PVTZ-JKFIT

    Orbital Energies [Eh]
    ---------------------

    Doubly Occupied:

       1A    -20.411553     2A    -20.296356     3A    -20.294838
       4A    -11.199384     5A    -11.145864     6A    -11.129126
       7A    -11.120149     8A    -11.082242     9A     -1.248766
      10A     -1.164028    11A     -1.064043    12A     -0.947122
      13A     -0.867438    14A     -0.764488    15A     -0.611417
      16A     -0.538103    17A     -0.531793    18A     -0.524771
      19A     -0.473816    20A     -0.454471    21A     -0.439957
      22A     -0.410098    23A     -0.408491    24A     -0.402786
      25A     -0.377536    26A     -0.350846    27A     -0.336852
      28A     -0.279067    29A     -0.210222    30A     -0.206506
      31A     -0.192644

  @DF-RHF Final Energy:  -418.19686372331466

   => Energetics <=

    Nuclear Repulsion Energy =            356.8153695573590767
    One-Electron Energy =               -1291.0549128958125493
    Two-Electron Energy =                 516.0426796151388089
    Total Energy =                       -418.1968637233146637
  Basis Set: (AUG-CC-PVTZ AUX)
    Blend: AUG-CC-PVTZ-RI
    Molecular point group: c1

    Geometry (in Angstrom), charge = -1, multiplicity = 1:

       Center              X                  Y                   Z               Mass
    ------------   -----------------  -----------------  -----------------  -----------------
         O            0.680056297339    -1.135201780728    -0.366129576502    15.994914619570
         O           -2.120265702661    -0.522233780728     1.098423423498    15.994914619570
         O           -2.386511702661     0.192108219272    -1.045915576502    15.994914619570
         C            2.109492297339     0.718223219272     0.161485423498    12.000000000000
         C            0.751173397339     0.039044219272    -0.050056876502    12.000000000000
         C           -0.460956702661     0.918130219272     0.179073423498    12.000000000000
         C            3.289697297339    -0.226414780728    -0.022466576502    12.000000000000
         C           -1.784275702661     0.129901219272     0.066530423498    12.000000000000
         H            2.159750297339     1.550042219272    -0.553572576502     1.007825032230
         H            2.122803297339     1.183749219272     1.154304423498     1.007825032230
         H           -0.396670702661     1.397075519272     1.164401023498     1.007825032230
         H           -0.418494702661     1.724176219272    -0.565220576502     1.007825032230
         H            3.256733297339    -1.037511780728     0.708681423498     1.007825032230
         H            3.278179297339    -0.673184780728    -1.018680576502     1.007825032230
         H            4.232819297339     0.311959219272     0.103873423498     1.007825032230

  Basis Set: AUG-CC-PVTZ
    Blend: AUG-CC-PVTZ
  Basis Set: (AUG-CC-PVTZ AUX)
    Blend: AUG-CC-PVTZ-JKFIT
	 Reference Energy          =    -418.1968637233146637 [Eh]
	 Singles Energy            =      -0.0000000000000000 [Eh]
	 Same-Spin Energy          =      -0.4158116213976797 [Eh]
	 Opposite-Spin Energy      =      -1.2917422801254528 [Eh]
	 Correlation Energy        =      -1.7075539015231325 [Eh]
	 Total Energy              =    -419.9044176248377767 [Eh]

	 ================> DF-SCS-MP2 Energies <==================
	-----------------------------------------------------------
	 SCS Same-Spin Scale       =       0.3333333333333333 [-]
	 SCS Opposite-Spin Scale   =       1.2000000000000000 [-]
	 SCS Same-Spin Energy      =      -0.1386038737992266 [Eh]
	 SCS Opposite-Spin Energy  =      -1.5500907361505434 [Eh]
	 SCS Correlation Energy    =      -1.6886946099497699 [Eh]
	 SCS Total Energy          =    -419.8855583332644414 [Eh]
	-----------------------------------------------------------

  Dipole Moment: [D]
     X:     9.9345      Y:     3.4122      Z:     0.6040     Total:    10.5215

*** Psi4 exiting successfully. Buy a developer a beer!
