                               Psi4 1.4a3.dev225

  ==> Input File <==

--------------------------------------------------------------------------
#psi4
#
memory 32 gb

molecule  {
-1 1
  O        1.0745520     1.3418620    -0.8745480
  O       -1.1230780    -1.1034960    -0.8170800
  O       -2.9206860    -0.1812610     0.2330210
  C        1.4738630    -0.3704550     0.7611780
  C        0.6286860     0.6706690     0.0605170
  C       -0.7798250     0.8397660     0.5534010
  C        2.7202340    -0.7612590    -0.0182770
  C       -1.7002430    -0.2566580    -0.0711330
  H        1.7414500     0.0432240     1.7443780
  H        0.8355880    -1.2371210     0.9565080
  H       -0.8317493     0.7550414     1.6956919
  H       -1.1523820     1.8284630     0.2671350
  H        2.4446610    -1.1885100    -0.9860420
  H        3.3521650     0.1095510    -0.2043800
  H        3.3054110    -1.5035610     0.5312540
units angstrom
no_reorient  #important for SAPT in psi4, default
symmetry c1  #important for SAPT in psi4, default
}

set PROPERTIES_ORIGIN ["COM"]
properties('MP2/aug-cc-pvtz', properties = ['dipole'])
--------------------------------------------------------------------------

    Molecular point group: c1
  Charge       = -1
  Multiplicity = 1
  Basis Set: AUG-CC-PVTZ
    Blend: AUG-CC-PVTZ
  Basis Set: (AUG-CC-PVTZ AUX)
    Blend: AUG-CC-PVTZ-JKFIT

    Orbital Energies [Eh]
    ---------------------

    Doubly Occupied:

       1A    -20.400881     2A    -20.314302     3A    -20.311490
       4A    -11.190466     5A    -11.164962     6A    -11.107848
       7A    -11.102216     8A    -11.086882     9A     -1.231056
      10A     -1.183393    11A     -1.084648    12A     -0.932271
      13A     -0.860379    14A     -0.751806    15A     -0.601463
      16A     -0.546564    17A     -0.510889    18A     -0.503471
      19A     -0.481134    20A     -0.447711    21A     -0.439724
      22A     -0.407497    23A     -0.398380    24A     -0.390496
      25A     -0.378782    26A     -0.348154    27A     -0.336441
      28A     -0.276796    29A     -0.229720    30A     -0.217053
      31A     -0.211845

  @DF-RHF Final Energy:  -418.20731710791461

   => Energetics <=

    Nuclear Repulsion Energy =            362.3329155271501918
    One-Electron Energy =               -1302.1830251693534137
    Two-Electron Energy =                 521.6427925342886738
    Total Energy =                       -418.2073171079146050
  Basis Set: (AUG-CC-PVTZ AUX)
    Blend: AUG-CC-PVTZ-RI
    Molecular point group: c1

    Geometry (in Angstrom), charge = -1, multiplicity = 1:

       Center              X                  Y                   Z               Mass
    ------------   -----------------  -----------------  -----------------  -----------------
         O            1.158077244124     1.331640308974    -0.840940576513    15.994914619570
         O           -1.039552755876    -1.113717691026    -0.783472576513    15.994914619570
         O           -2.837160755876    -0.191482691026     0.266628423487    15.994914619570
         C            1.557388244124    -0.380676691026     0.794785423487    12.000000000000
         C            0.712211244124     0.660447308974     0.094124423487    12.000000000000
         C           -0.696299755876     0.829544308974     0.587008423487    12.000000000000
         C            2.803759244124    -0.771480691026     0.015330423487    12.000000000000
         C           -1.616717755876    -0.266879691026    -0.037525576513    12.000000000000
         H            1.824975244124     0.033002308974     1.777985423487     1.007825032230
         H            0.919113244124    -1.247342691026     0.990115423487     1.007825032230
         H           -0.748224055876     0.744819708974     1.729299323487     1.007825032230
         H           -1.068856755876     1.818241308974     0.300742423487     1.007825032230
         H            2.528186244124    -1.198731691026    -0.952434576513     1.007825032230
         H            3.435690244124     0.099329308974    -0.170772576513     1.007825032230
         H            3.388936244124    -1.513782691026     0.564861423487     1.007825032230

  Basis Set: AUG-CC-PVTZ
    Blend: AUG-CC-PVTZ
  Basis Set: (AUG-CC-PVTZ AUX)
    Blend: AUG-CC-PVTZ-JKFIT
	 Reference Energy          =    -418.2073171079146050 [Eh]
	 Singles Energy            =      -0.0000000000000000 [Eh]
	 Same-Spin Energy          =      -0.4167368039404391 [Eh]
	 Opposite-Spin Energy      =      -1.2925901000933433 [Eh]
	 Correlation Energy        =      -1.7093269040337824 [Eh]
	 Total Energy              =    -419.9166440119483923 [Eh]

	 ================> DF-SCS-MP2 Energies <==================
	-----------------------------------------------------------
	 SCS Same-Spin Scale       =       0.3333333333333333 [-]
	 SCS Opposite-Spin Scale   =       1.2000000000000000 [-]
	 SCS Same-Spin Energy      =      -0.1389122679801464 [Eh]
	 SCS Opposite-Spin Energy  =      -1.5511081201120118 [Eh]
	 SCS Correlation Energy    =      -1.6900203880921583 [Eh]
	 SCS Total Energy          =    -419.8973374960067417 [Eh]
	-----------------------------------------------------------

  Dipole Moment: [D]
     X:     6.7347      Y:     1.2515      Z:     3.1582     Total:     7.5430

*** Psi4 exiting successfully. Buy a developer a beer!
