                               Psi4 1.4a3.dev225

  ==> Input File <==

--------------------------------------------------------------------------
#psi4
#
memory 32 gb

molecule  {
-1 1
  O        1.0745520     1.3418620    -0.8745480
  O       -1.1230780    -1.1034960    -0.8170800
  O       -2.9206860    -0.1812610     0.2330210
  C        1.4738630    -0.3704550     0.7611780
  C        0.6286860     0.6706690     0.0605170
  C       -0.7798250     0.8397660     0.5534010
  C        2.7202340    -0.7612590    -0.0182770
  C       -1.6518139    -0.2596499    -0.0832023
  H        1.7414500     0.0432240     1.7443780
  H        0.8355880    -1.2371210     0.9565080
  H       -0.8294850     0.7587360     1.6458800
  H       -1.1523820     1.8284630     0.2671350
  H        2.4446610    -1.1885100    -0.9860420
  H        3.3521650     0.1095510    -0.2043800
  H        3.3054110    -1.5035610     0.5312540
units angstrom
no_reorient  #important for SAPT in psi4, default
symmetry c1  #important for SAPT in psi4, default
}

set PROPERTIES_ORIGIN ["COM"]
properties('MP2/aug-cc-pvtz', properties = ['dipole'])
--------------------------------------------------------------------------

    Molecular point group: c1
  Charge       = -1
  Multiplicity = 1
  Basis Set: AUG-CC-PVTZ
    Blend: AUG-CC-PVTZ
  Basis Set: (AUG-CC-PVTZ AUX)
    Blend: AUG-CC-PVTZ-JKFIT

    Orbital Energies [Eh]
    ---------------------

    Doubly Occupied:

       1A    -20.403182     2A    -20.323223     3A    -20.299329
       4A    -11.192004     5A    -11.164071     6A    -11.110584
       7A    -11.104391     8A    -11.083315     9A     -1.233536
      10A     -1.186829    11A     -1.068020    12A     -0.935642
      13A     -0.868350    14A     -0.755227    15A     -0.603740
      16A     -0.551021    17A     -0.517322    18A     -0.506932
      19A     -0.483989    20A     -0.451296    21A     -0.443578
      22A     -0.404945    23A     -0.399437    24A     -0.390201
      25A     -0.381238    26A     -0.351066    27A     -0.336553
      28A     -0.278933    29A     -0.230915    30A     -0.211727
      31A     -0.205604

  @DF-RHF Final Energy:  -418.20405571203185

   => Energetics <=

    Nuclear Repulsion Energy =            362.8762855575694175
    One-Electron Energy =               -1303.2082866140881379
    Two-Electron Energy =                 522.1279453444868750
    Total Energy =                       -418.2040557120318454
  Basis Set: (AUG-CC-PVTZ AUX)
    Blend: AUG-CC-PVTZ-RI
    Molecular point group: c1

    Geometry (in Angstrom), charge = -1, multiplicity = 1:

       Center              X                  Y                   Z               Mass
    ------------   -----------------  -----------------  -----------------  -----------------
         O            1.153005672000     1.331920032759    -0.839245217551    15.994914619570
         O           -1.044624328000    -1.113437967241    -0.781777217551    15.994914619570
         O           -2.842232328000    -0.191202967241     0.268323782449    15.994914619570
         C            1.552316672000    -0.380396967241     0.796480782449    12.000000000000
         C            0.707139672000     0.660727032759     0.095819782449    12.000000000000
         C           -0.701371328000     0.829824032759     0.588703782449    12.000000000000
         C            2.798687672000    -0.771200967241     0.017025782449    12.000000000000
         C           -1.573360228000    -0.269591867241    -0.047899517551    12.000000000000
         H            1.819903672000     0.033282032759     1.779680782449     1.007825032230
         H            0.914041672000    -1.247062967241     0.991810782449     1.007825032230
         H           -0.751031328000     0.748794032759     1.681182782449     1.007825032230
         H           -1.073928328000     1.818521032759     0.302437782449     1.007825032230
         H            2.523114672000    -1.198451967241    -0.950739217551     1.007825032230
         H            3.430618672000     0.099609032759    -0.169077217551     1.007825032230
         H            3.383864672000    -1.513502967241     0.566556782449     1.007825032230

  Basis Set: AUG-CC-PVTZ
    Blend: AUG-CC-PVTZ
  Basis Set: (AUG-CC-PVTZ AUX)
    Blend: AUG-CC-PVTZ-JKFIT
	 Reference Energy          =    -418.2040557120318454 [Eh]
	 Singles Energy            =      -0.0000000000000000 [Eh]
	 Same-Spin Energy          =      -0.4170543379253355 [Eh]
	 Opposite-Spin Energy      =      -1.2930658369763410 [Eh]
	 Correlation Energy        =      -1.7101201749016766 [Eh]
	 Total Energy              =    -419.9141758869335490 [Eh]

	 ================> DF-SCS-MP2 Energies <==================
	-----------------------------------------------------------
	 SCS Same-Spin Scale       =       0.3333333333333333 [-]
	 SCS Opposite-Spin Scale   =       1.2000000000000000 [-]
	 SCS Same-Spin Energy      =      -0.1390181126417785 [Eh]
	 SCS Opposite-Spin Energy  =      -1.5516790043716091 [Eh]
	 SCS Correlation Energy    =      -1.6906971170133875 [Eh]
	 SCS Total Energy          =    -419.8947528290452169 [Eh]
	-----------------------------------------------------------

  Dipole Moment: [D]
     X:     7.2848      Y:     1.1953      Z:     3.0463     Total:     7.9860

*** Psi4 exiting successfully. Buy a developer a beer!
