                               Psi4 1.3.2 release

  ==> Input File <==

--------------------------------------------------------------------------
#psi4
#
memory 32 gb

molecule  {
-1 1
  O        0.5847332    -1.1730491    -0.3770173
  O       -2.2370500    -0.5589400     1.0879600
  O       -2.5032960     0.1554020    -1.0563790
  C        2.0046849     0.6588032     0.1444248
  C        0.6435570     0.0091630    -0.0366810
  C       -0.5777410     0.8814240     0.1686100
  C        3.1729130    -0.2631210    -0.0329300
  C       -1.9010600     0.0931950     0.0560670
  H        2.0429660     1.5133360    -0.5640360
  H        2.0060190     1.1470430     1.1438410
  H       -0.4967450     1.3515110     1.1569670
  H       -0.5352790     1.6874700    -0.5756840
  H        3.1399490    -1.0742180     0.6982180
  H        3.1613950    -0.7098910    -1.0291440
  H        4.1160350     0.2752530     0.0934100
units angstrom
no_reorient  #important for SAPT in psi4, default
symmetry c1  #important for SAPT in psi4, default
}

set PROPERTIES_ORIGIN ["COM"]
properties('MP2/aug-cc-pvtz', properties = ['dipole'])
--------------------------------------------------------------------------

    Molecular point group: c1
  Charge       = -1
  Multiplicity = 1
  Basis Set: AUG-CC-PVTZ
    Blend: AUG-CC-PVTZ
  Basis Set: (AUG-CC-PVTZ AUX)
    Blend: AUG-CC-PVTZ-JKFIT

    Orbital Energies [Eh]
    ---------------------

    Doubly Occupied:

       1A    -20.409443     2A    -20.297285     3A    -20.295505
       4A    -11.200082     5A    -11.147171     6A    -11.130498
       7A    -11.119360     8A    -11.084543     9A     -1.239652
      10A     -1.164752    11A     -1.064807    12A     -0.951584
      13A     -0.869853    14A     -0.765565    15A     -0.610044
      16A     -0.539532    17A     -0.530887    18A     -0.524165
      19A     -0.472091    20A     -0.455448    21A     -0.441852
      22A     -0.415195    23A     -0.405844    24A     -0.400372
      25A     -0.375187    26A     -0.346465    27A     -0.336762
      28A     -0.280376    29A     -0.211073    30A     -0.208105
      31A     -0.193230

  @DF-RHF Final Energy:  -418.19481881546204

   => Energetics <=

    Nuclear Repulsion Energy =            356.7702375710940146
    One-Electron Energy =               -1290.9566623396808609
    Two-Electron Energy =                 515.9916059531249175
    Total Energy =                       -418.1948188154619857
  Basis Set: (AUG-CC-PVTZ AUX)
    Blend: AUG-CC-PVTZ-RI
    Molecular point group: c1

    Geometry (in Angstrom), charge = -1, multiplicity = 1:

       Center              X                  Y                   Z               Mass
    ------------   -----------------  -----------------  -----------------  -----------------
         O            0.696181518687    -1.134449227006    -0.368319979703    15.994914619570
         O           -2.125601681313    -0.520340127006     1.096657320297    15.994914619570
         O           -2.391847681313     0.194001872994    -1.047681679703    15.994914619570
         C            2.116133218687     0.697403072994     0.153122120297    12.000000000000
         C            0.755005318687     0.047762872994    -0.027983679703    12.000000000000
         C           -0.466292681313     0.920023872994     0.177307320297    12.000000000000
         C            3.284361318687    -0.224521127006    -0.024232679703    12.000000000000
         C           -1.789611681313     0.131794872994     0.064764320297    12.000000000000
         H            2.154414318687     1.551935872994    -0.555338679703     1.007825032230
         H            2.117467318687     1.185642872994     1.152538320297     1.007825032230
         H           -0.385296681313     1.390110872994     1.165664320297     1.007825032230
         H           -0.423830681313     1.726069872994    -0.566986679703     1.007825032230
         H            3.251397318687    -1.035618127006     0.706915320297     1.007825032230
         H            3.272843318687    -0.671291127006    -1.020446679703     1.007825032230
         H            4.227483318687     0.313852872994     0.102107320297     1.007825032230

  Basis Set: AUG-CC-PVTZ
    Blend: AUG-CC-PVTZ
  Basis Set: (AUG-CC-PVTZ AUX)
    Blend: AUG-CC-PVTZ-JKFIT
	 Reference Energy          =    -418.1948188154620425 [Eh]
	 Singles Energy            =      -0.0000000000000000 [Eh]
	 Same-Spin Energy          =      -0.4163533592388547 [Eh]
	 Opposite-Spin Energy      =      -1.2926690164674355 [Eh]
	 Correlation Energy        =      -1.7090223757062901 [Eh]
	 Total Energy              =    -419.9038411911683397 [Eh]

	 ================> DF-SCS-MP2 Energies <==================
	-----------------------------------------------------------
	 SCS Same-Spin Scale       =       0.3333333333333333 [-]
	 SCS Opposite-Spin Scale   =       1.2000000000000000 [-]
	 SCS Same-Spin Energy      =      -0.1387844530796182 [Eh]
	 SCS Opposite-Spin Energy  =      -1.5512028197609224 [Eh]
	 SCS Correlation Energy    =      -1.6899872728405407 [Eh]
	 SCS Total Energy          =    -419.8848060883025823 [Eh]
	-----------------------------------------------------------

  Dipole Moment: [D]
     X:     9.9465      Y:     3.4449      Z:     0.6290     Total:    10.5449

*** Psi4 exiting successfully. Buy a developer a beer!
