                               Psi4 1.3.2 release

  ==> Input File <==

--------------------------------------------------------------------------
#psi4
#
memory 32 gb

molecule  {
-1 1
  O        0.5632720    -1.1719080    -0.3765930
  O       -2.2370500    -0.5589400     1.0879600
  O       -2.5032960     0.1554020    -1.0563790
  C        1.9927080     0.6815170     0.1510220
  C        0.6435570     0.0091630    -0.0366810
  C       -0.4971155     0.8238406     0.1550575
  C        3.1729130    -0.2631210    -0.0329300
  C       -1.9010600     0.0931950     0.0560670
  H        2.0429660     1.5133360    -0.5640360
  H        2.0060190     1.1470430     1.1438410
  H       -0.4967450     1.3515110     1.1569670
  H       -0.5352790     1.6874700    -0.5756840
  H        3.1399490    -1.0742180     0.6982180
  H        3.1613950    -0.7098910    -1.0291440
  H        4.1160350     0.2752530     0.0934100
units angstrom
no_reorient  #important for SAPT in psi4, default
symmetry c1  #important for SAPT in psi4, default
}

set PROPERTIES_ORIGIN ["COM"]
properties('MP2/aug-cc-pvtz', properties = ['dipole'])
--------------------------------------------------------------------------

    Molecular point group: c1
  Charge       = -1
  Multiplicity = 1
  Basis Set: AUG-CC-PVTZ
    Blend: AUG-CC-PVTZ
  Basis Set: (AUG-CC-PVTZ AUX)
    Blend: AUG-CC-PVTZ-JKFIT

    Orbital Energies [Eh]
    ---------------------

    Doubly Occupied:

       1A    -20.407163     2A    -20.299448     3A    -20.296950
       4A    -11.193397     5A    -11.151174     6A    -11.127789
       7A    -11.119286     8A    -11.083643     9A     -1.239892
      10A     -1.164791    11A     -1.065808    12A     -0.951738
      13A     -0.879871    14A     -0.763152    15A     -0.615347
      16A     -0.539785    17A     -0.531458    18A     -0.525820
      19A     -0.473086    20A     -0.449857    21A     -0.440500
      22A     -0.408776    23A     -0.402646    24A     -0.401304
      25A     -0.377254    26A     -0.341966    27A     -0.334117
      28A     -0.287555    29A     -0.212029    30A     -0.204480
      31A     -0.194407

  @DF-RHF Final Energy:  -418.18520532658840

   => Energetics <=

    Nuclear Repulsion Energy =            357.6712577475574903
    One-Electron Energy =               -1292.7439457628952368
    Two-Electron Energy =                 516.8874826887492873
    Total Energy =                       -418.1852053265884024
  Basis Set: (AUG-CC-PVTZ AUX)
    Blend: AUG-CC-PVTZ-RI
    Molecular point group: c1

    Geometry (in Angstrom), charge = -1, multiplicity = 1:

       Center              X                  Y                   Z               Mass
    ------------   -----------------  -----------------  -----------------  -----------------
         O            0.670543378952    -1.129829466750    -0.367229152597    15.994914619570
         O           -2.129778621048    -0.516861466750     1.097323847403    15.994914619570
         O           -2.396024621048     0.197480533250    -1.047015152597    15.994914619570
         C            2.099979378952     0.723595533250     0.160385847403    12.000000000000
         C            0.750828378952     0.051241533250    -0.027317152597    12.000000000000
         C           -0.389844121048     0.865919133250     0.164421347403    12.000000000000
         C            3.280184378952    -0.221042466750    -0.023566152597    12.000000000000
         C           -1.793788621048     0.135273533250     0.065430847403    12.000000000000
         H            2.150237378952     1.555414533250    -0.554672152597     1.007825032230
         H            2.113290378952     1.189121533250     1.153204847403     1.007825032230
         H           -0.389473621048     1.393589533250     1.166330847403     1.007825032230
         H           -0.428007621048     1.729548533250    -0.566320152597     1.007825032230
         H            3.247220378952    -1.032139466750     0.707581847403     1.007825032230
         H            3.268666378952    -0.667812466750    -1.019780152597     1.007825032230
         H            4.223306378952     0.317331533250     0.102773847403     1.007825032230

  Basis Set: AUG-CC-PVTZ
    Blend: AUG-CC-PVTZ
  Basis Set: (AUG-CC-PVTZ AUX)
    Blend: AUG-CC-PVTZ-JKFIT
	 Reference Energy          =    -418.1852053265884024 [Eh]
	 Singles Energy            =      -0.0000000000000000 [Eh]
	 Same-Spin Energy          =      -0.4172618990411727 [Eh]
	 Opposite-Spin Energy      =      -1.2938928237261642 [Eh]
	 Correlation Energy        =      -1.7111547227673369 [Eh]
	 Total Energy              =    -419.8963600493557351 [Eh]

	 ================> DF-SCS-MP2 Energies <==================
	-----------------------------------------------------------
	 SCS Same-Spin Scale       =       0.3333333333333333 [-]
	 SCS Opposite-Spin Scale   =       1.2000000000000000 [-]
	 SCS Same-Spin Energy      =      -0.1390872996803909 [Eh]
	 SCS Opposite-Spin Energy  =      -1.5526713884713970 [Eh]
	 SCS Correlation Energy    =      -1.6917586881517879 [Eh]
	 SCS Total Energy          =    -419.8769640147401674 [Eh]
	-----------------------------------------------------------

  Dipole Moment: [D]
     X:     9.7591      Y:     3.4544      Z:     0.6294     Total:    10.3715

*** Psi4 exiting successfully. Buy a developer a beer!
