                               Psi4 1.3.2 release

  ==> Input File <==

--------------------------------------------------------------------------
#psi4
#
memory 32 gb

molecule  {
-1 1
  O        0.5632720    -1.1719080    -0.3765930
  O       -2.2370500    -0.5589400     1.0879600
  O       -2.5032960     0.1554020    -1.0563790
  C        1.9927080     0.6815170     0.1510220
  C        0.6435570     0.0091630    -0.0366810
  C       -0.5777410     0.8814240     0.1686100
  C        3.1729130    -0.2631210    -0.0329300
  C       -1.9224886     0.1419984    -0.0047323
  H        2.0429660     1.5133360    -0.5640360
  H        2.0060190     1.1470430     1.1438410
  H       -0.4967450     1.3515110     1.1569670
  H       -0.5872249     1.6711470    -0.5941051
  H        3.1399490    -1.0742180     0.6982180
  H        3.1613950    -0.7098910    -1.0291440
  H        4.1160350     0.2752530     0.0934100
units angstrom
no_reorient  #important for SAPT in psi4, default
symmetry c1  #important for SAPT in psi4, default
}

set PROPERTIES_ORIGIN ["COM"]
properties('MP2/aug-cc-pvtz', properties = ['dipole'])
--------------------------------------------------------------------------

    Molecular point group: c1
  Charge       = -1
  Multiplicity = 1
  Basis Set: AUG-CC-PVTZ
    Blend: AUG-CC-PVTZ
  Basis Set: (AUG-CC-PVTZ AUX)
    Blend: AUG-CC-PVTZ-JKFIT

    Orbital Energies [Eh]
    ---------------------

    Doubly Occupied:

       1A    -20.409913     2A    -20.314685     3A    -20.276815
       4A    -11.200475     5A    -11.144864     6A    -11.130303
       7A    -11.120734     8A    -11.082802     9A     -1.238932
      10A     -1.188201    11A     -1.042693    12A     -0.949528
      13A     -0.867127    14A     -0.767260    15A     -0.613167
      16A     -0.538990    17A     -0.528816    18A     -0.525763
      19A     -0.473270    20A     -0.455416    21A     -0.442427
      22A     -0.414084    23A     -0.407706    24A     -0.403305
      25A     -0.375732    26A     -0.346549    27A     -0.343960
      28A     -0.280038    29A     -0.214283    30A     -0.193657
      31A     -0.186481

  @DF-RHF Final Energy:  -418.18539787246459

   => Energetics <=

    Nuclear Repulsion Energy =            356.5689750492558119
    One-Electron Energy =               -1290.5527929468787534
    Two-Electron Energy =                 515.7984200251582934
    Total Energy =                       -418.1853978724645913
  Basis Set: (AUG-CC-PVTZ AUX)
    Blend: AUG-CC-PVTZ-RI
    Molecular point group: c1

    Geometry (in Angstrom), charge = -1, multiplicity = 1:

       Center              X                  Y                   Z               Mass
    ------------   -----------------  -----------------  -----------------  -----------------
         O            0.681643925864    -1.140783883823    -0.362139363884    15.994914619570
         O           -2.118678074136    -0.527815883823     1.102413636116    15.994914619570
         O           -2.384924074136     0.186526116177    -1.041925363884    15.994914619570
         C            2.111079925864     0.712641116177     0.165475636116    12.000000000000
         C            0.761928925864     0.040287116177    -0.022227363884    12.000000000000
         C           -0.459369074136     0.912548116177     0.183063636116    12.000000000000
         C            3.291284925864    -0.231996883823    -0.018476363884    12.000000000000
         C           -1.804116674136     0.173122516177     0.009721336116    12.000000000000
         H            2.161337925864     1.544460116177    -0.549582363884     1.007825032230
         H            2.124390925864     1.178167116177     1.158294636116     1.007825032230
         H           -0.378373074136     1.382635116177     1.171420636116     1.007825032230
         H           -0.468852974136     1.702271116177    -0.579651463884     1.007825032230
         H            3.258320925864    -1.043093883823     0.712671636116     1.007825032230
         H            3.279766925864    -0.678766883823    -1.014690363884     1.007825032230
         H            4.234406925864     0.306377116177     0.107863636116     1.007825032230

  Basis Set: AUG-CC-PVTZ
    Blend: AUG-CC-PVTZ
  Basis Set: (AUG-CC-PVTZ AUX)
    Blend: AUG-CC-PVTZ-JKFIT
	 Reference Energy          =    -418.1853978724645913 [Eh]
	 Singles Energy            =      -0.0000000000000000 [Eh]
	 Same-Spin Energy          =      -0.4162958161974786 [Eh]
	 Opposite-Spin Energy      =      -1.2929040246151302 [Eh]
	 Correlation Energy        =      -1.7091998408126088 [Eh]
	 Total Energy              =    -419.8945977132772214 [Eh]

	 ================> DF-SCS-MP2 Energies <==================
	-----------------------------------------------------------
	 SCS Same-Spin Scale       =       0.3333333333333333 [-]
	 SCS Opposite-Spin Scale   =       1.2000000000000000 [-]
	 SCS Same-Spin Energy      =      -0.1387652720658262 [Eh]
	 SCS Opposite-Spin Energy  =      -1.5514848295381563 [Eh]
	 SCS Correlation Energy    =      -1.6902501016039824 [Eh]
	 SCS Total Energy          =    -419.8756479740685563 [Eh]
	-----------------------------------------------------------

  Dipole Moment: [D]
     X:     9.9000      Y:     3.7034      Z:    -0.1327     Total:    10.5708

*** Psi4 exiting successfully. Buy a developer a beer!
