                               Psi4 1.3.2 release

  ==> Input File <==

--------------------------------------------------------------------------
#psi4
#
memory 32 gb

molecule  {
-1 1
  O        0.5632720    -1.1719080    -0.3765930
  O       -2.2370500    -0.5589400     1.0879600
  O       -2.5032960     0.1554020    -1.0563790
  C        1.9927080     0.6815170     0.1510220
  C        0.6435570     0.0091630    -0.0366810
  C       -0.5777410     0.8814240     0.1686100
  C        3.1729130    -0.2631210    -0.0329300
  C       -1.9072956     0.1005298     0.0812435
  H        2.0429660     1.5133360    -0.5640360
  H        2.0060190     1.1470430     1.1438410
  H       -0.5137356     1.3440547     1.1617202
  H       -0.5352790     1.6874700    -0.5756840
  H        3.1399490    -1.0742180     0.6982180
  H        3.1613950    -0.7098910    -1.0291440
  H        4.1160350     0.2752530     0.0934100
units angstrom
no_reorient  #important for SAPT in psi4, default
symmetry c1  #important for SAPT in psi4, default
}

set PROPERTIES_ORIGIN ["COM"]
properties('MP2/aug-cc-pvtz', properties = ['dipole'])
--------------------------------------------------------------------------

    Molecular point group: c1
  Charge       = -1
  Multiplicity = 1
  Basis Set: AUG-CC-PVTZ
    Blend: AUG-CC-PVTZ
  Basis Set: (AUG-CC-PVTZ AUX)
    Blend: AUG-CC-PVTZ-JKFIT

    Orbital Energies [Eh]
    ---------------------

    Doubly Occupied:

       1A    -20.410334     2A    -20.299777     3A    -20.291542
       4A    -11.200353     5A    -11.145926     6A    -11.130385
       7A    -11.120957     8A    -11.082727     9A     -1.239518
      10A     -1.165975    11A     -1.061975    12A     -0.949870
      13A     -0.867868    14A     -0.767086    15A     -0.612222
      16A     -0.537978    17A     -0.529859    18A     -0.526339
      19A     -0.471414    20A     -0.455098    21A     -0.439448
      22A     -0.410843    23A     -0.407831    24A     -0.403444
      25A     -0.377034    26A     -0.347403    27A     -0.336103
      28A     -0.280335    29A     -0.211451    30A     -0.205217
      31A     -0.192061

  @DF-RHF Final Energy:  -418.19452563801030

   => Energetics <=

    Nuclear Repulsion Energy =            356.6414122968438392
    One-Electron Energy =               -1290.7151329928967698
    Two-Electron Energy =                 515.8791950580426828
    Total Energy =                       -418.1945256380103046
  Basis Set: (AUG-CC-PVTZ AUX)
    Blend: AUG-CC-PVTZ-RI
    Molecular point group: c1

    Geometry (in Angstrom), charge = -1, multiplicity = 1:

       Center              X                  Y                   Z               Mass
    ------------   -----------------  -----------------  -----------------  -----------------
         O            0.679752881568    -1.136535890424    -0.371310692555    15.994914619570
         O           -2.120569118432    -0.523567890424     1.093242307445    15.994914619570
         O           -2.386815118432     0.190774109576    -1.051096692555    15.994914619570
         C            2.109188881568     0.716889109576     0.156304307445    12.000000000000
         C            0.760037881568     0.044535109576    -0.031398692555    12.000000000000
         C           -0.461260118432     0.916796109576     0.173892307445    12.000000000000
         C            3.289393881568    -0.227748890424    -0.027647692555    12.000000000000
         C           -1.790814718432     0.135901909576     0.086525807445    12.000000000000
         H            2.159446881568     1.548708109576    -0.558753692555     1.007825032230
         H            2.122499881568     1.182415109576     1.149123307445     1.007825032230
         H           -0.397254718432     1.379426809576     1.167002507445     1.007825032230
         H           -0.418798118432     1.722842109576    -0.570401692555     1.007825032230
         H            3.256429881568    -1.038845890424     0.703500307445     1.007825032230
         H            3.277875881568    -0.674518890424    -1.023861692555     1.007825032230
         H            4.232515881568     0.310625109576     0.098692307445     1.007825032230

  Basis Set: AUG-CC-PVTZ
    Blend: AUG-CC-PVTZ
  Basis Set: (AUG-CC-PVTZ AUX)
    Blend: AUG-CC-PVTZ-JKFIT
	 Reference Energy          =    -418.1945256380103046 [Eh]
	 Singles Energy            =      -0.0000000000000000 [Eh]
	 Same-Spin Energy          =      -0.4162200361193243 [Eh]
	 Opposite-Spin Energy      =      -1.2926392083170428 [Eh]
	 Correlation Energy        =      -1.7088592444363671 [Eh]
	 Total Energy              =    -419.9033848824466872 [Eh]

	 ================> DF-SCS-MP2 Energies <==================
	-----------------------------------------------------------
	 SCS Same-Spin Scale       =       0.3333333333333333 [-]
	 SCS Opposite-Spin Scale   =       1.2000000000000000 [-]
	 SCS Same-Spin Energy      =      -0.1387400120397748 [Eh]
	 SCS Opposite-Spin Energy  =      -1.5511670499804513 [Eh]
	 SCS Correlation Energy    =      -1.6899070620202261 [Eh]
	 SCS Total Energy          =    -419.8844327000305157 [Eh]
	-----------------------------------------------------------

  Dipole Moment: [D]
     X:    10.0134      Y:     3.3911      Z:     0.8459     Total:    10.6058

*** Psi4 exiting successfully. Buy a developer a beer!
