                               Psi4 1.3.2 release

  ==> Input File <==

--------------------------------------------------------------------------
#psi4
#
memory 32 gb

molecule  {
-1 1
  O        0.5632720    -1.1719080    -0.3765930
  O       -2.2370500    -0.5589400     1.0879600
  O       -2.5032960     0.1554020    -1.0563790
  C        1.9927080     0.6815170     0.1510220
  C        0.6435570     0.0091630    -0.0366810
  C       -0.5777410     0.8814240     0.1686100
  C        3.1729130    -0.2631210    -0.0329300
  C       -1.9541354    -0.0098209     0.2190723
  H        2.0429660     1.5133360    -0.5640360
  H        2.0060190     1.1470430     1.1438410
  H       -0.4967450     1.3515110     1.1569670
  H       -0.5352790     1.6874700    -0.5756840
  H        3.1399490    -1.0742180     0.6982180
  H        3.1613950    -0.7098910    -1.0291440
  H        4.1160350     0.2752530     0.0934100
units angstrom
no_reorient  #important for SAPT in psi4, default
symmetry c1  #important for SAPT in psi4, default
}

set PROPERTIES_ORIGIN ["COM"]
properties('MP2/aug-cc-pvtz', properties = ['dipole'])
--------------------------------------------------------------------------

    Molecular point group: c1
  Charge       = -1
  Multiplicity = 1
  Basis Set: AUG-CC-PVTZ
    Blend: AUG-CC-PVTZ
  Basis Set: (AUG-CC-PVTZ AUX)
    Blend: AUG-CC-PVTZ-JKFIT

    Orbital Energies [Eh]
    ---------------------

    Doubly Occupied:

       1A    -20.404651     2A    -20.344101     3A    -20.260718
       4A    -11.192679     5A    -11.141203     6A    -11.124410
       7A    -11.117014     8A    -11.068980     9A     -1.300575
      10A     -1.233601    11A     -1.012932    12A     -0.944199
      13A     -0.851833    14A     -0.756416    15A     -0.601648
      16A     -0.543147    17A     -0.523357    18A     -0.520936
      19A     -0.492153    20A     -0.460122    21A     -0.443838
      22A     -0.421206    23A     -0.411076    24A     -0.406347
      25A     -0.395978    26A     -0.383376    27A     -0.341266
      28A     -0.274534    29A     -0.207678    30A     -0.181361
      31A     -0.164527

  @DF-RHF Final Energy:  -418.12909870548117

   => Energetics <=

    Nuclear Repulsion Energy =            357.3057321540900944
    One-Electron Energy =               -1291.8179424951908913
    Two-Electron Energy =                 516.3831116356196844
    Total Energy =                       -418.1290987054811694
  Basis Set: (AUG-CC-PVTZ AUX)
    Blend: AUG-CC-PVTZ-RI
    Molecular point group: c1

    Geometry (in Angstrom), charge = -1, multiplicity = 1:

       Center              X                  Y                   Z               Mass
    ------------   -----------------  -----------------  -----------------  -----------------
         O            0.684489984542    -1.125090312724    -0.385646246278    15.994914619570
         O           -2.115832015458    -0.512122312724     1.078906753722    15.994914619570
         O           -2.382078015458     0.202219687276    -1.065432246278    15.994914619570
         C            2.113925984542     0.728334687276     0.141968753722    12.000000000000
         C            0.764774984542     0.055980687276    -0.045734246278    12.000000000000
         C           -0.456523015458     0.928241687276     0.159556753722    12.000000000000
         C            3.294130984542    -0.216303312724    -0.041983246278    12.000000000000
         C           -1.832917415458     0.036996787276     0.210019053722    12.000000000000
         H            2.164183984542     1.560153687276    -0.573089246278     1.007825032230
         H            2.127236984542     1.193860687276     1.134787753722     1.007825032230
         H           -0.375527015458     1.398328687276     1.147913753722     1.007825032230
         H           -0.414061015458     1.734287687276    -0.584737246278     1.007825032230
         H            3.261166984542    -1.027400312724     0.689164753722     1.007825032230
         H            3.282612984542    -0.663073312724    -1.038197246278     1.007825032230
         H            4.237252984542     0.322070687276     0.084356753722     1.007825032230

  Basis Set: AUG-CC-PVTZ
    Blend: AUG-CC-PVTZ
  Basis Set: (AUG-CC-PVTZ AUX)
    Blend: AUG-CC-PVTZ-JKFIT
	 Reference Energy          =    -418.1290987054811694 [Eh]
	 Singles Energy            =      -0.0000000000000000 [Eh]
	 Same-Spin Energy          =      -0.4147382458798312 [Eh]
	 Opposite-Spin Energy      =      -1.2890683684317046 [Eh]
	 Correlation Energy        =      -1.7038066143115358 [Eh]
	 Total Energy              =    -419.8329053197927010 [Eh]

	 ================> DF-SCS-MP2 Energies <==================
	-----------------------------------------------------------
	 SCS Same-Spin Scale       =       0.3333333333333333 [-]
	 SCS Opposite-Spin Scale   =       1.2000000000000000 [-]
	 SCS Same-Spin Energy      =      -0.1382460819599437 [Eh]
	 SCS Opposite-Spin Energy  =      -1.5468820421180454 [Eh]
	 SCS Correlation Energy    =      -1.6851281240779892 [Eh]
	 SCS Total Energy          =    -419.8142268295591748 [Eh]
	-----------------------------------------------------------

  Dipole Moment: [D]
     X:     9.5828      Y:     2.5363      Z:     2.5356     Total:    10.2319

*** Psi4 exiting successfully. Buy a developer a beer!
