                               Psi4 1.3.2 release

  ==> Input File <==

--------------------------------------------------------------------------
#psi4
#
memory 32 gb

molecule  {
-1 1
  O        0.5632720    -1.1719080    -0.3765930
  O       -2.2370500    -0.5589400     1.0879600
  O       -2.5032960     0.1554020    -1.0563790
  C        1.9927080     0.6815170     0.1510220
  C        0.6315980     0.0323020    -0.0317355
  C       -0.5777410     0.8814240     0.1686100
  C        3.1895157    -0.2429789    -0.0279245
  C       -1.9010600     0.0931950     0.0560670
  H        2.0429660     1.5133360    -0.5640360
  H        2.0060190     1.1470430     1.1438410
  H       -0.4967450     1.3515110     1.1569670
  H       -0.5352790     1.6874700    -0.5756840
  H        3.1399490    -1.0742180     0.6982180
  H        3.1613950    -0.7098910    -1.0291440
  H        4.1160350     0.2752530     0.0934100
units angstrom
no_reorient  #important for SAPT in psi4, default
symmetry c1  #important for SAPT in psi4, default
}

set PROPERTIES_ORIGIN ["COM"]
properties('MP2/aug-cc-pvtz', properties = ['dipole'])
--------------------------------------------------------------------------

    Molecular point group: c1
  Charge       = -1
  Multiplicity = 1
  Basis Set: AUG-CC-PVTZ
    Blend: AUG-CC-PVTZ
  Basis Set: (AUG-CC-PVTZ AUX)
    Blend: AUG-CC-PVTZ-JKFIT

    Orbital Energies [Eh]
    ---------------------

    Doubly Occupied:

       1A    -20.407974     2A    -20.297442     3A    -20.295582
       4A    -11.202410     5A    -11.147720     6A    -11.131137
       7A    -11.120933     8A    -11.084332     9A     -1.224469
      10A     -1.164707    11A     -1.064943    12A     -0.950126
      13A     -0.874703    14A     -0.768489    15A     -0.612095
      16A     -0.539665    17A     -0.529067    18A     -0.524343
      19A     -0.467451    20A     -0.455471    21A     -0.445357
      22A     -0.413427    23A     -0.403171    24A     -0.399523
      25A     -0.376735    26A     -0.340249    27A     -0.334299
      28A     -0.283422    29A     -0.211283    30A     -0.208702
      31A     -0.193222

  @DF-RHF Final Energy:  -418.19105150511473

   => Energetics <=

    Nuclear Repulsion Energy =            356.4464494614763339
    One-Electron Energy =               -1290.3301096513403081
    Two-Electron Energy =                 515.6926086847493025
    Total Energy =                       -418.1910515051147286
  Basis Set: (AUG-CC-PVTZ AUX)
    Blend: AUG-CC-PVTZ-RI
    Molecular point group: c1

    Geometry (in Angstrom), charge = -1, multiplicity = 1:

       Center              X                  Y                   Z               Mass
    ------------   -----------------  -----------------  -----------------  -----------------
         O            0.678469190945    -1.140350842444    -0.369680849216    15.994914619570
         O           -2.121852809055    -0.527382842444     1.094872150784    15.994914619570
         O           -2.388098809055     0.186959157556    -1.049466849216    15.994914619570
         C            2.107905190945     0.713074157556     0.157934150784    12.000000000000
         C            0.746795190945     0.063859157556    -0.024823349216    12.000000000000
         C           -0.462543809055     0.912981157556     0.175522150784    12.000000000000
         C            3.304712890945    -0.211421742444    -0.021012349216    12.000000000000
         C           -1.785862809055     0.124752157556     0.062979150784    12.000000000000
         H            2.158163190945     1.544893157556    -0.557123849216     1.007825032230
         H            2.121216190945     1.178600157556     1.150753150784     1.007825032230
         H           -0.381547809055     1.383068157556     1.163879150784     1.007825032230
         H           -0.420081809055     1.719027157556    -0.568771849216     1.007825032230
         H            3.255146190945    -1.042660842444     0.705130150784     1.007825032230
         H            3.276592190945    -0.678333842444    -1.022231849216     1.007825032230
         H            4.231232190945     0.306810157556     0.100322150784     1.007825032230

  Basis Set: AUG-CC-PVTZ
    Blend: AUG-CC-PVTZ
  Basis Set: (AUG-CC-PVTZ AUX)
    Blend: AUG-CC-PVTZ-JKFIT
	 Reference Energy          =    -418.1910515051147286 [Eh]
	 Singles Energy            =      -0.0000000000000000 [Eh]
	 Same-Spin Energy          =      -0.4169742164630522 [Eh]
	 Opposite-Spin Energy      =      -1.2940925990644550 [Eh]
	 Correlation Energy        =      -1.7110668155275071 [Eh]
	 Total Energy              =    -419.9021183206422165 [Eh]

	 ================> DF-SCS-MP2 Energies <==================
	-----------------------------------------------------------
	 SCS Same-Spin Scale       =       0.3333333333333333 [-]
	 SCS Opposite-Spin Scale   =       1.2000000000000000 [-]
	 SCS Same-Spin Energy      =      -0.1389914054876841 [Eh]
	 SCS Opposite-Spin Energy  =      -1.5529111188773459 [Eh]
	 SCS Correlation Energy    =      -1.6919025243650299 [Eh]
	 SCS Total Energy          =    -419.8829540294797766 [Eh]
	-----------------------------------------------------------

  Dipole Moment: [D]
     X:     9.9189      Y:     3.5767      Z:     0.6637     Total:    10.5650

*** Psi4 exiting successfully. Buy a developer a beer!
