                               Psi4 1.3.2 release

  ==> Input File <==

--------------------------------------------------------------------------
#psi4
#
memory 32 gb

molecule  {
-1 1
  O        0.5632720    -1.1719080    -0.3765930
  O       -2.2370500    -0.5589400     1.0879600
  O       -2.5032960     0.1554020    -1.0563790
  C        1.9927080     0.6815170     0.1510220
  C        0.5547413    -0.0350986    -0.0490376
  C       -0.5777410     0.8814240     0.1686100
  C        3.1729130    -0.2631210    -0.0329300
  C       -1.9010600     0.0931950     0.0560670
  H        2.0429660     1.5133360    -0.5640360
  H        2.0060190     1.1470430     1.1438410
  H       -0.4967450     1.3515110     1.1569670
  H       -0.5352790     1.6874700    -0.5756840
  H        3.1399490    -1.0742180     0.6982180
  H        3.1613950    -0.7098910    -1.0291440
  H        4.1160350     0.2752530     0.0934100
units angstrom
no_reorient  #important for SAPT in psi4, default
symmetry c1  #important for SAPT in psi4, default
}

set PROPERTIES_ORIGIN ["COM"]
properties('MP2/aug-cc-pvtz', properties = ['dipole'])
--------------------------------------------------------------------------

    Molecular point group: c1
  Charge       = -1
  Multiplicity = 1
  Basis Set: AUG-CC-PVTZ
    Blend: AUG-CC-PVTZ
  Basis Set: (AUG-CC-PVTZ AUX)
    Blend: AUG-CC-PVTZ-JKFIT

    Orbital Energies [Eh]
    ---------------------

    Doubly Occupied:

       1A    -20.414592     2A    -20.299176     3A    -20.297759
       4A    -11.198213     5A    -11.148194     6A    -11.122233
       7A    -11.115616     8A    -11.082949     9A     -1.273747
      10A     -1.167382    11A     -1.067081    12A     -0.933481
      13A     -0.877575    14A     -0.750895    15A     -0.609444
      16A     -0.545368    17A     -0.531167    18A     -0.517267
      19A     -0.481671    20A     -0.460928    21A     -0.442005
      22A     -0.408567    23A     -0.405777    24A     -0.400794
      25A     -0.379878    26A     -0.362251    27A     -0.340306
      28A     -0.272181    29A     -0.213246    30A     -0.206099
      31A     -0.195760

  @DF-RHF Final Energy:  -418.19272346648791

   => Energetics <=

    Nuclear Repulsion Energy =            357.4137749290035799
    One-Electron Energy =               -1292.1697895216043435
    Two-Electron Energy =                 516.5632911261128584
    Total Energy =                       -418.1927234664879052
  Basis Set: (AUG-CC-PVTZ AUX)
    Blend: AUG-CC-PVTZ-RI
    Molecular point group: c1

    Geometry (in Angstrom), charge = -1, multiplicity = 1:

       Center              X                  Y                   Z               Mass
    ------------   -----------------  -----------------  -----------------  -----------------
         O            0.688218125997    -1.131219090083    -0.367353899293    15.994914619570
         O           -2.112103874003    -0.518251090083     1.097199100707    15.994914619570
         O           -2.378349874003     0.196090909917    -1.047139899293    15.994914619570
         C            2.117654125997     0.722205909917     0.160261100707    12.000000000000
         C            0.679687425997     0.005590309917    -0.039798499293    12.000000000000
         C           -0.452794874003     0.922112909917     0.177849100707    12.000000000000
         C            3.297859125997    -0.222432090083    -0.023690899293    12.000000000000
         C           -1.776113874003     0.133883909917     0.065306100707    12.000000000000
         H            2.167912125997     1.554024909917    -0.554796899293     1.007825032230
         H            2.130965125997     1.187731909917     1.153080100707     1.007825032230
         H           -0.371798874003     1.392199909917     1.166206100707     1.007825032230
         H           -0.410332874003     1.728158909917    -0.566444899293     1.007825032230
         H            3.264895125997    -1.033529090083     0.707457100707     1.007825032230
         H            3.286341125997    -0.669202090083    -1.019904899293     1.007825032230
         H            4.240981125997     0.315941909917     0.102649100707     1.007825032230

  Basis Set: AUG-CC-PVTZ
    Blend: AUG-CC-PVTZ
  Basis Set: (AUG-CC-PVTZ AUX)
    Blend: AUG-CC-PVTZ-JKFIT
	 Reference Energy          =    -418.1927234664879052 [Eh]
	 Singles Energy            =      -0.0000000000000000 [Eh]
	 Same-Spin Energy          =      -0.4153105010370352 [Eh]
	 Opposite-Spin Energy      =      -1.2904927657131797 [Eh]
	 Correlation Energy        =      -1.7058032667502150 [Eh]
	 Total Energy              =    -419.8985267332381000 [Eh]

	 ================> DF-SCS-MP2 Energies <==================
	-----------------------------------------------------------
	 SCS Same-Spin Scale       =       0.3333333333333333 [-]
	 SCS Opposite-Spin Scale   =       1.2000000000000000 [-]
	 SCS Same-Spin Energy      =      -0.1384368336790117 [Eh]
	 SCS Opposite-Spin Energy  =      -1.5485913188558156 [Eh]
	 SCS Correlation Energy    =      -1.6870281525348272 [Eh]
	 SCS Total Energy          =    -419.8797516190227270 [Eh]
	-----------------------------------------------------------

  Dipole Moment: [D]
     X:     9.3977      Y:     3.2549      Z:     0.5733     Total:     9.9619

*** Psi4 exiting successfully. Buy a developer a beer!
