                               Psi4 1.3.2 release

  ==> Input File <==

--------------------------------------------------------------------------
#psi4
#
memory 32 gb

molecule  {
-1 1
  O        0.5847207    -1.1732784    -0.3762179
  O       -2.2370500    -0.5589400     1.0879600
  O       -2.5032960     0.1554020    -1.0563790
  C        1.9927080     0.6815170     0.1510220
  C        0.6435570     0.0091630    -0.0366810
  C       -0.5619424     0.9016524     0.1749470
  C        3.1729130    -0.2631210    -0.0329300
  C       -1.9010600     0.0931950     0.0560670
  H        2.0429660     1.5133360    -0.5640360
  H        2.0060190     1.1470430     1.1438410
  H       -0.4967450     1.3515110     1.1569670
  H       -0.5352790     1.6874700    -0.5756840
  H        3.1399490    -1.0742180     0.6982180
  H        3.1613950    -0.7098910    -1.0291440
  H        4.1160350     0.2752530     0.0934100
units angstrom
no_reorient  #important for SAPT in psi4, default
symmetry c1  #important for SAPT in psi4, default
}

set PROPERTIES_ORIGIN ["COM"]
properties('MP2/aug-cc-pvtz', properties = ['dipole'])
--------------------------------------------------------------------------

    Molecular point group: c1
  Charge       = -1
  Multiplicity = 1
  Basis Set: AUG-CC-PVTZ
    Blend: AUG-CC-PVTZ
  Basis Set: (AUG-CC-PVTZ AUX)
    Blend: AUG-CC-PVTZ-JKFIT

    Orbital Energies [Eh]
    ---------------------

    Doubly Occupied:

       1A    -20.410897     2A    -20.297623     3A    -20.295857
       4A    -11.200201     5A    -11.148528     6A    -11.128243
       7A    -11.119545     8A    -11.081919     9A     -1.239747
      10A     -1.164115    11A     -1.064717    12A     -0.948826
      13A     -0.868617    14A     -0.765264    15A     -0.610220
      16A     -0.535935    17A     -0.529749    18A     -0.525787
      19A     -0.472665    20A     -0.458069    21A     -0.438528
      22A     -0.408738    23A     -0.406964    24A     -0.402786
      25A     -0.378886    26A     -0.349025    27A     -0.337555
      28A     -0.281005    29A     -0.211426    30A     -0.205138
      31A     -0.193533

  @DF-RHF Final Energy:  -418.19526031706062

   => Energetics <=

    Nuclear Repulsion Energy =            356.3376017296584450
    One-Electron Energy =               -1290.1055124876365880
    Two-Electron Energy =                 515.5726504409175277
    Total Energy =                       -418.1952603170606153
  Basis Set: (AUG-CC-PVTZ AUX)
    Blend: AUG-CC-PVTZ-RI
    Molecular point group: c1

    Geometry (in Angstrom), charge = -1, multiplicity = 1:

       Center              X                  Y                   Z               Mass
    ------------   -----------------  -----------------  -----------------  -----------------
         O            0.695772107574    -1.139126031395    -0.368980919037    15.994914619570
         O           -2.125998592426    -0.524787631395     1.095196980963    15.994914619570
         O           -2.392244592426     0.189554368605    -1.049142019037    15.994914619570
         C            2.103759407574     0.715669368605     0.158258980963    12.000000000000
         C            0.754608407574     0.043315368605    -0.029444019037    12.000000000000
         C           -0.450890992426     0.935804768605     0.182183980963    12.000000000000
         C            3.283964407574    -0.228968631395    -0.025693019037    12.000000000000
         C           -1.790008592426     0.127347368605     0.063303980963    12.000000000000
         H            2.154017407574     1.547488368605    -0.556799019037     1.007825032230
         H            2.117070407574     1.181195368605     1.151077980963     1.007825032230
         H           -0.385693592426     1.385663368605     1.164203980963     1.007825032230
         H           -0.424227592426     1.721622368605    -0.568447019037     1.007825032230
         H            3.251000407574    -1.040065631395     0.705454980963     1.007825032230
         H            3.272446407574    -0.675738631395    -1.021907019037     1.007825032230
         H            4.227086407574     0.309405368605     0.100646980963     1.007825032230

  Basis Set: AUG-CC-PVTZ
    Blend: AUG-CC-PVTZ
  Basis Set: (AUG-CC-PVTZ AUX)
    Blend: AUG-CC-PVTZ-JKFIT
	 Reference Energy          =    -418.1952603170606153 [Eh]
	 Singles Energy            =      -0.0000000000000000 [Eh]
	 Same-Spin Energy          =      -0.4161762238107923 [Eh]
	 Opposite-Spin Energy      =      -1.2924920373447013 [Eh]
	 Correlation Energy        =      -1.7086682611554935 [Eh]
	 Total Energy              =    -419.9039285782160960 [Eh]

	 ================> DF-SCS-MP2 Energies <==================
	-----------------------------------------------------------
	 SCS Same-Spin Scale       =       0.3333333333333333 [-]
	 SCS Opposite-Spin Scale   =       1.2000000000000000 [-]
	 SCS Same-Spin Energy      =      -0.1387254079369308 [Eh]
	 SCS Opposite-Spin Energy  =      -1.5509904448136416 [Eh]
	 SCS Correlation Energy    =      -1.6897158527505725 [Eh]
	 SCS Total Energy          =    -419.8849761698111820 [Eh]
	-----------------------------------------------------------

  Dipole Moment: [D]
     X:     9.8923      Y:     3.4567      Z:     0.6361     Total:    10.4982

*** Psi4 exiting successfully. Buy a developer a beer!
