                               Psi4 1.3.2 release

  ==> Input File <==

--------------------------------------------------------------------------
#psi4
#
memory 32 gb

molecule  {
-1 1
  O        0.5632720    -1.1719080    -0.3765930
  O       -2.2370500    -0.5589400     1.0879600
  O       -2.5032960     0.1554020    -1.0563790
  C        1.9927080     0.6815170     0.1510220
  C        0.6435570     0.0091630    -0.0366810
  C       -0.5777410     0.8814240     0.1686100
  C        3.1729130    -0.2631210    -0.0329300
  C       -1.9042283     0.0968325     0.0686514
  H        2.0429660     1.5133360    -0.5640360
  H        2.0060190     1.1470430     1.1438410
  H       -0.5052375     1.3478006     1.1593813
  H       -0.5352790     1.6874700    -0.5756840
  H        3.1399490    -1.0742180     0.6982180
  H        3.1613950    -0.7098910    -1.0291440
  H        4.1160350     0.2752530     0.0934100
units angstrom
no_reorient  #important for SAPT in psi4, default
symmetry c1  #important for SAPT in psi4, default
}

set PROPERTIES_ORIGIN ["COM"]
properties('MP2/aug-cc-pvtz', properties = ['dipole'])
--------------------------------------------------------------------------

    Molecular point group: c1
  Charge       = -1
  Multiplicity = 1
  Basis Set: AUG-CC-PVTZ
    Blend: AUG-CC-PVTZ
  Basis Set: (AUG-CC-PVTZ AUX)
    Blend: AUG-CC-PVTZ-JKFIT

    Orbital Energies [Eh]
    ---------------------

    Doubly Occupied:

       1A    -20.410258     2A    -20.297217     3A    -20.293996
       4A    -11.200199     5A    -11.146058     6A    -11.130322
       7A    -11.120912     8A    -11.082783     9A     -1.239494
      10A     -1.164396    11A     -1.063482    12A     -0.949851
      13A     -0.867971    14A     -0.766992    15A     -0.611955
      16A     -0.538035    17A     -0.529941    18A     -0.526335
      19A     -0.471259    20A     -0.454916    21A     -0.439391
      22A     -0.410705    23A     -0.407809    24A     -0.403436
      25A     -0.377162    26A     -0.347109    27A     -0.335892
      28A     -0.280307    29A     -0.210575    30A     -0.206637
      31A     -0.192402

  @DF-RHF Final Energy:  -418.19528050027543

   => Energetics <=

    Nuclear Repulsion Energy =            356.6758565313398890
    One-Electron Energy =               -1290.7866831557323621
    Two-Electron Energy =                 515.9155461241170997
    Total Energy =                       -418.1952805002754303
  Basis Set: (AUG-CC-PVTZ AUX)
    Blend: AUG-CC-PVTZ-RI
    Molecular point group: c1

    Geometry (in Angstrom), charge = -1, multiplicity = 1:

       Center              X                  Y                   Z               Mass
    ------------   -----------------  -----------------  -----------------  -----------------
         O            0.679358476252    -1.136183034392    -0.369976695306    15.994914619570
         O           -2.120963523748    -0.523215034392     1.094576304694    15.994914619570
         O           -2.387209523748     0.191126965608    -1.049762695306    15.994914619570
         C            2.108794476252     0.717241965608     0.157638304694    12.000000000000
         C            0.759643476252     0.044887965608    -0.030064695306    12.000000000000
         C           -0.461654523748     0.917148965608     0.175226304694    12.000000000000
         C            3.288999476252    -0.227396034392    -0.026313695306    12.000000000000
         C           -1.788141823748     0.132557465608     0.075267704694    12.000000000000
         H            2.159052476252     1.549060965608    -0.557419695306     1.007825032230
         H            2.122105476252     1.182767965608     1.150457304694     1.007825032230
         H           -0.389151023748     1.383525565608     1.165997604694     1.007825032230
         H           -0.419192523748     1.723194965608    -0.569067695306     1.007825032230
         H            3.256035476252    -1.038493034392     0.704834304694     1.007825032230
         H            3.277481476252    -0.674166034392    -1.022527695306     1.007825032230
         H            4.232121476252     0.310977965608     0.100026304694     1.007825032230

  Basis Set: AUG-CC-PVTZ
    Blend: AUG-CC-PVTZ
  Basis Set: (AUG-CC-PVTZ AUX)
    Blend: AUG-CC-PVTZ-JKFIT
	 Reference Energy          =    -418.1952805002754303 [Eh]
	 Singles Energy            =      -0.0000000000000000 [Eh]
	 Same-Spin Energy          =      -0.4162014817482511 [Eh]
	 Opposite-Spin Energy      =      -1.2925764807792661 [Eh]
	 Correlation Energy        =      -1.7087779625275172 [Eh]
	 Total Energy              =    -419.9040584628029364 [Eh]

	 ================> DF-SCS-MP2 Energies <==================
	-----------------------------------------------------------
	 SCS Same-Spin Scale       =       0.3333333333333333 [-]
	 SCS Opposite-Spin Scale   =       1.2000000000000000 [-]
	 SCS Same-Spin Energy      =      -0.1387338272494170 [Eh]
	 SCS Opposite-Spin Energy  =      -1.5510917769351193 [Eh]
	 SCS Correlation Energy    =      -1.6898256041845363 [Eh]
	 SCS Total Energy          =    -419.8851061044599646 [Eh]
	-----------------------------------------------------------

  Dipole Moment: [D]
     X:    10.0016      Y:     3.4250      Z:     0.7396     Total:    10.5976

*** Psi4 exiting successfully. Buy a developer a beer!
