                               Psi4 1.4a3.dev225

  ==> Input File <==

--------------------------------------------------------------------------
#psi4
#
memory 32 gb

molecule  {
-1 1
  O        1.0745520     1.3418620    -0.8745480
  O       -1.1230780    -1.1034960    -0.8170800
  O       -2.9206860    -0.1812610     0.2330210
  C        1.4738630    -0.3704550     0.7611780
  C        0.6286860     0.6706690     0.0605170
  C       -0.7798250     0.8397660     0.5534010
  C        2.7202340    -0.7612590    -0.0182770
  C       -1.7297087    -0.2917583    -0.0911265
  H        1.7414500     0.0432240     1.7443780
  H        0.8355880    -1.2371210     0.9565080
  H       -0.8294850     0.7587360     1.6458800
  H       -1.1523820     1.8284630     0.2671350
  H        2.4446610    -1.1885100    -0.9860420
  H        3.3521650     0.1095510    -0.2043800
  H        3.3054110    -1.5035610     0.5312540
units angstrom
no_reorient  #important for SAPT in psi4, default
symmetry c1  #important for SAPT in psi4, default
}

set PROPERTIES_ORIGIN ["COM"]
properties('MP2/aug-cc-pvtz', properties = ['dipole'])
--------------------------------------------------------------------------

    Molecular point group: c1
  Charge       = -1
  Multiplicity = 1
  Basis Set: AUG-CC-PVTZ
    Blend: AUG-CC-PVTZ
  Basis Set: (AUG-CC-PVTZ AUX)
    Blend: AUG-CC-PVTZ-JKFIT

    Orbital Energies [Eh]
    ---------------------

    Doubly Occupied:

       1A    -20.396270     2A    -20.317048     3A    -20.315412
       4A    -11.185464     5A    -11.165564     6A    -11.105698
       7A    -11.100836     8A    -11.073722     9A     -1.226868
      10A     -1.196686    11A     -1.102518    12A     -0.929776
      13A     -0.853136    14A     -0.747890    15A     -0.595543
      16A     -0.541367    17A     -0.509675    18A     -0.503109
      19A     -0.476850    20A     -0.451030    21A     -0.438897
      22A     -0.417895    23A     -0.398475    24A     -0.389770
      25A     -0.377157    26A     -0.351139    27A     -0.340933
      28A     -0.273824    29A     -0.236940    30A     -0.220121
      31A     -0.207962

  @DF-RHF Final Energy:  -418.21130907689076

   => Energetics <=

    Nuclear Repulsion Energy =            362.4995779978808628
    One-Electron Energy =               -1302.5266157177518380
    Two-Electron Energy =                 521.8157286429802753
    Total Energy =                       -418.2113090768907568
  Basis Set: (AUG-CC-PVTZ AUX)
    Blend: AUG-CC-PVTZ-RI
    Molecular point group: c1

    Geometry (in Angstrom), charge = -1, multiplicity = 1:

       Center              X                  Y                   Z               Mass
    ------------   -----------------  -----------------  -----------------  -----------------
         O            1.161131032810     1.335269323534    -0.838418628560    15.994914619570
         O           -1.036498967190    -1.110088676466    -0.780950628560    15.994914619570
         O           -2.834106967190    -0.187853676466     0.269150371440    15.994914619570
         C            1.560442032810    -0.377047676466     0.797307371440    12.000000000000
         C            0.715265032810     0.664076323534     0.096646371440    12.000000000000
         C           -0.693245967190     0.833173323534     0.589530371440    12.000000000000
         C            2.806813032810    -0.767851676466     0.017852371440    12.000000000000
         C           -1.643129667190    -0.298350976466    -0.054997128560    12.000000000000
         H            1.828029032810     0.036631323534     1.780507371440     1.007825032230
         H            0.922167032810    -1.243713676466     0.992637371440     1.007825032230
         H           -0.742905967190     0.752143323534     1.682009371440     1.007825032230
         H           -1.065802967190     1.821870323534     0.303264371440     1.007825032230
         H            2.531240032810    -1.195102676466    -0.949912628560     1.007825032230
         H            3.438744032810     0.102958323534    -0.168250628560     1.007825032230
         H            3.391990032810    -1.510153676466     0.567383371440     1.007825032230

  Basis Set: AUG-CC-PVTZ
    Blend: AUG-CC-PVTZ
  Basis Set: (AUG-CC-PVTZ AUX)
    Blend: AUG-CC-PVTZ-JKFIT
	 Reference Energy          =    -418.2113090768907568 [Eh]
	 Singles Energy            =      -0.0000000000000000 [Eh]
	 Same-Spin Energy          =      -0.4161850410751201 [Eh]
	 Opposite-Spin Energy      =      -1.2906822006124916 [Eh]
	 Correlation Energy        =      -1.7068672416876116 [Eh]
	 Total Energy              =    -419.9181763185783893 [Eh]

	 ================> DF-SCS-MP2 Energies <==================
	-----------------------------------------------------------
	 SCS Same-Spin Scale       =       0.3333333333333333 [-]
	 SCS Opposite-Spin Scale   =       1.2000000000000000 [-]
	 SCS Same-Spin Energy      =      -0.1387283470250400 [Eh]
	 SCS Opposite-Spin Energy  =      -1.5488186407349900 [Eh]
	 SCS Correlation Energy    =      -1.6875469877600300 [Eh]
	 SCS Total Energy          =    -419.8988560646507722 [Eh]
	-----------------------------------------------------------

  Dipole Moment: [D]
     X:     6.4066      Y:     1.0030      Z:     3.0715     Total:     7.1753

*** Psi4 exiting successfully. Buy a developer a beer!
