                               Psi4 1.3.2 release

  ==> Input File <==

--------------------------------------------------------------------------
#psi4
#
memory 32 gb

molecule  {
-1 1
  O        0.5632720    -1.1719080    -0.3765930
  O       -2.2370500    -0.5589400     1.0879600
  O       -2.5032960     0.1554020    -1.0563790
  C        1.9927080     0.6815170     0.1510220
  C        0.6473942     0.0169771    -0.0466286
  C       -0.5777410     0.8814240     0.1686100
  C        3.1729130    -0.2631210    -0.0329300
  C       -1.9010600     0.0931950     0.0560670
  H        2.0429660     1.5133360    -0.5640360
  H        2.0060190     1.1470430     1.1438410
  H       -0.4967450     1.3515110     1.1569670
  H       -0.5270671     1.6838658    -0.5790570
  H        3.1399490    -1.0742180     0.6982180
  H        3.1613950    -0.7098910    -1.0291440
  H        4.1160350     0.2752530     0.0934100
units angstrom
no_reorient  #important for SAPT in psi4, default
symmetry c1  #important for SAPT in psi4, default
}

set PROPERTIES_ORIGIN ["COM"]
properties('MP2/aug-cc-pvtz', properties = ['dipole'])
--------------------------------------------------------------------------

    Molecular point group: c1
  Charge       = -1
  Multiplicity = 1
  Basis Set: AUG-CC-PVTZ
    Blend: AUG-CC-PVTZ
  Basis Set: (AUG-CC-PVTZ AUX)
    Blend: AUG-CC-PVTZ-JKFIT

    Orbital Energies [Eh]
    ---------------------

    Doubly Occupied:

       1A    -20.409628     2A    -20.296421     3A    -20.294718
       4A    -11.200277     5A    -11.146343     6A    -11.130658
       7A    -11.121154     8A    -11.083145     9A     -1.236046
      10A     -1.163834    11A     -1.063972    12A     -0.950922
      13A     -0.868403    14A     -0.767880    15A     -0.611816
      16A     -0.538485    17A     -0.529339    18A     -0.526827
      19A     -0.470203    20A     -0.454923    21A     -0.439264
      22A     -0.411171    23A     -0.407464    24A     -0.403643
      25A     -0.377100    26A     -0.345020    27A     -0.335773
      28A     -0.280602    29A     -0.210266    30A     -0.207402
      31A     -0.192442

  @DF-RHF Final Energy:  -418.19477054324057

   => Energetics <=

    Nuclear Repulsion Energy =            356.6682898376079152
    One-Electron Energy =               -1290.7758406629018282
    Two-Electron Energy =                 515.9127802820532906
    Total Energy =                       -418.1947705432405655
  Basis Set: (AUG-CC-PVTZ AUX)
    Blend: AUG-CC-PVTZ-RI
    Molecular point group: c1

    Geometry (in Angstrom), charge = -1, multiplicity = 1:

       Center              X                  Y                   Z               Mass
    ------------   -----------------  -----------------  -----------------  -----------------
         O            0.678481376684    -1.136619634192    -0.367575637061    15.994914619570
         O           -2.121840623316    -0.523651634192     1.096977362939    15.994914619570
         O           -2.388086623316     0.190690365808    -1.047361637061    15.994914619570
         C            2.107917376684     0.716805365808     0.160039362939    12.000000000000
         C            0.762603576684     0.052265465808    -0.037611237061    12.000000000000
         C           -0.462531623316     0.916712365808     0.177627362939    12.000000000000
         C            3.288122376684    -0.227832634192    -0.023912637061    12.000000000000
         C           -1.785850623316     0.128483365808     0.065084362939    12.000000000000
         H            2.158175376684     1.548624365808    -0.555018637061     1.007825032230
         H            2.121228376684     1.182331365808     1.152858362939     1.007825032230
         H           -0.381535623316     1.386799365808     1.165984362939     1.007825032230
         H           -0.411857723316     1.719154165808    -0.570039637061     1.007825032230
         H            3.255158376684    -1.038929634192     0.707235362939     1.007825032230
         H            3.276604376684    -0.674602634192    -1.020126637061     1.007825032230
         H            4.231244376684     0.310541365808     0.102427362939     1.007825032230

  Basis Set: AUG-CC-PVTZ
    Blend: AUG-CC-PVTZ
  Basis Set: (AUG-CC-PVTZ AUX)
    Blend: AUG-CC-PVTZ-JKFIT
	 Reference Energy          =    -418.1947705432405655 [Eh]
	 Singles Energy            =      -0.0000000000000000 [Eh]
	 Same-Spin Energy          =      -0.4163563329102022 [Eh]
	 Opposite-Spin Energy      =      -1.2928581841744533 [Eh]
	 Correlation Energy        =      -1.7092145170846555 [Eh]
	 Total Energy              =    -419.9039850603252262 [Eh]

	 ================> DF-SCS-MP2 Energies <==================
	-----------------------------------------------------------
	 SCS Same-Spin Scale       =       0.3333333333333333 [-]
	 SCS Opposite-Spin Scale   =       1.2000000000000000 [-]
	 SCS Same-Spin Energy      =      -0.1387854443034007 [Eh]
	 SCS Opposite-Spin Energy  =      -1.5514298210093440 [Eh]
	 SCS Correlation Energy    =      -1.6902152653127447 [Eh]
	 SCS Total Energy          =    -419.8849858085533242 [Eh]
	-----------------------------------------------------------

  Dipole Moment: [D]
     X:    10.0117      Y:     3.4799      Z:     0.6312     Total:    10.6181

*** Psi4 exiting successfully. Buy a developer a beer!
