                               Psi4 1.3.2 release

  ==> Input File <==

--------------------------------------------------------------------------
#psi4
#
memory 32 gb

molecule  {
-1 1
  O        0.5632720    -1.1719080    -0.3765930
  O       -2.2732017    -0.5726661     1.0665679
  O       -2.5032960     0.1554020    -1.0563790
  C        1.9927080     0.6815170     0.1510220
  C        0.6435570     0.0091630    -0.0366810
  C       -0.5847485     0.8985732     0.1179866
  C        3.1729130    -0.2631210    -0.0329300
  C       -1.9010600     0.0931950     0.0560670
  H        2.0429660     1.5133360    -0.5640360
  H        2.0060190     1.1470430     1.1438410
  H       -0.4967450     1.3515110     1.1569670
  H       -0.5352790     1.6874700    -0.5756840
  H        3.1399490    -1.0742180     0.6982180
  H        3.1613950    -0.7098910    -1.0291440
  H        4.1160350     0.2752530     0.0934100
units angstrom
no_reorient  #important for SAPT in psi4, default
symmetry c1  #important for SAPT in psi4, default
}

set PROPERTIES_ORIGIN ["COM"]
properties('MP2/aug-cc-pvtz', properties = ['dipole'])
--------------------------------------------------------------------------

    Molecular point group: c1
  Charge       = -1
  Multiplicity = 1
  Basis Set: AUG-CC-PVTZ
    Blend: AUG-CC-PVTZ
  Basis Set: (AUG-CC-PVTZ AUX)
    Blend: AUG-CC-PVTZ-JKFIT

    Orbital Energies [Eh]
    ---------------------

    Doubly Occupied:

       1A    -20.411608     2A    -20.294367     3A    -20.292670
       4A    -11.201711     5A    -11.145267     6A    -11.131316
       7A    -11.121579     8A    -11.085438     9A     -1.240537
      10A     -1.163599    11A     -1.060179    12A     -0.950557
      13A     -0.868898    14A     -0.768265    15A     -0.612280
      16A     -0.540131    17A     -0.531205    18A     -0.526362
      19A     -0.474716    20A     -0.454079    21A     -0.439270
      22A     -0.411443    23A     -0.408432    24A     -0.403390
      25A     -0.375800    26A     -0.349634    27A     -0.333705
      28A     -0.280381    29A     -0.209609    30A     -0.205562
      31A     -0.190003

  @DF-RHF Final Energy:  -418.19140133923997

   => Energetics <=

    Nuclear Repulsion Energy =            356.3529226391820544
    One-Electron Energy =               -1290.1246616430203176
    Two-Electron Energy =                 515.5803376645983462
    Total Energy =                       -418.1914013392399738
  Basis Set: (AUG-CC-PVTZ AUX)
    Blend: AUG-CC-PVTZ-RI
    Molecular point group: c1

    Geometry (in Angstrom), charge = -1, multiplicity = 1:

       Center              X                  Y                   Z               Mass
    ------------   -----------------  -----------------  -----------------  -----------------
         O            0.684711026451    -1.135716516764    -0.360387889531    15.994914619570
         O           -2.151762673549    -0.536474616764     1.082773010469    15.994914619570
         O           -2.381856973549     0.191593483236    -1.040173889531    15.994914619570
         C            2.114147026451     0.717708483236     0.167227110469    12.000000000000
         C            0.764996026451     0.045354483236    -0.020475889531    12.000000000000
         C           -0.463309473549     0.934764683236     0.134191710469    12.000000000000
         C            3.294352026451    -0.226929516764    -0.016724889531    12.000000000000
         C           -1.779620973549     0.129386483236     0.072272110469    12.000000000000
         H            2.164405026451     1.549527483236    -0.547830889531     1.007825032230
         H            2.127458026451     1.183234483236     1.160046110469     1.007825032230
         H           -0.375305973549     1.387702483236     1.173172110469     1.007825032230
         H           -0.413839973549     1.723661483236    -0.559478889531     1.007825032230
         H            3.261388026451    -1.038026516764     0.714423110469     1.007825032230
         H            3.282834026451    -0.673699516764    -1.012938889531     1.007825032230
         H            4.237474026451     0.311444483236     0.109615110469     1.007825032230

  Basis Set: AUG-CC-PVTZ
    Blend: AUG-CC-PVTZ
  Basis Set: (AUG-CC-PVTZ AUX)
    Blend: AUG-CC-PVTZ-JKFIT
	 Reference Energy          =    -418.1914013392399738 [Eh]
	 Singles Energy            =      -0.0000000000000000 [Eh]
	 Same-Spin Energy          =      -0.4161508390987935 [Eh]
	 Opposite-Spin Energy      =      -1.2926254332625127 [Eh]
	 Correlation Energy        =      -1.7087762723613062 [Eh]
	 Total Energy              =    -419.9001776116012934 [Eh]

	 ================> DF-SCS-MP2 Energies <==================
	-----------------------------------------------------------
	 SCS Same-Spin Scale       =       0.3333333333333333 [-]
	 SCS Opposite-Spin Scale   =       1.2000000000000000 [-]
	 SCS Same-Spin Energy      =      -0.1387169463662645 [Eh]
	 SCS Opposite-Spin Energy  =      -1.5511505199150151 [Eh]
	 SCS Correlation Energy    =      -1.6898674662812796 [Eh]
	 SCS Total Energy          =    -419.8812688055212448 [Eh]
	-----------------------------------------------------------

  Dipole Moment: [D]
     X:    10.1253      Y:     3.4989      Z:     0.6045     Total:    10.7298

*** Psi4 exiting successfully. Buy a developer a beer!
