                               Psi4 1.3.2 release

  ==> Input File <==

--------------------------------------------------------------------------
#psi4
#
memory 32 gb

molecule  {
-1 1
  O        0.5204544    -1.1680885    -0.3770326
  O       -2.2370500    -0.5589400     1.0879600
  O       -2.5032960     0.1554020    -1.0563790
  C        1.9927080     0.6815170     0.1510220
  C        0.6435570     0.0091630    -0.0366810
  C       -0.6082175     0.8401763     0.1557504
  C        3.1729130    -0.2631210    -0.0329300
  C       -1.9010600     0.0931950     0.0560670
  H        2.0429660     1.5133360    -0.5640360
  H        2.0060190     1.1470430     1.1438410
  H       -0.4967450     1.3515110     1.1569670
  H       -0.5352790     1.6874700    -0.5756840
  H        3.1399490    -1.0742180     0.6982180
  H        3.1613950    -0.7098910    -1.0291440
  H        4.1160350     0.2752530     0.0934100
units angstrom
no_reorient  #important for SAPT in psi4, default
symmetry c1  #important for SAPT in psi4, default
}

set PROPERTIES_ORIGIN ["COM"]
properties('MP2/aug-cc-pvtz', properties = ['dipole'])
--------------------------------------------------------------------------

    Molecular point group: c1
  Charge       = -1
  Multiplicity = 1
  Basis Set: AUG-CC-PVTZ
    Blend: AUG-CC-PVTZ
  Basis Set: (AUG-CC-PVTZ AUX)
    Blend: AUG-CC-PVTZ-JKFIT

    Orbital Energies [Eh]
    ---------------------

    Doubly Occupied:

       1A    -20.408679     2A    -20.294491     3A    -20.292590
       4A    -11.199958     5A    -11.141569     6A    -11.134199
       7A    -11.123449     8A    -11.085143     9A     -1.239178
      10A     -1.163866    11A     -1.062853    12A     -0.951884
      13A     -0.867038    14A     -0.770417    15A     -0.615729
      16A     -0.543369    17A     -0.529726    18A     -0.527534
      19A     -0.468402    20A     -0.448968    21A     -0.441391
      22A     -0.414700    23A     -0.409287    24A     -0.404590
      25A     -0.374164    26A     -0.341656    27A     -0.332139
      28A     -0.277991    29A     -0.210755    30A     -0.207978
      31A     -0.190690

  @DF-RHF Final Energy:  -418.19093290023784

   => Energetics <=

    Nuclear Repulsion Energy =            357.5111879071300791
    One-Electron Energy =               -1292.4554750376323682
    Two-Electron Energy =                 516.7533542302644491
    Total Energy =                       -418.1909329002378399
  Basis Set: (AUG-CC-PVTZ AUX)
    Blend: AUG-CC-PVTZ-RI
    Molecular point group: c1

    Geometry (in Angstrom), charge = -1, multiplicity = 1:

       Center              X                  Y                   Z               Mass
    ------------   -----------------  -----------------  -----------------  -----------------
         O            0.645268340606    -1.128245033259    -0.367679909072    15.994914619570
         O           -2.112236059394    -0.519096533259     1.097312690928    15.994914619570
         O           -2.378482059394     0.195245466741    -1.047026309072    15.994914619570
         C            2.117521940606     0.721360466741     0.160374690928    12.000000000000
         C            0.768370940606     0.049006466741    -0.027328309072    12.000000000000
         C           -0.483403559394     0.880019766741     0.165103090928    12.000000000000
         C            3.297726940606    -0.223277533259    -0.023577309072    12.000000000000
         C           -1.776246059394     0.133038466741     0.065419690928    12.000000000000
         H            2.167779940606     1.553179466741    -0.554683309072     1.007825032230
         H            2.130832940606     1.186886466741     1.153193690928     1.007825032230
         H           -0.371931059394     1.391354466741     1.166319690928     1.007825032230
         H           -0.410465059394     1.727313466741    -0.566331309072     1.007825032230
         H            3.264762940606    -1.034374533259     0.707570690928     1.007825032230
         H            3.286208940606    -0.670047533259    -1.019791309072     1.007825032230
         H            4.240848940606     0.315096466741     0.102762690928     1.007825032230

  Basis Set: AUG-CC-PVTZ
    Blend: AUG-CC-PVTZ
  Basis Set: (AUG-CC-PVTZ AUX)
    Blend: AUG-CC-PVTZ-JKFIT
	 Reference Energy          =    -418.1909329002378399 [Eh]
	 Singles Energy            =      -0.0000000000000000 [Eh]
	 Same-Spin Energy          =      -0.4164792685976738 [Eh]
	 Opposite-Spin Energy      =      -1.2931198056210951 [Eh]
	 Correlation Energy        =      -1.7095990742187688 [Eh]
	 Total Energy              =    -419.9005319744566123 [Eh]

	 ================> DF-SCS-MP2 Energies <==================
	-----------------------------------------------------------
	 SCS Same-Spin Scale       =       0.3333333333333333 [-]
	 SCS Opposite-Spin Scale   =       1.2000000000000000 [-]
	 SCS Same-Spin Energy      =      -0.1388264228658913 [Eh]
	 SCS Opposite-Spin Energy  =      -1.5517437667453140 [Eh]
	 SCS Correlation Energy    =      -1.6905701896112053 [Eh]
	 SCS Total Energy          =    -419.8815030898490477 [Eh]
	-----------------------------------------------------------

  Dipole Moment: [D]
     X:    10.1676      Y:     3.4456      Z:     0.6222     Total:    10.7535

*** Psi4 exiting successfully. Buy a developer a beer!
