                               Psi4 1.3.2 release

  ==> Input File <==

--------------------------------------------------------------------------
#psi4
#
memory 32 gb

molecule  {
-1 1
  O        0.5632720    -1.1719080    -0.3765930
  O       -2.2370500    -0.5589400     1.0879600
  O       -2.5032960     0.1554020    -1.0563790
  C        1.9927080     0.6815170     0.1510220
  C        0.6435570     0.0091630    -0.0366810
  C       -0.5777410     0.8814240     0.1686100
  C        3.1729130    -0.2631210    -0.0329300
  C       -1.8799429     0.0726398    -0.0192262
  H        2.0429660     1.5133360    -0.5640360
  H        2.0060190     1.1470430     1.1438410
  H       -0.4459420     1.3730120     1.1409073
  H       -0.5352790     1.6874700    -0.5756840
  H        3.1399490    -1.0742180     0.6982180
  H        3.1613950    -0.7098910    -1.0291440
  H        4.1160350     0.2752530     0.0934100
units angstrom
no_reorient  #important for SAPT in psi4, default
symmetry c1  #important for SAPT in psi4, default
}

set PROPERTIES_ORIGIN ["COM"]
properties('MP2/aug-cc-pvtz', properties = ['dipole'])
--------------------------------------------------------------------------

    Molecular point group: c1
  Charge       = -1
  Multiplicity = 1
  Basis Set: AUG-CC-PVTZ
    Blend: AUG-CC-PVTZ
  Basis Set: (AUG-CC-PVTZ AUX)
    Blend: AUG-CC-PVTZ-JKFIT

    Orbital Energies [Eh]
    ---------------------

    Doubly Occupied:

       1A    -20.409908     2A    -20.311523     3A    -20.279732
       4A    -11.199317     5A    -11.146763     6A    -11.129965
       7A    -11.120660     8A    -11.083921     9A     -1.239604
      10A     -1.181151    11A     -1.048228    12A     -0.949818
      13A     -0.869001    14A     -0.766610    15A     -0.610655
      16A     -0.542029    17A     -0.529906    18A     -0.525883
      19A     -0.472347    20A     -0.452902    21A     -0.443787
      22A     -0.414730    23A     -0.407790    24A     -0.402549
      25A     -0.375679    26A     -0.345594    27A     -0.341887
      28A     -0.280508    29A     -0.214700    30A     -0.196790
      31A     -0.188210

  @DF-RHF Final Energy:  -418.18774711346668

   => Energetics <=

    Nuclear Repulsion Energy =            356.9479254029482718
    One-Electron Energy =               -1291.3070465544765284
    Two-Electron Energy =                 516.1713740380615718
    Total Energy =                       -418.1877471134666848
  Basis Set: (AUG-CC-PVTZ AUX)
    Blend: AUG-CC-PVTZ-RI
    Molecular point group: c1

    Geometry (in Angstrom), charge = -1, multiplicity = 1:

       Center              X                  Y                   Z               Mass
    ------------   -----------------  -----------------  -----------------  -----------------
         O            0.676305748876    -1.133880315099    -0.360648163962    15.994914619570
         O           -2.124016251124    -0.520912315099     1.103904836038    15.994914619570
         O           -2.390262251124     0.193429684901    -1.040434163962    15.994914619570
         C            2.105741748876     0.719544684901     0.166966836038    12.000000000000
         C            0.756590748876     0.047190684901    -0.020736163962    12.000000000000
         C           -0.464707251124     0.919451684901     0.184554836038    12.000000000000
         C            3.285946748876    -0.225093315099    -0.016985163962    12.000000000000
         C           -1.766909151124     0.110667484901    -0.003281363962    12.000000000000
         H            2.155999748876     1.551363684901    -0.548091163962     1.007825032230
         H            2.119052748876     1.185070684901     1.159785836038     1.007825032230
         H           -0.332908251124     1.411039684901     1.156852136038     1.007825032230
         H           -0.422245251124     1.725497684901    -0.559739163962     1.007825032230
         H            3.252982748876    -1.036190315099     0.714162836038     1.007825032230
         H            3.274428748876    -0.671863315099    -1.013199163962     1.007825032230
         H            4.229068748876     0.313280684901     0.109354836038     1.007825032230

  Basis Set: AUG-CC-PVTZ
    Blend: AUG-CC-PVTZ
  Basis Set: (AUG-CC-PVTZ AUX)
    Blend: AUG-CC-PVTZ-JKFIT
	 Reference Energy          =    -418.1877471134666848 [Eh]
	 Singles Energy            =      -0.0000000000000000 [Eh]
	 Same-Spin Energy          =      -0.4163245181996740 [Eh]
	 Opposite-Spin Energy      =      -1.2927449579941519 [Eh]
	 Correlation Energy        =      -1.7090694761938259 [Eh]
	 Total Energy              =    -419.8968165896604887 [Eh]

	 ================> DF-SCS-MP2 Energies <==================
	-----------------------------------------------------------
	 SCS Same-Spin Scale       =       0.3333333333333333 [-]
	 SCS Opposite-Spin Scale   =       1.2000000000000000 [-]
	 SCS Same-Spin Energy      =      -0.1387748393998913 [Eh]
	 SCS Opposite-Spin Energy  =      -1.5512939495929823 [Eh]
	 SCS Correlation Energy    =      -1.6900687889928736 [Eh]
	 SCS Total Energy          =    -419.8778159024595311 [Eh]
	-----------------------------------------------------------

  Dipole Moment: [D]
     X:     9.9456      Y:     3.6637      Z:    -0.0116     Total:    10.5989

*** Psi4 exiting successfully. Buy a developer a beer!
