                               Psi4 1.3.2 release

  ==> Input File <==

--------------------------------------------------------------------------
#psi4
#
memory 32 gb

molecule  {
-1 1
  O        0.5632720    -1.1719080    -0.3765930
  O       -2.2370500    -0.5589400     1.0879600
  O       -2.5032960     0.1554020    -1.0563790
  C        1.9927080     0.6815170     0.1510220
  C        0.6818844    -0.0589972    -0.0511685
  C       -0.5777410     0.8814240     0.1686100
  C        3.1209687    -0.3217968    -0.0476044
  C       -1.9010600     0.0931950     0.0560670
  H        2.0429660     1.5133360    -0.5640360
  H        2.0060190     1.1470430     1.1438410
  H       -0.4967450     1.3515110     1.1569670
  H       -0.5352790     1.6874700    -0.5756840
  H        3.1399490    -1.0742180     0.6982180
  H        3.1613950    -0.7098910    -1.0291440
  H        4.1160350     0.2752530     0.0934100
units angstrom
no_reorient  #important for SAPT in psi4, default
symmetry c1  #important for SAPT in psi4, default
}

set PROPERTIES_ORIGIN ["COM"]
properties('MP2/aug-cc-pvtz', properties = ['dipole'])
--------------------------------------------------------------------------

    Molecular point group: c1
  Charge       = -1
  Multiplicity = 1
  Basis Set: AUG-CC-PVTZ
    Blend: AUG-CC-PVTZ
  Basis Set: (AUG-CC-PVTZ AUX)
    Blend: AUG-CC-PVTZ-JKFIT

    Orbital Energies [Eh]
    ---------------------

    Doubly Occupied:

       1A    -20.417226     2A    -20.293449     3A    -20.291841
       4A    -11.194123     5A    -11.141550     6A    -11.129318
       7A    -11.122686     8A    -11.077061     9A     -1.287844
      10A     -1.160996    11A     -1.061034    12A     -0.951183
      13A     -0.849449    14A     -0.763816    15A     -0.612603
      16A     -0.538551    17A     -0.535490    18A     -0.534112
      19A     -0.481662    20A     -0.456779    21A     -0.430664
      22A     -0.416314    23A     -0.412612    24A     -0.396825
      25A     -0.386167    26A     -0.362499    27A     -0.336932
      28A     -0.265036    29A     -0.207222    30A     -0.201653
      31A     -0.190250

  @DF-RHF Final Energy:  -418.18619105956054

   => Energetics <=

    Nuclear Repulsion Energy =            357.6022396018006475
    One-Electron Energy =               -1292.5629682543294621
    Two-Electron Energy =                 516.7745375929682723
    Total Energy =                       -418.1861910595605423
  Basis Set: (AUG-CC-PVTZ AUX)
    Blend: AUG-CC-PVTZ-RI
    Molecular point group: c1

    Geometry (in Angstrom), charge = -1, multiplicity = 1:

       Center              X                  Y                   Z               Mass
    ------------   -----------------  -----------------  -----------------  -----------------
         O            0.680373990284    -1.122605590932    -0.365600905178    15.994914619570
         O           -2.119948009716    -0.509637590932     1.098952094822    15.994914619570
         O           -2.386194009716     0.204704409068    -1.045386905178    15.994914619570
         C            2.109809990284     0.730819409068     0.162014094822    12.000000000000
         C            0.798986390284    -0.009694790932    -0.040176405178    12.000000000000
         C           -0.460639009716     0.930726409068     0.179602094822    12.000000000000
         C            3.238070690284    -0.272494390932    -0.036612305178    12.000000000000
         C           -1.783958009716     0.142497409068     0.067059094822    12.000000000000
         H            2.160067990284     1.562638409068    -0.553043905178     1.007825032230
         H            2.123120990284     1.196345409068     1.154833094822     1.007825032230
         H           -0.379643009716     1.400813409068     1.167959094822     1.007825032230
         H           -0.418177009716     1.736772409068    -0.564691905178     1.007825032230
         H            3.257050990284    -1.024915590932     0.709210094822     1.007825032230
         H            3.278496990284    -0.660588590932    -1.018151905178     1.007825032230
         H            4.233136990284     0.324555409068     0.104402094822     1.007825032230

  Basis Set: AUG-CC-PVTZ
    Blend: AUG-CC-PVTZ
  Basis Set: (AUG-CC-PVTZ AUX)
    Blend: AUG-CC-PVTZ-JKFIT
	 Reference Energy          =    -418.1861910595605423 [Eh]
	 Singles Energy            =      -0.0000000000000000 [Eh]
	 Same-Spin Energy          =      -0.4145591588465584 [Eh]
	 Opposite-Spin Energy      =      -1.2892707037837687 [Eh]
	 Correlation Energy        =      -1.7038298626303270 [Eh]
	 Total Energy              =    -419.8900209221908426 [Eh]

	 ================> DF-SCS-MP2 Energies <==================
	-----------------------------------------------------------
	 SCS Same-Spin Scale       =       0.3333333333333333 [-]
	 SCS Opposite-Spin Scale   =       1.2000000000000000 [-]
	 SCS Same-Spin Energy      =      -0.1381863862821861 [Eh]
	 SCS Opposite-Spin Energy  =      -1.5471248445405223 [Eh]
	 SCS Correlation Energy    =      -1.6853112308227085 [Eh]
	 SCS Total Energy          =    -419.8715022903832619 [Eh]
	-----------------------------------------------------------

  Dipole Moment: [D]
     X:    10.2092      Y:     3.0733      Z:     0.5320     Total:    10.6750

*** Psi4 exiting successfully. Buy a developer a beer!
