                               Psi4 1.3.2 release

  ==> Input File <==

--------------------------------------------------------------------------
#psi4
#
memory 32 gb

molecule  {
-1 1
  O        0.5632720    -1.1719080    -0.3765930
  O       -2.2370500    -0.5589400     1.0879600
  O       -2.5032960     0.1554020    -1.0563790
  C        1.9927080     0.6815170     0.1510220
  C        0.6651753     0.0570229    -0.0961057
  C       -0.5777410     0.8814240     0.1686100
  C        3.1729130    -0.2631210    -0.0329300
  C       -1.9010600     0.0931950     0.0560670
  H        2.0429660     1.5133360    -0.5640360
  H        2.0060190     1.1470430     1.1438410
  H       -0.4967450     1.3515110     1.1569670
  H       -0.4860780     1.6649341    -0.5950631
  H        3.1399490    -1.0742180     0.6982180
  H        3.1613950    -0.7098910    -1.0291440
  H        4.1160350     0.2752530     0.0934100
units angstrom
no_reorient  #important for SAPT in psi4, default
symmetry c1  #important for SAPT in psi4, default
}

set PROPERTIES_ORIGIN ["COM"]
properties('MP2/aug-cc-pvtz', properties = ['dipole'])
--------------------------------------------------------------------------

    Molecular point group: c1
  Charge       = -1
  Multiplicity = 1
  Basis Set: AUG-CC-PVTZ
    Blend: AUG-CC-PVTZ
  Basis Set: (AUG-CC-PVTZ AUX)
    Blend: AUG-CC-PVTZ-JKFIT

    Orbital Energies [Eh]
    ---------------------

    Doubly Occupied:

       1A    -20.407171     2A    -20.296289     3A    -20.295076
       4A    -11.202152     5A    -11.147257     6A    -11.132626
       7A    -11.122499     8A    -11.084872     9A     -1.218192
      10A     -1.163613    11A     -1.063984    12A     -0.956151
      13A     -0.870306    14A     -0.772568    15A     -0.612663
      16A     -0.540389    17A     -0.530157    18A     -0.524572
      19A     -0.466230    20A     -0.455831    21A     -0.437569
      22A     -0.413540    23A     -0.405335    24A     -0.404241
      25A     -0.376889    26A     -0.336515    27A     -0.332930
      28A     -0.281278    29A     -0.210292    30A     -0.208694
      31A     -0.192248

  @DF-RHF Final Energy:  -418.18590983221952

   => Energetics <=

    Nuclear Repulsion Energy =            356.4087397056824784
    One-Electron Energy =               -1290.2650466539648733
    Two-Electron Energy =                 515.6703971160628726
    Total Energy =                       -418.1859098322195223
  Basis Set: (AUG-CC-PVTZ AUX)
    Blend: AUG-CC-PVTZ-RI
    Molecular point group: c1

    Geometry (in Angstrom), charge = -1, multiplicity = 1:

       Center              X                  Y                   Z               Mass
    ------------   -----------------  -----------------  -----------------  -----------------
         O            0.676267502330    -1.140631036208    -0.362274358395    15.994914619570
         O           -2.124054497670    -0.527663036208     1.102278641605    15.994914619570
         O           -2.390300497670     0.186678963792    -1.042060358395    15.994914619570
         C            2.105703502330     0.712793963792     0.165340641605    12.000000000000
         C            0.778170802330     0.088299863792    -0.081787058395    12.000000000000
         C           -0.464745497670     0.912700963792     0.182928641605    12.000000000000
         C            3.285908502330    -0.231844036208    -0.018611358395    12.000000000000
         C           -1.788064497670     0.124471963792     0.070385641605    12.000000000000
         H            2.155961502330     1.544612963792    -0.549717358395     1.007825032230
         H            2.119014502330     1.178319963792     1.158159641605     1.007825032230
         H           -0.383749497670     1.382787963792     1.171285641605     1.007825032230
         H           -0.373082497670     1.696211063792    -0.580744458395     1.007825032230
         H            3.252944502330    -1.042941036208     0.712536641605     1.007825032230
         H            3.274390502330    -0.678614036208    -1.014825358395     1.007825032230
         H            4.229030502330     0.306529963792     0.107728641605     1.007825032230

  Basis Set: AUG-CC-PVTZ
    Blend: AUG-CC-PVTZ
  Basis Set: (AUG-CC-PVTZ AUX)
    Blend: AUG-CC-PVTZ-JKFIT
	 Reference Energy          =    -418.1859098322195223 [Eh]
	 Singles Energy            =      -0.0000000000000000 [Eh]
	 Same-Spin Energy          =      -0.4174297999685657 [Eh]
	 Opposite-Spin Energy      =      -1.2950676826296832 [Eh]
	 Correlation Energy        =      -1.7124974825982489 [Eh]
	 Total Energy              =    -419.8984073148177458 [Eh]

	 ================> DF-SCS-MP2 Energies <==================
	-----------------------------------------------------------
	 SCS Same-Spin Scale       =       0.3333333333333333 [-]
	 SCS Opposite-Spin Scale   =       1.2000000000000000 [-]
	 SCS Same-Spin Energy      =      -0.1391432666561885 [Eh]
	 SCS Opposite-Spin Energy  =      -1.5540812191556197 [Eh]
	 SCS Correlation Energy    =      -1.6932244858118082 [Eh]
	 SCS Total Energy          =    -419.8791343180313334 [Eh]
	-----------------------------------------------------------

  Dipole Moment: [D]
     X:    10.0995      Y:     3.5740      Z:     0.6248     Total:    10.7315

*** Psi4 exiting successfully. Buy a developer a beer!
