                               Psi4 1.3.2 release

  ==> Input File <==

--------------------------------------------------------------------------
#psi4
#
memory 32 gb

molecule  {
-1 1
  O        0.5632720    -1.1719080    -0.3765930
  O       -2.2370500    -0.5589400     1.0879600
  O       -2.5032960     0.1554020    -1.0563790
  C        1.9927080     0.6815170     0.1510220
  C        0.6466147     0.0004922    -0.0271315
  C       -0.5777410     0.8814240     0.1686100
  C        3.1729130    -0.2631210    -0.0329300
  C       -1.9010600     0.0931950     0.0560670
  H        2.0517368     1.5154988    -0.5608394
  H        2.0060190     1.1470430     1.1438410
  H       -0.4967450     1.3515110     1.1569670
  H       -0.5352790     1.6874700    -0.5756840
  H        3.1399490    -1.0742180     0.6982180
  H        3.1613950    -0.7098910    -1.0291440
  H        4.1160350     0.2752530     0.0934100
units angstrom
no_reorient  #important for SAPT in psi4, default
symmetry c1  #important for SAPT in psi4, default
}

set PROPERTIES_ORIGIN ["COM"]
properties('MP2/aug-cc-pvtz', properties = ['dipole'])
--------------------------------------------------------------------------

    Molecular point group: c1
  Charge       = -1
  Multiplicity = 1
  Basis Set: AUG-CC-PVTZ
    Blend: AUG-CC-PVTZ
  Basis Set: (AUG-CC-PVTZ AUX)
    Blend: AUG-CC-PVTZ-JKFIT

    Orbital Energies [Eh]
    ---------------------

    Doubly Occupied:

       1A    -20.410926     2A    -20.296264     3A    -20.294428
       4A    -11.199764     5A    -11.145813     6A    -11.130068
       7A    -11.120773     8A    -11.082540     9A     -1.243282
      10A     -1.163687    11A     -1.063772    12A     -0.949779
      13A     -0.866433    14A     -0.766449    15A     -0.612008
      16A     -0.537951    17A     -0.530765    18A     -0.526146
      19A     -0.472054    20A     -0.454202    21A     -0.439418
      22A     -0.410571    23A     -0.408458    24A     -0.403254
      25A     -0.377134    26A     -0.348795    27A     -0.335984
      28A     -0.279584    29A     -0.210068    30A     -0.206751
      31A     -0.192342

  @DF-RHF Final Energy:  -418.19600158719135

   => Energetics <=

    Nuclear Repulsion Energy =            356.7259509263666359
    One-Electron Energy =               -1290.8849831140294100
    Two-Electron Energy =                 515.9630306004714839
    Total Energy =                       -418.1960015871912901
  Basis Set: (AUG-CC-PVTZ AUX)
    Blend: AUG-CC-PVTZ-RI
    Molecular point group: c1

    Geometry (in Angstrom), charge = -1, multiplicity = 1:

       Center              X                  Y                   Z               Mass
    ------------   -----------------  -----------------  -----------------  -----------------
         O            0.678557791525    -1.134950584507    -0.369666972363    15.994914619570
         O           -2.121764208475    -0.521982584507     1.094886027637    15.994914619570
         O           -2.388010208475     0.192359415493    -1.049452972363    15.994914619570
         C            2.107993791525     0.718474415493     0.157948027637    12.000000000000
         C            0.761900491525     0.037449615493    -0.020205472363    12.000000000000
         C           -0.462455208475     0.918381415493     0.175536027637    12.000000000000
         C            3.288198791525    -0.226163584507    -0.026003972363    12.000000000000
         C           -1.785774208475     0.130152415493     0.062993027637    12.000000000000
         H            2.167022591525     1.552456215493    -0.553913372363     1.007825032230
         H            2.121304791525     1.184000415493     1.150767027637     1.007825032230
         H           -0.381459208475     1.388468415493     1.163893027637     1.007825032230
         H           -0.419993208475     1.724427415493    -0.568757972363     1.007825032230
         H            3.255234791525    -1.037260584507     0.705144027637     1.007825032230
         H            3.276680791525    -0.672933584507    -1.022217972363     1.007825032230
         H            4.231320791525     0.312210415493     0.100336027637     1.007825032230

  Basis Set: AUG-CC-PVTZ
    Blend: AUG-CC-PVTZ
  Basis Set: (AUG-CC-PVTZ AUX)
    Blend: AUG-CC-PVTZ-JKFIT
	 Reference Energy          =    -418.1960015871913470 [Eh]
	 Singles Energy            =      -0.0000000000000000 [Eh]
	 Same-Spin Energy          =      -0.4160168941461428 [Eh]
	 Opposite-Spin Energy      =      -1.2922140482121771 [Eh]
	 Correlation Energy        =      -1.7082309423583200 [Eh]
	 Total Energy              =    -419.9042325295496880 [Eh]

	 ================> DF-SCS-MP2 Energies <==================
	-----------------------------------------------------------
	 SCS Same-Spin Scale       =       0.3333333333333333 [-]
	 SCS Opposite-Spin Scale   =       1.2000000000000000 [-]
	 SCS Same-Spin Energy      =      -0.1386722980487143 [Eh]
	 SCS Opposite-Spin Energy  =      -1.5506568578546125 [Eh]
	 SCS Correlation Energy    =      -1.6893291559033268 [Eh]
	 SCS Total Energy          =    -419.8853307430946984 [Eh]
	-----------------------------------------------------------

  Dipole Moment: [D]
     X:    10.0143      Y:     3.4327      Z:     0.6338     Total:    10.6053

*** Psi4 exiting successfully. Buy a developer a beer!
