                               Psi4 1.4a3.dev225

  ==> Input File <==

--------------------------------------------------------------------------
#psi4
#
memory 32 gb

molecule  {
-1 1
  O        1.0745520     1.3418620    -0.8745480
  O       -1.1230780    -1.1034960    -0.8170800
  O       -2.9206860    -0.1812610     0.2330210
  C        1.4738630    -0.3704550     0.7611780
  C        0.6286860     0.6706690     0.0605170
  C       -0.7798250     0.8397660     0.5534010
  C        2.7202340    -0.7612590    -0.0182770
  C       -1.7196147    -0.2554613    -0.0663053
  H        1.7414500     0.0432240     1.7443780
  H        0.8355880    -1.2371210     0.9565080
  H       -0.8294850     0.7587360     1.6458800
  H       -1.1523820     1.8284630     0.2671350
  H        2.4446610    -1.1885100    -0.9860420
  H        3.3521650     0.1095510    -0.2043800
  H        3.3054110    -1.5035610     0.5312540
units angstrom
no_reorient  #important for SAPT in psi4, default
symmetry c1  #important for SAPT in psi4, default
}

set PROPERTIES_ORIGIN ["COM"]
properties('MP2/aug-cc-pvtz', properties = ['dipole'])
--------------------------------------------------------------------------

    Molecular point group: c1
  Charge       = -1
  Multiplicity = 1
  Basis Set: AUG-CC-PVTZ
    Blend: AUG-CC-PVTZ
  Basis Set: (AUG-CC-PVTZ AUX)
    Blend: AUG-CC-PVTZ-JKFIT

    Orbital Energies [Eh]
    ---------------------

    Doubly Occupied:

       1A    -20.399030     2A    -20.316344     3A    -20.310093
       4A    -11.188847     5A    -11.164431     6A    -11.106787
       7A    -11.101355     8A    -11.079517     9A     -1.229260
      10A     -1.187315    11A     -1.086266    12A     -0.931296
      13A     -0.860797    14A     -0.751208    15A     -0.600631
      16A     -0.545263    17A     -0.511989    18A     -0.503383
      19A     -0.479406    20A     -0.450064    21A     -0.440883
      22A     -0.409906    23A     -0.398307    24A     -0.390188
      25A     -0.377729    26A     -0.348608    27A     -0.338572
      28A     -0.275473    29A     -0.229290    30A     -0.216224
      31A     -0.212987

  @DF-RHF Final Energy:  -418.20966138394584

   => Energetics <=

    Nuclear Repulsion Energy =            362.4747100759360023
    One-Electron Energy =               -1302.4858466921350555
    Two-Electron Energy =                 521.8014752322532104
    Total Energy =                       -418.2096613839458996
  Basis Set: (AUG-CC-PVTZ AUX)
    Blend: AUG-CC-PVTZ-RI
    Molecular point group: c1

    Geometry (in Angstrom), charge = -1, multiplicity = 1:

       Center              X                  Y                   Z               Mass
    ------------   -----------------  -----------------  -----------------  -----------------
         O            1.160078107685     1.331483111600    -0.841007777075    15.994914619570
         O           -1.037551892315    -1.113874888400    -0.783539777075    15.994914619570
         O           -2.835159892315    -0.191639888400     0.266561222925    15.994914619570
         C            1.559389107685    -0.380833888400     0.794718222925    12.000000000000
         C            0.714212107685     0.660290111600     0.094057222925    12.000000000000
         C           -0.694298892315     0.829387111600     0.586941222925    12.000000000000
         C            2.805760107685    -0.771637888400     0.015263222925    12.000000000000
         C           -1.634088592315    -0.265840188400    -0.032765077075    12.000000000000
         H            1.826976107685     0.032845111600     1.777918222925     1.007825032230
         H            0.921114107685    -1.247499888400     0.990048222925     1.007825032230
         H           -0.743958892315     0.748357111600     1.679420222925     1.007825032230
         H           -1.066855892315     1.818084111600     0.300675222925     1.007825032230
         H            2.530187107685    -1.198888888400    -0.952501777075     1.007825032230
         H            3.437691107685     0.099172111600    -0.170839777075     1.007825032230
         H            3.390937107685    -1.513939888400     0.564794222925     1.007825032230

  Basis Set: AUG-CC-PVTZ
    Blend: AUG-CC-PVTZ
  Basis Set: (AUG-CC-PVTZ AUX)
    Blend: AUG-CC-PVTZ-JKFIT
	 Reference Energy          =    -418.2096613839458428 [Eh]
	 Singles Energy            =      -0.0000000000000000 [Eh]
	 Same-Spin Energy          =      -0.4165905052747811 [Eh]
	 Opposite-Spin Energy      =      -1.2919303096486321 [Eh]
	 Correlation Energy        =      -1.7085208149234132 [Eh]
	 Total Energy              =    -419.9181821988692604 [Eh]

	 ================> DF-SCS-MP2 Energies <==================
	-----------------------------------------------------------
	 SCS Same-Spin Scale       =       0.3333333333333333 [-]
	 SCS Opposite-Spin Scale   =       1.2000000000000000 [-]
	 SCS Same-Spin Energy      =      -0.1388635017582604 [Eh]
	 SCS Opposite-Spin Energy  =      -1.5503163715783586 [Eh]
	 SCS Correlation Energy    =      -1.6891798733366190 [Eh]
	 SCS Total Energy          =    -419.8988412572824700 [Eh]
	-----------------------------------------------------------

  Dipole Moment: [D]
     X:     6.5107      Y:     1.2829      Z:     3.2519     Total:     7.3899

*** Psi4 exiting successfully. Buy a developer a beer!
