                               Psi4 1.3.2 release

  ==> Input File <==

--------------------------------------------------------------------------
#psi4
#
memory 32 gb

molecule  {
-1 1
  O        0.5632720    -1.1719080    -0.3765930
  O       -2.2370500    -0.5589400     1.0879600
  O       -2.5032960     0.1554020    -1.0563790
  C        1.9927080     0.6815170     0.1510220
  C        0.6357004    -0.0013162    -0.0384700
  C       -0.5777410     0.8814240     0.1686100
  C        3.1729130    -0.2631210    -0.0329300
  C       -1.8940727     0.0819207     0.0536781
  H        2.0429660     1.5133360    -0.5640360
  H        2.0060190     1.1470430     1.1438410
  H       -0.4967450     1.3515110     1.1569670
  H       -0.5352790     1.6874700    -0.5756840
  H        3.1399490    -1.0742180     0.6982180
  H        3.1613950    -0.7098910    -1.0291440
  H        4.1160350     0.2752530     0.0934100
units angstrom
no_reorient  #important for SAPT in psi4, default
symmetry c1  #important for SAPT in psi4, default
}

set PROPERTIES_ORIGIN ["COM"]
properties('MP2/aug-cc-pvtz', properties = ['dipole'])
--------------------------------------------------------------------------

    Molecular point group: c1
  Charge       = -1
  Multiplicity = 1
  Basis Set: AUG-CC-PVTZ
    Blend: AUG-CC-PVTZ
  Basis Set: (AUG-CC-PVTZ AUX)
    Blend: AUG-CC-PVTZ-JKFIT

    Orbital Energies [Eh]
    ---------------------

    Doubly Occupied:

       1A    -20.411269     2A    -20.295937     3A    -20.295158
       4A    -11.199221     5A    -11.146037     6A    -11.129282
       7A    -11.120253     8A    -11.082452     9A     -1.247123
      10A     -1.164035    11A     -1.064046    12A     -0.947614
      13A     -0.867822    14A     -0.764775    15A     -0.611004
      16A     -0.538478    17A     -0.531100    18A     -0.525203
      19A     -0.473136    20A     -0.454995    21A     -0.439981
      22A     -0.410265    23A     -0.408346    24A     -0.402842
      25A     -0.377612    26A     -0.350680    27A     -0.336415
      28A     -0.279235    29A     -0.210290    30A     -0.206638
      31A     -0.192671

  @DF-RHF Final Energy:  -418.19689226769589

   => Energetics <=

    Nuclear Repulsion Energy =            356.8882094907562532
    One-Electron Energy =               -1291.2023777488950600
    Two-Electron Energy =                 516.1172759904428631
    Total Energy =                       -418.1968922676959437
  Basis Set: (AUG-CC-PVTZ AUX)
    Blend: AUG-CC-PVTZ-RI
    Molecular point group: c1

    Geometry (in Angstrom), charge = -1, multiplicity = 1:

       Center              X                  Y                   Z               Mass
    ------------   -----------------  -----------------  -----------------  -----------------
         O            0.679044262890    -1.133566954558    -0.368207035683    15.994914619570
         O           -2.121277737110    -0.520598954558     1.096345964317    15.994914619570
         O           -2.387523737110     0.193743045442    -1.047993035683    15.994914619570
         C            2.108480262890     0.719858045442     0.159407964317    12.000000000000
         C            0.751472662890     0.037024845442    -0.030084035683    12.000000000000
         C           -0.461968737110     0.919765045442     0.176995964317    12.000000000000
         C            3.288685262890    -0.224779954558    -0.024544035683    12.000000000000
         C           -1.778300437110     0.120261745442     0.062064064317    12.000000000000
         H            2.158738262890     1.551677045442    -0.555650035683     1.007825032230
         H            2.121791262890     1.185384045442     1.152226964317     1.007825032230
         H           -0.380972737110     1.389852045442     1.165352964317     1.007825032230
         H           -0.419506737110     1.725811045442    -0.567298035683     1.007825032230
         H            3.255721262890    -1.035876954558     0.706603964317     1.007825032230
         H            3.277167262890    -0.671549954558    -1.020758035683     1.007825032230
         H            4.231807262890     0.313594045442     0.101795964317     1.007825032230

  Basis Set: AUG-CC-PVTZ
    Blend: AUG-CC-PVTZ
  Basis Set: (AUG-CC-PVTZ AUX)
    Blend: AUG-CC-PVTZ-JKFIT
	 Reference Energy          =    -418.1968922676958869 [Eh]
	 Singles Energy            =      -0.0000000000000000 [Eh]
	 Same-Spin Energy          =      -0.4158648125176388 [Eh]
	 Opposite-Spin Energy      =      -1.2918295739225831 [Eh]
	 Correlation Energy        =      -1.7076943864402219 [Eh]
	 Total Energy              =    -419.9045866541360965 [Eh]

	 ================> DF-SCS-MP2 Energies <==================
	-----------------------------------------------------------
	 SCS Same-Spin Scale       =       0.3333333333333333 [-]
	 SCS Opposite-Spin Scale   =       1.2000000000000000 [-]
	 SCS Same-Spin Energy      =      -0.1386216041725463 [Eh]
	 SCS Opposite-Spin Energy  =      -1.5501954887070997 [Eh]
	 SCS Correlation Energy    =      -1.6888170928796460 [Eh]
	 SCS Total Energy          =    -419.8857093605755608 [Eh]
	-----------------------------------------------------------

  Dipole Moment: [D]
     X:     9.9532      Y:     3.4054      Z:     0.6406     Total:    10.5391

*** Psi4 exiting successfully. Buy a developer a beer!
