                               Psi4 1.3.2 release

  ==> Input File <==

--------------------------------------------------------------------------
#psi4
#
memory 32 gb

molecule  {
-1 1
  O        0.5632720    -1.1719080    -0.3765930
  O       -2.2370500    -0.5589400     1.0879600
  O       -2.5032960     0.1554020    -1.0563790
  C        1.9927080     0.6815170     0.1510220
  C        0.6687040    -0.0364936    -0.0463990
  C       -0.5777410     0.8814240     0.1686100
  C        3.1386343    -0.3025359    -0.0427714
  C       -1.9010600     0.0931950     0.0560670
  H        2.0429660     1.5133360    -0.5640360
  H        2.0060190     1.1470430     1.1438410
  H       -0.4967450     1.3515110     1.1569670
  H       -0.5352790     1.6874700    -0.5756840
  H        3.1399490    -1.0742180     0.6982180
  H        3.1613950    -0.7098910    -1.0291440
  H        4.1160350     0.2752530     0.0934100
units angstrom
no_reorient  #important for SAPT in psi4, default
symmetry c1  #important for SAPT in psi4, default
}

set PROPERTIES_ORIGIN ["COM"]
properties('MP2/aug-cc-pvtz', properties = ['dipole'])
--------------------------------------------------------------------------

    Molecular point group: c1
  Charge       = -1
  Multiplicity = 1
  Basis Set: AUG-CC-PVTZ
    Blend: AUG-CC-PVTZ
  Basis Set: (AUG-CC-PVTZ AUX)
    Blend: AUG-CC-PVTZ-JKFIT

    Orbital Energies [Eh]
    ---------------------

    Doubly Occupied:

       1A    -20.414758     2A    -20.294484     3A    -20.292810
       4A    -11.195853     5A    -11.143112     6A    -11.129330
       7A    -11.121722     8A    -11.079271     9A     -1.271222
      10A     -1.162020    11A     -1.062049    12A     -0.950354
      13A     -0.855430    14A     -0.764606    15A     -0.611947
      16A     -0.536293    17A     -0.533979    18A     -0.531735
      19A     -0.478358    20A     -0.455170    21A     -0.431547
      22A     -0.414892    23A     -0.410184    24A     -0.402390
      25A     -0.381003    26A     -0.359554    27A     -0.336678
      28A     -0.270991    29A     -0.208268    30A     -0.203639
      31A     -0.191026

  @DF-RHF Final Energy:  -418.19312658233088

   => Energetics <=

    Nuclear Repulsion Energy =            357.2897262812260237
    One-Electron Energy =               -1291.9763545315372539
    Two-Electron Energy =                 516.4935016679804676
    Total Energy =                       -418.1931265823308195
  Basis Set: (AUG-CC-PVTZ AUX)
    Blend: AUG-CC-PVTZ-RI
    Molecular point group: c1

    Geometry (in Angstrom), charge = -1, multiplicity = 1:

       Center              X                  Y                   Z               Mass
    ------------   -----------------  -----------------  -----------------  -----------------
         O            0.679906130192    -1.126962128616    -0.366602560965    15.994914619570
         O           -2.120415869808    -0.513994128616     1.097950439035    15.994914619570
         O           -2.386661869808     0.200347871384    -1.046388560965    15.994914619570
         C            2.109342130192     0.726462871384     0.161012439035    12.000000000000
         C            0.785338130192     0.008452271384    -0.036408560965    12.000000000000
         C           -0.461106869808     0.926369871384     0.178600439035    12.000000000000
         C            3.255268430192    -0.257590028616    -0.032780960965    12.000000000000
         C           -1.784425869808     0.138140871384     0.066057439035    12.000000000000
         H            2.159600130192     1.558281871384    -0.554045560965     1.007825032230
         H            2.122653130192     1.191988871384     1.153831439035     1.007825032230
         H           -0.380110869808     1.396456871384     1.166957439035     1.007825032230
         H           -0.418644869808     1.732415871384    -0.565693560965     1.007825032230
         H            3.256583130192    -1.029272128616     0.708208439035     1.007825032230
         H            3.278029130192    -0.664945128616    -1.019153560965     1.007825032230
         H            4.232669130192     0.320198871384     0.103400439035     1.007825032230

  Basis Set: AUG-CC-PVTZ
    Blend: AUG-CC-PVTZ
  Basis Set: (AUG-CC-PVTZ AUX)
    Blend: AUG-CC-PVTZ-JKFIT
	 Reference Energy          =    -418.1931265823308763 [Eh]
	 Singles Energy            =      -0.0000000000000000 [Eh]
	 Same-Spin Energy          =      -0.4149848304928259 [Eh]
	 Opposite-Spin Energy      =      -1.2901230381452728 [Eh]
	 Correlation Energy        =      -1.7051078686380987 [Eh]
	 Total Energy              =    -419.8982344509689710 [Eh]

	 ================> DF-SCS-MP2 Energies <==================
	-----------------------------------------------------------
	 SCS Same-Spin Scale       =       0.3333333333333333 [-]
	 SCS Opposite-Spin Scale   =       1.2000000000000000 [-]
	 SCS Same-Spin Energy      =      -0.1383282768309420 [Eh]
	 SCS Opposite-Spin Energy  =      -1.5481476457743273 [Eh]
	 SCS Correlation Energy    =      -1.6864759226052692 [Eh]
	 SCS Total Energy          =    -419.8796025049361447 [Eh]
	-----------------------------------------------------------

  Dipole Moment: [D]
     X:    10.1343      Y:     3.2075      Z:     0.5672     Total:    10.6449

*** Psi4 exiting successfully. Buy a developer a beer!
