                               Psi4 1.4a3.dev225

  ==> Input File <==

--------------------------------------------------------------------------
#psi4
#
memory 32 gb

molecule  {
-1 1
  O        1.0745520     1.3418620    -0.8745480
  O       -1.1230780    -1.1034960    -0.8170800
  O       -2.9206860    -0.1812610     0.2330210
  C        1.4738630    -0.3704550     0.7611780
  C        0.6286860     0.6706690     0.0605170
  C       -0.7798250     0.8397660     0.5534010
  C        2.7202340    -0.7612590    -0.0182770
  C       -1.7120293    -0.2706981    -0.0791304
  H        1.7414500     0.0432240     1.7443780
  H        0.8355880    -1.2371210     0.9565080
  H       -0.8294850     0.7587360     1.6458800
  H       -1.1523820     1.8284630     0.2671350
  H        2.4446610    -1.1885100    -0.9860420
  H        3.3521650     0.1095510    -0.2043800
  H        3.3054110    -1.5035610     0.5312540
units angstrom
no_reorient  #important for SAPT in psi4, default
symmetry c1  #important for SAPT in psi4, default
}

set PROPERTIES_ORIGIN ["COM"]
properties('MP2/aug-cc-pvtz', properties = ['dipole'])
--------------------------------------------------------------------------

    Molecular point group: c1
  Charge       = -1
  Multiplicity = 1
  Basis Set: AUG-CC-PVTZ
    Blend: AUG-CC-PVTZ
  Basis Set: (AUG-CC-PVTZ AUX)
    Blend: AUG-CC-PVTZ-JKFIT

    Orbital Energies [Eh]
    ---------------------

    Doubly Occupied:

       1A    -20.398742     2A    -20.314952     3A    -20.312847
       4A    -11.188117     5A    -11.164705     6A    -11.107045
       7A    -11.101699     8A    -11.078057     9A     -1.229083
      10A     -1.188507    11A     -1.091510    12A     -0.931448
      13A     -0.858984    14A     -0.750610    15A     -0.599107
      16A     -0.544400    17A     -0.511994    18A     -0.503783
      19A     -0.479144    20A     -0.449982    21A     -0.440422
      22A     -0.411882    23A     -0.398422    24A     -0.390310
      25A     -0.378095    26A     -0.349428    27A     -0.339443
      28A     -0.275417    29A     -0.232273    30A     -0.215111
      31A     -0.213334

  @DF-RHF Final Energy:  -418.21077240845005

   => Energetics <=

    Nuclear Repulsion Energy =            362.5452716063858247
    One-Electron Energy =               -1302.6143854248236948
    Two-Electron Energy =                 521.8583414099879292
    Total Energy =                       -418.2107724084499978
  Basis Set: (AUG-CC-PVTZ AUX)
    Blend: AUG-CC-PVTZ-RI
    Molecular point group: c1

    Geometry (in Angstrom), charge = -1, multiplicity = 1:

       Center              X                  Y                   Z               Mass
    ------------   -----------------  -----------------  -----------------  -----------------
         O            1.159286859593     1.333072492375    -0.839669965501    15.994914619570
         O           -1.038343140407    -1.112285507625    -0.782201965501    15.994914619570
         O           -2.835951140407    -0.190050507625     0.267899034499    15.994914619570
         C            1.558597859593    -0.379244507625     0.796056034499    12.000000000000
         C            0.713420859593     0.661879492375     0.095395034499    12.000000000000
         C           -0.695090140407     0.830976492375     0.588279034499    12.000000000000
         C            2.804968859593    -0.770048507625     0.016601034499    12.000000000000
         C           -1.627294440407    -0.279487607625    -0.044252365501    12.000000000000
         H            1.826184859593     0.034434492375     1.779256034499     1.007825032230
         H            0.920322859593    -1.245910507625     0.991386034499     1.007825032230
         H           -0.744750140407     0.749946492375     1.680758034499     1.007825032230
         H           -1.067647140407     1.819673492375     0.302013034499     1.007825032230
         H            2.529395859593    -1.197299507625    -0.951163965501     1.007825032230
         H            3.436899859593     0.100761492375    -0.169501965501     1.007825032230
         H            3.390145859593    -1.512350507625     0.566132034499     1.007825032230

  Basis Set: AUG-CC-PVTZ
    Blend: AUG-CC-PVTZ
  Basis Set: (AUG-CC-PVTZ AUX)
    Blend: AUG-CC-PVTZ-JKFIT
	 Reference Energy          =    -418.2107724084500546 [Eh]
	 Singles Energy            =      -0.0000000000000000 [Eh]
	 Same-Spin Energy          =      -0.4164612398639557 [Eh]
	 Opposite-Spin Energy      =      -1.2915465793252827 [Eh]
	 Correlation Energy        =      -1.7080078191892385 [Eh]
	 Total Energy              =    -419.9187802276392745 [Eh]

	 ================> DF-SCS-MP2 Energies <==================
	-----------------------------------------------------------
	 SCS Same-Spin Scale       =       0.3333333333333333 [-]
	 SCS Opposite-Spin Scale   =       1.2000000000000000 [-]
	 SCS Same-Spin Energy      =      -0.1388204132879852 [Eh]
	 SCS Opposite-Spin Energy  =      -1.5498558951903392 [Eh]
	 SCS Correlation Energy    =      -1.6886763084783243 [Eh]
	 SCS Total Energy          =    -419.8994487169283616 [Eh]
	-----------------------------------------------------------

  Dipole Moment: [D]
     X:     6.6102      Y:     1.1609      Z:     3.1464     Total:     7.4123

*** Psi4 exiting successfully. Buy a developer a beer!
