                               Psi4 1.3.2 release

  ==> Input File <==

--------------------------------------------------------------------------
#psi4
#
memory 32 gb

molecule  {
-1 1
  O        0.6277029    -1.1742508    -0.3775547
  O       -2.2370500    -0.5589400     1.0879600
  O       -2.5032960     0.1554020    -1.0563790
  C        2.0273913     0.6127888     0.1310669
  C        0.6435570     0.0091630    -0.0366810
  C       -0.5777410     0.8814240     0.1686100
  C        3.1729130    -0.2631210    -0.0329300
  C       -1.9010600     0.0931950     0.0560670
  H        2.0429660     1.5133360    -0.5640360
  H        2.0060190     1.1470430     1.1438410
  H       -0.4967450     1.3515110     1.1569670
  H       -0.5352790     1.6874700    -0.5756840
  H        3.1399490    -1.0742180     0.6982180
  H        3.1613950    -0.7098910    -1.0291440
  H        4.1160350     0.2752530     0.0934100
units angstrom
no_reorient  #important for SAPT in psi4, default
symmetry c1  #important for SAPT in psi4, default
}

set PROPERTIES_ORIGIN ["COM"]
properties('MP2/aug-cc-pvtz', properties = ['dipole'])
--------------------------------------------------------------------------

    Molecular point group: c1
  Charge       = -1
  Multiplicity = 1
  Basis Set: AUG-CC-PVTZ
    Blend: AUG-CC-PVTZ
  Basis Set: (AUG-CC-PVTZ AUX)
    Blend: AUG-CC-PVTZ-JKFIT

    Orbital Energies [Eh]
    ---------------------

    Doubly Occupied:

       1A    -20.407997     2A    -20.298951     3A    -20.297205
       4A    -11.200461     5A    -11.149172     6A    -11.131630
       7A    -11.116307     8A    -11.087906     9A     -1.240384
      10A     -1.166509    11A     -1.066468    12A     -0.956289
      13A     -0.873289    14A     -0.762811    15A     -0.606883
      16A     -0.542293    17A     -0.532869    18A     -0.521232
      19A     -0.474705    20A     -0.457066    21A     -0.448572
      22A     -0.422135    23A     -0.400766    24A     -0.396419
      25A     -0.369374    26A     -0.344617    27A     -0.338143
      28A     -0.279669    29A     -0.212677    30A     -0.210025
      31A     -0.194717

  @DF-RHF Final Energy:  -418.18754101398508

   => Energetics <=

    Nuclear Repulsion Energy =            356.9415805858253066
    One-Electron Energy =               -1291.2431629154666552
    Two-Electron Energy =                 516.1140413156563227
    Total Energy =                       -418.1875410139850828
  Basis Set: (AUG-CC-PVTZ AUX)
    Blend: AUG-CC-PVTZ-RI
    Molecular point group: c1

    Geometry (in Angstrom), charge = -1, multiplicity = 1:

       Center              X                  Y                   Z               Mass
    ------------   -----------------  -----------------  -----------------  -----------------
         O            0.730808229335    -1.130683991352    -0.367389271452    15.994914619570
         O           -2.133944670665    -0.515373191352     1.098125428548    15.994914619570
         O           -2.400190670665     0.198968808648    -1.046213571452    15.994914619570
         C            2.130496629335     0.656355608648     0.141232328548    12.000000000000
         C            0.746662329335     0.052729808648    -0.026515571452    12.000000000000
         C           -0.474635670665     0.924990808648     0.178775428548    12.000000000000
         C            3.276018329335    -0.219554191352    -0.022764571452    12.000000000000
         C           -1.797954670665     0.136761808648     0.066232428548    12.000000000000
         H            2.146071329335     1.556902808648    -0.553870571452     1.007825032230
         H            2.109124329335     1.190609808648     1.154006428548     1.007825032230
         H           -0.393639670665     1.395077808648     1.167132428548     1.007825032230
         H           -0.432173670665     1.731036808648    -0.565518571452     1.007825032230
         H            3.243054329335    -1.030651191352     0.708383428548     1.007825032230
         H            3.264500329335    -0.666324191352    -1.018978571452     1.007825032230
         H            4.219140329335     0.318819808648     0.103575428548     1.007825032230

  Basis Set: AUG-CC-PVTZ
    Blend: AUG-CC-PVTZ
  Basis Set: (AUG-CC-PVTZ AUX)
    Blend: AUG-CC-PVTZ-JKFIT
	 Reference Energy          =    -418.1875410139850828 [Eh]
	 Singles Energy            =      -0.0000000000000000 [Eh]
	 Same-Spin Energy          =      -0.4168691086517307 [Eh]
	 Opposite-Spin Energy      =      -1.2933290880095041 [Eh]
	 Correlation Energy        =      -1.7101981966612347 [Eh]
	 Total Energy              =    -419.8977392106463071 [Eh]

	 ================> DF-SCS-MP2 Energies <==================
	-----------------------------------------------------------
	 SCS Same-Spin Scale       =       0.3333333333333333 [-]
	 SCS Opposite-Spin Scale   =       1.2000000000000000 [-]
	 SCS Same-Spin Energy      =      -0.1389563695505769 [Eh]
	 SCS Opposite-Spin Energy  =      -1.5519949056114049 [Eh]
	 SCS Correlation Energy    =      -1.6909512751619817 [Eh]
	 SCS Total Energy          =    -419.8784922891470615 [Eh]
	-----------------------------------------------------------

  Dipole Moment: [D]
     X:     9.8546      Y:     3.4063      Z:     0.6176     Total:    10.4449

*** Psi4 exiting successfully. Buy a developer a beer!
