                               Psi4 1.3.2 release

  ==> Input File <==

--------------------------------------------------------------------------
#psi4
#
memory 32 gb

molecule  {
-1 1
  O        0.5632720    -1.1719080    -0.3765930
  O       -2.2370500    -0.5589400     1.0879600
  O       -2.5032960     0.1554020    -1.0563790
  C        1.9927080     0.6815170     0.1510220
  C        0.6435570     0.0091630    -0.0366810
  C       -0.5777410     0.8814240     0.1686100
  C        3.1729130    -0.2631210    -0.0329300
  C       -1.9010600     0.0931950     0.0560670
  H        2.0429660     1.5133360    -0.5640360
  H        2.0060190     1.1470430     1.1438410
  H       -0.5041254     1.3086764     1.0669074
  H       -0.5352790     1.6874700    -0.5756840
  H        3.1399490    -1.0742180     0.6982180
  H        3.1613950    -0.7098910    -1.0291440
  H        4.1160350     0.2752530     0.0934100
units angstrom
no_reorient  #important for SAPT in psi4, default
symmetry c1  #important for SAPT in psi4, default
}

set PROPERTIES_ORIGIN ["COM"]
properties('MP2/aug-cc-pvtz', properties = ['dipole'])
--------------------------------------------------------------------------

    Molecular point group: c1
  Charge       = -1
  Multiplicity = 1
  Basis Set: AUG-CC-PVTZ
    Blend: AUG-CC-PVTZ
  Basis Set: (AUG-CC-PVTZ AUX)
    Blend: AUG-CC-PVTZ-JKFIT

    Orbital Energies [Eh]
    ---------------------

    Doubly Occupied:

       1A    -20.409540     2A    -20.295292     3A    -20.294567
       4A    -11.199215     5A    -11.145101     6A    -11.130518
       7A    -11.120999     8A    -11.070116     9A     -1.238864
      10A     -1.163307    11A     -1.063379    12A     -0.950540
      13A     -0.875228    14A     -0.769033    15A     -0.612380
      16A     -0.541352    17A     -0.532379    18A     -0.526827
      19A     -0.474228    20A     -0.461276    21A     -0.439591
      22A     -0.411720    23A     -0.408089    24A     -0.403761
      25A     -0.378375    26A     -0.347752    27A     -0.336479
      28A     -0.279868    29A     -0.210004    30A     -0.206201
      31A     -0.191984

  @DF-RHF Final Energy:  -418.18974831171505

   => Energetics <=

    Nuclear Repulsion Energy =            357.2359835286700900
    One-Electron Energy =               -1291.8755346136140361
    Two-Electron Energy =                 516.4498027732288392
    Total Energy =                       -418.1897483117151069
  Basis Set: (AUG-CC-PVTZ AUX)
    Blend: AUG-CC-PVTZ-RI
    Molecular point group: c1

    Geometry (in Angstrom), charge = -1, multiplicity = 1:

       Center              X                  Y                   Z               Mass
    ------------   -----------------  -----------------  -----------------  -----------------
         O            0.679018241848    -1.135460844758    -0.367853856883    15.994914619570
         O           -2.121303758152    -0.522492844758     1.096699143117    15.994914619570
         O           -2.387549758152     0.191849155242    -1.047639856883    15.994914619570
         C            2.108454241848     0.717964155242     0.159761143117    12.000000000000
         C            0.759303241848     0.045610155242    -0.027941856883    12.000000000000
         C           -0.461994758152     0.917871155242     0.177349143117    12.000000000000
         C            3.288659241848    -0.226673844758    -0.024190856883    12.000000000000
         C           -1.785313758152     0.129642155242     0.064806143117    12.000000000000
         H            2.158712241848     1.549783155242    -0.555296856883     1.007825032230
         H            2.121765241848     1.183490155242     1.152580143117     1.007825032230
         H           -0.388379158152     1.345123555242     1.075646543117     1.007825032230
         H           -0.419532758152     1.723917155242    -0.566944856883     1.007825032230
         H            3.255695241848    -1.037770844758     0.706957143117     1.007825032230
         H            3.277141241848    -0.673443844758    -1.020404856883     1.007825032230
         H            4.231781241848     0.311700155242     0.102149143117     1.007825032230

  Basis Set: AUG-CC-PVTZ
    Blend: AUG-CC-PVTZ
  Basis Set: (AUG-CC-PVTZ AUX)
    Blend: AUG-CC-PVTZ-JKFIT
	 Reference Energy          =    -418.1897483117150500 [Eh]
	 Singles Energy            =      -0.0000000000000000 [Eh]
	 Same-Spin Energy          =      -0.4161377134240855 [Eh]
	 Opposite-Spin Energy      =      -1.2920339420012179 [Eh]
	 Correlation Energy        =      -1.7081716554253035 [Eh]
	 Total Energy              =    -419.8979199671403535 [Eh]

	 ================> DF-SCS-MP2 Energies <==================
	-----------------------------------------------------------
	 SCS Same-Spin Scale       =       0.3333333333333333 [-]
	 SCS Opposite-Spin Scale   =       1.2000000000000000 [-]
	 SCS Same-Spin Energy      =      -0.1387125711413618 [Eh]
	 SCS Opposite-Spin Energy  =      -1.5504407304014614 [Eh]
	 SCS Correlation Energy    =      -1.6891533015428233 [Eh]
	 SCS Total Energy          =    -419.8789016132578809 [Eh]
	-----------------------------------------------------------

  Dipole Moment: [D]
     X:    10.0282      Y:     3.4954      Z:     0.6664     Total:    10.6408

*** Psi4 exiting successfully. Buy a developer a beer!
