                               Psi4 1.3.2 release

  ==> Input File <==

--------------------------------------------------------------------------
#psi4
#
memory 32 gb

molecule  {
-1 1
  O        0.5632720    -1.1719080    -0.3765930
  O       -2.2370500    -0.5589400     1.0879600
  O       -2.5032960     0.1554020    -1.0563790
  C        1.9927080     0.6815170     0.1510220
  C        0.6497749    -0.0081268    -0.0175685
  C       -0.5777410     0.8814240     0.1686100
  C        3.1729130    -0.2631210    -0.0329300
  C       -1.9010600     0.0931950     0.0560670
  H        2.0605032     1.5175980    -0.5575886
  H        2.0060190     1.1470430     1.1438410
  H       -0.4967450     1.3515110     1.1569670
  H       -0.5352790     1.6874700    -0.5756840
  H        3.1399490    -1.0742180     0.6982180
  H        3.1613950    -0.7098910    -1.0291440
  H        4.1160350     0.2752530     0.0934100
units angstrom
no_reorient  #important for SAPT in psi4, default
symmetry c1  #important for SAPT in psi4, default
}

set PROPERTIES_ORIGIN ["COM"]
properties('MP2/aug-cc-pvtz', properties = ['dipole'])
--------------------------------------------------------------------------

    Molecular point group: c1
  Charge       = -1
  Multiplicity = 1
  Basis Set: AUG-CC-PVTZ
    Blend: AUG-CC-PVTZ
  Basis Set: (AUG-CC-PVTZ AUX)
    Blend: AUG-CC-PVTZ-JKFIT

    Orbital Energies [Eh]
    ---------------------

    Doubly Occupied:

       1A    -20.411684     2A    -20.296059     3A    -20.294186
       4A    -11.199524     5A    -11.145442     6A    -11.129898
       7A    -11.120682     8A    -11.082216     9A     -1.247030
      10A     -1.163479    11A     -1.063550    12A     -0.949745
      13A     -0.864767    14A     -0.766002    15A     -0.612348
      16A     -0.537651    17A     -0.531612    18A     -0.525937
      19A     -0.472903    20A     -0.453704    21A     -0.439337
      22A     -0.410719    23A     -0.408756    24A     -0.403107
      25A     -0.377101    26A     -0.350654    27A     -0.336010
      28A     -0.278784    29A     -0.209850    30A     -0.206364
      31A     -0.192180

  @DF-RHF Final Energy:  -418.19609439079971

   => Energetics <=

    Nuclear Repulsion Energy =            356.7369056312564339
    One-Electron Energy =               -1290.9034358206604338
    Two-Electron Energy =                 515.9704357986043988
    Total Energy =                       -418.1960943907996580
  Basis Set: (AUG-CC-PVTZ AUX)
    Blend: AUG-CC-PVTZ-RI
    Molecular point group: c1

    Geometry (in Angstrom), charge = -1, multiplicity = 1:

       Center              X                  Y                   Z               Mass
    ------------   -----------------  -----------------  -----------------  -----------------
         O            0.678151345134    -1.134069909983    -0.370692987062    15.994914619570
         O           -2.122170654866    -0.521101909983     1.093860012938    15.994914619570
         O           -2.388416654866     0.193240090017    -1.050478987062    15.994914619570
         C            2.107587345134     0.719355090017     0.156922012938    12.000000000000
         C            0.764654245134     0.029711290017    -0.011668487062    12.000000000000
         C           -0.462861654866     0.919262090017     0.174510012938    12.000000000000
         C            3.287792345134    -0.225282909983    -0.027029987062    12.000000000000
         C           -1.786180654866     0.131033090017     0.061967012938    12.000000000000
         H            2.175382545134     1.555436090017    -0.551688587062     1.007825032230
         H            2.120898345134     1.184881090017     1.149741012938     1.007825032230
         H           -0.381865654866     1.389349090017     1.162867012938     1.007825032230
         H           -0.420399654866     1.725308090017    -0.569783987062     1.007825032230
         H            3.254828345134    -1.036379909983     0.704118012938     1.007825032230
         H            3.276274345134    -0.672052909983    -1.023243987062     1.007825032230
         H            4.230914345134     0.313091090017     0.099310012938     1.007825032230

  Basis Set: AUG-CC-PVTZ
    Blend: AUG-CC-PVTZ
  Basis Set: (AUG-CC-PVTZ AUX)
    Blend: AUG-CC-PVTZ-JKFIT
	 Reference Energy          =    -418.1960943907997148 [Eh]
	 Singles Energy            =      -0.0000000000000000 [Eh]
	 Same-Spin Energy          =      -0.4158584365858405 [Eh]
	 Opposite-Spin Energy      =      -1.2919314186331654 [Eh]
	 Correlation Energy        =      -1.7077898552190058 [Eh]
	 Total Energy              =    -419.9038842460187198 [Eh]

	 ================> DF-SCS-MP2 Energies <==================
	-----------------------------------------------------------
	 SCS Same-Spin Scale       =       0.3333333333333333 [-]
	 SCS Opposite-Spin Scale   =       1.2000000000000000 [-]
	 SCS Same-Spin Energy      =      -0.1386194788619468 [Eh]
	 SCS Opposite-Spin Energy  =      -1.5503177023597985 [Eh]
	 SCS Correlation Energy    =      -1.6889371812217453 [Eh]
	 SCS Total Energy          =    -419.8850315720214326 [Eh]
	-----------------------------------------------------------

  Dipole Moment: [D]
     X:    10.0383      Y:     3.4058      Z:     0.6347     Total:    10.6193

*** Psi4 exiting successfully. Buy a developer a beer!
