                               Psi4 1.3.2 release

  ==> Input File <==

--------------------------------------------------------------------------
#psi4
#
memory 32 gb

molecule  {
0 1
  O       -0.4771680     1.3164760     0.3008390
  N        0.7985240    -0.5535590    -0.2772820
  C        3.2200150    -0.4235850    -0.1586420
  C        0.7425440     0.7008700     0.1517020
  C       -1.6208490     0.5302780     0.1412880
  C        3.1140170     0.9030370     0.2913960
  C        1.8615655     1.4514743     0.5486403
  C        2.0264240    -1.0936290    -0.4226860
  C        4.5555360    -1.0893210    -0.3460000
  C       -1.9196720    -0.4880720     1.0459920
  C       -2.4970780     0.8728280    -0.8843220
  C       -3.1225630    -1.1795470     0.9070330
  C       -3.7017300     0.1773150    -1.0087090
  C       -4.0153870    -0.8504980    -0.1174150
  H        4.0120030     1.4769520     0.5152690
  H        1.7375180     2.5038470     0.8013060
  H        2.0412640    -2.1246280    -0.7760920
  H        5.1157190    -1.1239590     0.5937180
  H        4.4318450    -2.1155640    -0.7023530
  H        5.1668890    -0.5502680    -1.0765200
  H       -1.2183070    -0.7290930     1.8393240
  H       -2.2288450     1.6771480    -1.5635320
  H       -3.3650020    -1.9773860     1.6048690
  H       -4.3932510     0.4394220    -1.8057380
  H       -4.9525670    -1.3919050    -0.2175730
units angstrom
no_reorient  #important for SAPT in psi4, default
symmetry c1  #important for SAPT in psi4, default
}

set PROPERTIES_ORIGIN ["COM"]
properties('MP2/aug-cc-pvtz', properties = ['dipole'])
--------------------------------------------------------------------------

    Molecular point group: c1
  Charge       = 0
  Multiplicity = 1
  Basis Set: AUG-CC-PVTZ
    Blend: AUG-CC-PVTZ
  Basis Set: (AUG-CC-PVTZ AUX)
    Blend: AUG-CC-PVTZ-JKFIT

    Orbital Energies [Eh]
    ---------------------

    Doubly Occupied:

       1A    -20.598577     2A    -15.563407     3A    -11.341403
       4A    -11.295648     5A    -11.277968     6A    -11.262435
       7A    -11.243277     8A    -11.241878     9A    -11.236748
      10A    -11.236646    11A    -11.232870    12A    -11.232092
      13A    -11.231322    14A    -11.230460    15A     -1.430741
      16A     -1.253524    17A     -1.145864    18A     -1.102348
      19A     -1.052530    20A     -1.015254    21A     -1.003648
      22A     -0.942950    23A     -0.877417    24A     -0.841986
      25A     -0.830650    26A     -0.800747    27A     -0.736866
      28A     -0.704364    29A     -0.679128    30A     -0.655685
      31A     -0.641703    32A     -0.625734    33A     -0.611823
      34A     -0.594510    35A     -0.591910    36A     -0.586203
      37A     -0.568952    38A     -0.562948    39A     -0.549699
      40A     -0.521274    41A     -0.513400    42A     -0.511419
      43A     -0.492701    44A     -0.477430    45A     -0.428162
      46A     -0.384087    47A     -0.335377    48A     -0.332358
      49A     -0.313850

  @DF-RHF Final Energy:  -590.32875107193524

   => Energetics <=

    Nuclear Repulsion Energy =            801.6222398459212855
    One-Electron Energy =               -2392.0180268207423069
    Two-Electron Energy =                1000.0670359028857774
    Total Energy =                       -590.3287510719352440
  Basis Set: (AUG-CC-PVTZ AUX)
    Blend: AUG-CC-PVTZ-RI
    Molecular point group: c1

    Geometry (in Angstrom), charge = 0, multiplicity = 1:

       Center              X                  Y                   Z               Mass
    ------------   -----------------  -----------------  -----------------  -----------------
         O           -0.442915093210     1.297602820410     0.290492682268    15.994914619570
         N            0.832776906790    -0.572432179590    -0.287628317732    14.003074004430
         C            3.254267906790    -0.442458179590    -0.168988317732    12.000000000000
         C            0.776796906790     0.681996820410     0.141355682268    12.000000000000
         C           -1.586596093210     0.511404820410     0.130941682268    12.000000000000
         C            3.148269906790     0.884163820410     0.281049682268    12.000000000000
         C            1.895818406790     1.432601120410     0.538293982268    12.000000000000
         C            2.060676906790    -1.112502179590    -0.433032317732    12.000000000000
         C            4.589788906790    -1.108194179590    -0.356346317732    12.000000000000
         C           -1.885419093210    -0.506945179590     1.035645682268    12.000000000000
         C           -2.462825093210     0.853954820410    -0.894668317732    12.000000000000
         C           -3.088310093210    -1.198420179590     0.896686682268    12.000000000000
         C           -3.667477093210     0.158441820410    -1.019055317732    12.000000000000
         C           -3.981134093210    -0.869371179590    -0.127761317732    12.000000000000
         H            4.046255906790     1.458078820410     0.504922682268     1.007825032230
         H            1.771770906790     2.484973820410     0.790959682268     1.007825032230
         H            2.075516906790    -2.143501179590    -0.786438317732     1.007825032230
         H            5.149971906790    -1.142832179590     0.583371682268     1.007825032230
         H            4.466097906790    -2.134437179590    -0.712699317732     1.007825032230
         H            5.201141906790    -0.569141179590    -1.086866317732     1.007825032230
         H           -1.184054093210    -0.747966179590     1.828977682268     1.007825032230
         H           -2.194592093210     1.658274820410    -1.573878317732     1.007825032230
         H           -3.330749093210    -1.996259179590     1.594522682268     1.007825032230
         H           -4.358998093210     0.420548820410    -1.816084317732     1.007825032230
         H           -4.918314093210    -1.410778179590    -0.227919317732     1.007825032230

  Basis Set: AUG-CC-PVTZ
    Blend: AUG-CC-PVTZ
  Basis Set: (AUG-CC-PVTZ AUX)
    Blend: AUG-CC-PVTZ-JKFIT
	 Reference Energy          =    -590.3287510719352440 [Eh]
	 Singles Energy            =      -0.0000000000000000 [Eh]
	 Same-Spin Energy          =      -0.6441019259819318 [Eh]
	 Opposite-Spin Energy      =      -1.9816993005536128 [Eh]
	 Correlation Energy        =      -2.6258012265355446 [Eh]
	 Total Energy              =    -592.9545522984708441 [Eh]

	 ================> DF-SCS-MP2 Energies <==================
	-----------------------------------------------------------
	 SCS Same-Spin Scale       =       0.3333333333333333 [-]
	 SCS Opposite-Spin Scale   =       1.2000000000000000 [-]
	 SCS Same-Spin Energy      =      -0.2147006419939773 [Eh]
	 SCS Opposite-Spin Energy  =      -2.3780391606643354 [Eh]
	 SCS Correlation Energy    =      -2.5927398026583126 [Eh]
	 SCS Total Energy          =    -592.9214908745935873 [Eh]
	-----------------------------------------------------------

  Dipole Moment: [D]
     X:     2.0221      Y:    -0.1920      Z:     0.1038     Total:     2.0338

*** Psi4 exiting successfully. Buy a developer a beer!
