                               Psi4 1.3.2 release

  ==> Input File <==

--------------------------------------------------------------------------
#psi4
#
memory 32 gb

molecule  {
0 1
  O       -0.4771680     1.3164760     0.3008390
  N        0.7985240    -0.5535590    -0.2772820
  C        3.2200150    -0.4235850    -0.1586420
  C        0.7425440     0.7008700     0.1517020
  C       -1.6208490     0.5302780     0.1412880
  C        3.1140170     0.9030370     0.2913960
  C        1.8596092     1.4355044     0.5959809
  C        2.0264240    -1.0936290    -0.4226860
  C        4.5555360    -1.0893210    -0.3460000
  C       -1.9196720    -0.4880720     1.0459920
  C       -2.4970780     0.8728280    -0.8843220
  C       -3.1225630    -1.1795470     0.9070330
  C       -3.7017300     0.1773150    -1.0087090
  C       -4.0153870    -0.8504980    -0.1174150
  H        4.0120030     1.4769520     0.5152690
  H        1.7375180     2.5038470     0.8013060
  H        2.0412640    -2.1246280    -0.7760920
  H        5.1157190    -1.1239590     0.5937180
  H        4.4318450    -2.1155640    -0.7023530
  H        5.1668890    -0.5502680    -1.0765200
  H       -1.2183070    -0.7290930     1.8393240
  H       -2.2288450     1.6771480    -1.5635320
  H       -3.3650020    -1.9773860     1.6048690
  H       -4.3932510     0.4394220    -1.8057380
  H       -4.9525670    -1.3919050    -0.2175730
units angstrom
no_reorient  #important for SAPT in psi4, default
symmetry c1  #important for SAPT in psi4, default
}

set PROPERTIES_ORIGIN ["COM"]
properties('MP2/aug-cc-pvtz', properties = ['dipole'])
--------------------------------------------------------------------------

    Molecular point group: c1
  Charge       = 0
  Multiplicity = 1
  Basis Set: AUG-CC-PVTZ
    Blend: AUG-CC-PVTZ
  Basis Set: (AUG-CC-PVTZ AUX)
    Blend: AUG-CC-PVTZ-JKFIT

    Orbital Energies [Eh]
    ---------------------

    Doubly Occupied:

       1A    -20.598737     2A    -15.563375     3A    -11.342323
       4A    -11.295686     5A    -11.278727     6A    -11.263538
       7A    -11.243289     8A    -11.242782     9A    -11.236790
      10A    -11.236685    11A    -11.232970    12A    -11.232144
      13A    -11.231360    14A    -11.230509    15A     -1.430854
      16A     -1.253587    17A     -1.145901    18A     -1.102078
      19A     -1.051902    20A     -1.015293    21A     -1.003535
      22A     -0.942984    23A     -0.877074    24A     -0.841867
      25A     -0.830659    26A     -0.800603    27A     -0.736932
      28A     -0.703963    29A     -0.679021    30A     -0.655828
      31A     -0.639832    32A     -0.625090    33A     -0.611992
      34A     -0.594676    35A     -0.591575    36A     -0.586265
      37A     -0.568567    38A     -0.562557    39A     -0.549714
      40A     -0.521225    41A     -0.513251    42A     -0.511142
      43A     -0.492748    44A     -0.477322    45A     -0.428011
      46A     -0.383733    47A     -0.335387    48A     -0.332372
      49A     -0.314045

  @DF-RHF Final Energy:  -590.32518256384617

   => Energetics <=

    Nuclear Repulsion Energy =            801.4851069745133145
    One-Electron Energy =               -2391.7395875924294160
    Two-Electron Energy =                 999.9292980540700455
    Total Energy =                       -590.3251825638461696
  Basis Set: (AUG-CC-PVTZ AUX)
    Blend: AUG-CC-PVTZ-RI
    Molecular point group: c1

    Geometry (in Angstrom), charge = 0, multiplicity = 1:

       Center              X                  Y                   Z               Mass
    ------------   -----------------  -----------------  -----------------  -----------------
         O           -0.442788255709     1.298638235323     0.287423335357    15.994914619570
         N            0.832903744291    -0.571396764677    -0.290697664643    14.003074004430
         C            3.254394744291    -0.441422764677    -0.172057664643    12.000000000000
         C            0.776923744291     0.683032235323     0.138286335357    12.000000000000
         C           -1.586469255709     0.512440235323     0.127872335357    12.000000000000
         C            3.148396744291     0.885199235323     0.277980335357    12.000000000000
         C            1.893988944291     1.417666635323     0.582565235357    12.000000000000
         C            2.060803744291    -1.111466764677    -0.436101664643    12.000000000000
         C            4.589915744291    -1.107158764677    -0.359415664643    12.000000000000
         C           -1.885292255709    -0.505909764677     1.032576335357    12.000000000000
         C           -2.462698255709     0.854990235323    -0.897737664643    12.000000000000
         C           -3.088183255709    -1.197384764677     0.893617335357    12.000000000000
         C           -3.667350255709     0.159477235323    -1.022124664643    12.000000000000
         C           -3.981007255709    -0.868335764677    -0.130830664643    12.000000000000
         H            4.046382744291     1.459114235323     0.501853335357     1.007825032230
         H            1.771897744291     2.486009235323     0.787890335357     1.007825032230
         H            2.075643744291    -2.142465764677    -0.789507664643     1.007825032230
         H            5.150098744291    -1.141796764677     0.580302335357     1.007825032230
         H            4.466224744291    -2.133401764677    -0.715768664643     1.007825032230
         H            5.201268744291    -0.568105764677    -1.089935664643     1.007825032230
         H           -1.183927255709    -0.746930764677     1.825908335357     1.007825032230
         H           -2.194465255709     1.659310235323    -1.576947664643     1.007825032230
         H           -3.330622255709    -1.995223764677     1.591453335357     1.007825032230
         H           -4.358871255709     0.421584235323    -1.819153664643     1.007825032230
         H           -4.918187255709    -1.409742764677    -0.230988664643     1.007825032230

  Basis Set: AUG-CC-PVTZ
    Blend: AUG-CC-PVTZ
  Basis Set: (AUG-CC-PVTZ AUX)
    Blend: AUG-CC-PVTZ-JKFIT
	 Reference Energy          =    -590.3251825638461696 [Eh]
	 Singles Energy            =      -0.0000000000000000 [Eh]
	 Same-Spin Energy          =      -0.6442272305368780 [Eh]
	 Opposite-Spin Energy      =      -1.9820731503430662 [Eh]
	 Correlation Energy        =      -2.6263003808799441 [Eh]
	 Total Energy              =    -592.9514829447260809 [Eh]

	 ================> DF-SCS-MP2 Energies <==================
	-----------------------------------------------------------
	 SCS Same-Spin Scale       =       0.3333333333333333 [-]
	 SCS Opposite-Spin Scale   =       1.2000000000000000 [-]
	 SCS Same-Spin Energy      =      -0.2147424101789593 [Eh]
	 SCS Opposite-Spin Energy  =      -2.3784877804116795 [Eh]
	 SCS Correlation Energy    =      -2.5932301905906390 [Eh]
	 SCS Total Energy          =    -592.9184127544367584 [Eh]
	-----------------------------------------------------------

  Dipole Moment: [D]
     X:     2.0217      Y:    -0.2107      Z:     0.0713     Total:     2.0339

*** Psi4 exiting successfully. Buy a developer a beer!
