                               Psi4 1.3.2 release

  ==> Input File <==

--------------------------------------------------------------------------
#psi4
#
memory 32 gb

molecule  {
0 1
  O       -0.4771680     1.3164760     0.3008390
  N        0.7985240    -0.5535590    -0.2772820
  C        3.2200150    -0.4235850    -0.1586420
  C        0.7425440     0.7008700     0.1517020
  C       -1.6208490     0.5302780     0.1412880
  C        3.1140170     0.9030370     0.2913960
  C        1.8556967     1.4035647     0.6906622
  C        2.0264240    -1.0936290    -0.4226860
  C        4.5555360    -1.0893210    -0.3460000
  C       -1.9196720    -0.4880720     1.0459920
  C       -2.4970780     0.8728280    -0.8843220
  C       -3.1225630    -1.1795470     0.9070330
  C       -3.7017300     0.1773150    -1.0087090
  C       -4.0153870    -0.8504980    -0.1174150
  H        4.0120030     1.4769520     0.5152690
  H        1.7375180     2.5038470     0.8013060
  H        2.0412640    -2.1246280    -0.7760920
  H        5.1157190    -1.1239590     0.5937180
  H        4.4318450    -2.1155640    -0.7023530
  H        5.1668890    -0.5502680    -1.0765200
  H       -1.2183070    -0.7290930     1.8393240
  H       -2.2288450     1.6771480    -1.5635320
  H       -3.3650020    -1.9773860     1.6048690
  H       -4.3932510     0.4394220    -1.8057380
  H       -4.9525670    -1.3919050    -0.2175730
units angstrom
no_reorient  #important for SAPT in psi4, default
symmetry c1  #important for SAPT in psi4, default
}

set PROPERTIES_ORIGIN ["COM"]
properties('MP2/aug-cc-pvtz', properties = ['dipole'])
--------------------------------------------------------------------------

    Molecular point group: c1
  Charge       = 0
  Multiplicity = 1
  Basis Set: AUG-CC-PVTZ
    Blend: AUG-CC-PVTZ
  Basis Set: (AUG-CC-PVTZ AUX)
    Blend: AUG-CC-PVTZ-JKFIT

    Orbital Energies [Eh]
    ---------------------

    Doubly Occupied:

       1A    -20.599382     2A    -15.563279     3A    -11.345239
       4A    -11.295848     5A    -11.281108     6A    -11.266838
       7A    -11.245585     8A    -11.243308     9A    -11.236940
      10A    -11.236829    11A    -11.233271    12A    -11.232329
      13A    -11.231525    14A    -11.230683    15A     -1.431295
      16A     -1.253821    17A     -1.146047    18A     -1.101353
      19A     -1.049840    20A     -1.015442    21A     -1.003187
      22A     -0.943120    23A     -0.876018    24A     -0.841538
      25A     -0.830688    26A     -0.800204    27A     -0.737174
      28A     -0.702882    29A     -0.678651    30A     -0.656197
      31A     -0.634561    32A     -0.623232    33A     -0.611636
      34A     -0.595425    35A     -0.590703    36A     -0.586457
      37A     -0.567770    38A     -0.561377    39A     -0.549560
      40A     -0.520851    41A     -0.513010    42A     -0.510010
      43A     -0.492925    44A     -0.477008    45A     -0.427426
      46A     -0.382751    47A     -0.335486    48A     -0.332449
      49A     -0.314577

  @DF-RHF Final Energy:  -590.31357507008136

   => Energetics <=

    Nuclear Repulsion Energy =            801.0390956717315021
    One-Electron Energy =               -2390.8316748683132573
    Two-Electron Energy =                 999.4790041265003993
    Total Energy =                       -590.3135750700813560
  Basis Set: (AUG-CC-PVTZ AUX)
    Blend: AUG-CC-PVTZ-RI
    Molecular point group: c1

    Geometry (in Angstrom), charge = 0, multiplicity = 1:

       Center              X                  Y                   Z               Mass
    ------------   -----------------  -----------------  -----------------  -----------------
         O           -0.442534587193     1.300709058666     0.281284635052    15.994914619570
         N            0.833157412807    -0.569325941334    -0.296836364948    14.003074004430
         C            3.254648412807    -0.439351941334    -0.178196364948    12.000000000000
         C            0.777177412807     0.685103058666     0.132147635052    12.000000000000
         C           -1.586215587193     0.514511058666     0.121733635052    12.000000000000
         C            3.148650412807     0.887270058666     0.271841635052    12.000000000000
         C            1.890330112807     1.387797758666     0.671107835052    12.000000000000
         C            2.061057412807    -1.109395941334    -0.442240364948    12.000000000000
         C            4.590169412807    -1.105087941334    -0.365554364948    12.000000000000
         C           -1.885038587193    -0.503838941334     1.026437635052    12.000000000000
         C           -2.462444587193     0.857061058666    -0.903876364948    12.000000000000
         C           -3.087929587193    -1.195313941334     0.887478635052    12.000000000000
         C           -3.667096587193     0.161548058666    -1.028263364948    12.000000000000
         C           -3.980753587193    -0.866264941334    -0.136969364948    12.000000000000
         H            4.046636412807     1.461185058666     0.495714635052     1.007825032230
         H            1.772151412807     2.488080058666     0.781751635052     1.007825032230
         H            2.075897412807    -2.140394941334    -0.795646364948     1.007825032230
         H            5.150352412807    -1.139725941334     0.574163635052     1.007825032230
         H            4.466478412807    -2.131330941334    -0.721907364948     1.007825032230
         H            5.201522412807    -0.566034941334    -1.096074364948     1.007825032230
         H           -1.183673587193    -0.744859941334     1.819769635052     1.007825032230
         H           -2.194211587193     1.661381058666    -1.583086364948     1.007825032230
         H           -3.330368587193    -1.993152941334     1.585314635052     1.007825032230
         H           -4.358617587193     0.423655058666    -1.825292364948     1.007825032230
         H           -4.917933587193    -1.407671941334    -0.237127364948     1.007825032230

  Basis Set: AUG-CC-PVTZ
    Blend: AUG-CC-PVTZ
  Basis Set: (AUG-CC-PVTZ AUX)
    Blend: AUG-CC-PVTZ-JKFIT
	 Reference Energy          =    -590.3135750700813560 [Eh]
	 Singles Energy            =      -0.0000000000000000 [Eh]
	 Same-Spin Energy          =      -0.6446177223251397 [Eh]
	 Opposite-Spin Energy      =      -1.9834286130670431 [Eh]
	 Correlation Energy        =      -2.6280463353921828 [Eh]
	 Total Energy              =    -592.9416214054734837 [Eh]

	 ================> DF-SCS-MP2 Energies <==================
	-----------------------------------------------------------
	 SCS Same-Spin Scale       =       0.3333333333333333 [-]
	 SCS Opposite-Spin Scale   =       1.2000000000000000 [-]
	 SCS Same-Spin Energy      =      -0.2148725741083799 [Eh]
	 SCS Opposite-Spin Energy  =      -2.3801143356804517 [Eh]
	 SCS Correlation Energy    =      -2.5949869097888314 [Eh]
	 SCS Total Energy          =    -592.9085619798702282 [Eh]
	-----------------------------------------------------------

  Dipole Moment: [D]
     X:     2.0144      Y:    -0.2758      Z:    -0.0069     Total:     2.0332

*** Psi4 exiting successfully. Buy a developer a beer!
