                               Psi4 1.3.2 release

  ==> Input File <==

--------------------------------------------------------------------------
#psi4
#
memory 32 gb

molecule  {
0 1
  O       -0.4771680     1.3164760     0.3008390
  N        0.7985240    -0.5535590    -0.2772820
  C        3.2200150    -0.4235850    -0.1586420
  C        0.7425440     0.7008700     0.1517020
  C       -1.6208490     0.5302780     0.1412880
  C        3.1140170     0.9030370     0.2913960
  C        1.8576530     1.4195345     0.6433216
  C        2.0264240    -1.0936290    -0.4226860
  C        4.5555360    -1.0893210    -0.3460000
  C       -1.9196720    -0.4880720     1.0459920
  C       -2.4970780     0.8728280    -0.8843220
  C       -3.1225630    -1.1795470     0.9070330
  C       -3.7017300     0.1773150    -1.0087090
  C       -4.0153870    -0.8504980    -0.1174150
  H        4.0120030     1.4769520     0.5152690
  H        1.7375180     2.5038470     0.8013060
  H        2.0412640    -2.1246280    -0.7760920
  H        5.1157190    -1.1239590     0.5937180
  H        4.4318450    -2.1155640    -0.7023530
  H        5.1668890    -0.5502680    -1.0765200
  H       -1.2183070    -0.7290930     1.8393240
  H       -2.2288450     1.6771480    -1.5635320
  H       -3.3650020    -1.9773860     1.6048690
  H       -4.3932510     0.4394220    -1.8057380
  H       -4.9525670    -1.3919050    -0.2175730
units angstrom
no_reorient  #important for SAPT in psi4, default
symmetry c1  #important for SAPT in psi4, default
}

set PROPERTIES_ORIGIN ["COM"]
properties('MP2/aug-cc-pvtz', properties = ['dipole'])
--------------------------------------------------------------------------

    Molecular point group: c1
  Charge       = 0
  Multiplicity = 1
  Basis Set: AUG-CC-PVTZ
    Blend: AUG-CC-PVTZ
  Basis Set: (AUG-CC-PVTZ AUX)
    Blend: AUG-CC-PVTZ-JKFIT

    Orbital Energies [Eh]
    ---------------------

    Doubly Occupied:

       1A    -20.599005     2A    -15.563329     3A    -11.343609
       4A    -11.295753     5A    -11.279772     6A    -11.265015
       7A    -11.244028     8A    -11.243295     9A    -11.236854
      10A    -11.236746    11A    -11.233103    12A    -11.232222
      13A    -11.231427    14A    -11.230583    15A     -1.431038
      16A     -1.253683    17A     -1.145961    18A     -1.101739
      19A     -1.051009    20A     -1.015355    21A     -1.003383
      22A     -0.943036    23A     -0.876602    24A     -0.841716
      25A     -0.830670    26A     -0.800417    27A     -0.737031
      28A     -0.703455    29A     -0.678861    30A     -0.655999
      31A     -0.637383    32A     -0.624252    33A     -0.611964
      34A     -0.594996    35A     -0.591154    36A     -0.586350
      37A     -0.568170    38A     -0.562031    39A     -0.549677
      40A     -0.521085    41A     -0.513110    42A     -0.510694
      43A     -0.492823    44A     -0.477183    45A     -0.427769
      46A     -0.383281    47A     -0.335423    48A     -0.332400
      49A     -0.314285

  @DF-RHF Final Energy:  -590.32013542255584

   => Energetics <=

    Nuclear Repulsion Energy =            801.2900818731897061
    One-Electron Energy =               -2391.3429784996415037
    Two-Electron Energy =                 999.7327612038960751
    Total Energy =                       -590.3201354225558362
  Basis Set: (AUG-CC-PVTZ AUX)
    Blend: AUG-CC-PVTZ-RI
    Molecular point group: c1

    Geometry (in Angstrom), charge = 0, multiplicity = 1:

       Center              X                  Y                   Z               Mass
    ------------   -----------------  -----------------  -----------------  -----------------
         O           -0.442661424693     1.299673650236     0.284353981963    15.994914619570
         N            0.833030575307    -0.570361349764    -0.293767018037    14.003074004430
         C            3.254521575307    -0.440387349764    -0.175127018037    12.000000000000
         C            0.777050575307     0.684067650236     0.135216981963    12.000000000000
         C           -1.586342424693     0.513475650236     0.124802981963    12.000000000000
         C            3.148523575307     0.886234650236     0.274910981963    12.000000000000
         C            1.892159575307     1.402732150236     0.626836581963    12.000000000000
         C            2.060930575307    -1.110431349764    -0.439171018037    12.000000000000
         C            4.590042575307    -1.106123349764    -0.362485018037    12.000000000000
         C           -1.885165424693    -0.504874349764     1.029506981963    12.000000000000
         C           -2.462571424693     0.856025650236    -0.900807018037    12.000000000000
         C           -3.088056424693    -1.196349349764     0.890547981963    12.000000000000
         C           -3.667223424693     0.160512650236    -1.025194018037    12.000000000000
         C           -3.980880424693    -0.867300349764    -0.133900018037    12.000000000000
         H            4.046509575307     1.460149650236     0.498783981963     1.007825032230
         H            1.772024575307     2.487044650236     0.784820981963     1.007825032230
         H            2.075770575307    -2.141430349764    -0.792577018037     1.007825032230
         H            5.150225575307    -1.140761349764     0.577232981963     1.007825032230
         H            4.466351575307    -2.132366349764    -0.718838018037     1.007825032230
         H            5.201395575307    -0.567070349764    -1.093005018037     1.007825032230
         H           -1.183800424693    -0.745895349764     1.822838981963     1.007825032230
         H           -2.194338424693     1.660345650236    -1.580017018037     1.007825032230
         H           -3.330495424693    -1.994188349764     1.588383981963     1.007825032230
         H           -4.358744424693     0.422619650236    -1.822223018037     1.007825032230
         H           -4.918060424693    -1.408707349764    -0.234058018037     1.007825032230

  Basis Set: AUG-CC-PVTZ
    Blend: AUG-CC-PVTZ
  Basis Set: (AUG-CC-PVTZ AUX)
    Blend: AUG-CC-PVTZ-JKFIT
	 Reference Energy          =    -590.3201354225558362 [Eh]
	 Singles Energy            =      -0.0000000000000000 [Eh]
	 Same-Spin Energy          =      -0.6444003596792905 [Eh]
	 Opposite-Spin Energy      =      -1.9826518315451769 [Eh]
	 Correlation Energy        =      -2.6270521912244673 [Eh]
	 Total Energy              =    -592.9471876137803292 [Eh]

	 ================> DF-SCS-MP2 Energies <==================
	-----------------------------------------------------------
	 SCS Same-Spin Scale       =       0.3333333333333333 [-]
	 SCS Opposite-Spin Scale   =       1.2000000000000000 [-]
	 SCS Same-Spin Energy      =      -0.2148001198930968 [Eh]
	 SCS Opposite-Spin Energy  =      -2.3791821978542123 [Eh]
	 SCS Correlation Energy    =      -2.5939823177473089 [Eh]
	 SCS Total Energy          =    -592.9141177403031406 [Eh]
	-----------------------------------------------------------

  Dipole Moment: [D]
     X:     2.0192      Y:    -0.2387      Z:     0.0344     Total:     2.0335

*** Psi4 exiting successfully. Buy a developer a beer!
