                               Psi4 1.3.2 release

  ==> Input File <==

--------------------------------------------------------------------------
#psi4
#
memory 32 gb

molecule  {
0 1
  O       -0.4771680     1.3164760     0.3008390
  N        0.7985240    -0.5535590    -0.2772820
  C        3.2200150    -0.4235850    -0.1586420
  C        0.7425440     0.7008700     0.1517020
  C       -1.6208490     0.5302780     0.1412880
  C        3.1140170     0.9030370     0.2913960
  C        1.8654780     1.4834140     0.4539590
  C        2.0264240    -1.0936290    -0.4226860
  C        4.5555360    -1.0893210    -0.3460000
  C       -1.9196720    -0.4880720     1.0459920
  C       -2.4970780     0.8728280    -0.8843220
  C       -3.1225630    -1.1795470     0.9070330
  C       -3.7017300     0.1773150    -1.0087090
  C       -4.0153870    -0.8504980    -0.1174150
  H        4.0120030     1.4769520     0.5152690
  H        1.7375180     2.5038470     0.8013060
  H        2.0412640    -2.1246280    -0.7760920
  H        5.1157190    -1.1239590     0.5937180
  H        4.4318450    -2.1155640    -0.7023530
  H        5.1668890    -0.5502680    -1.0765200
  H       -1.2183070    -0.7290930     1.8393240
  H       -2.2288450     1.6771480    -1.5635320
  H       -3.3650020    -1.9773860     1.6048690
  H       -4.3932510     0.4394220    -1.8057380
  H       -4.9525670    -1.3919050    -0.2175730
units angstrom
no_reorient  #important for SAPT in psi4, default
symmetry c1  #important for SAPT in psi4, default
}

set PROPERTIES_ORIGIN ["COM"]
properties('MP2/aug-cc-pvtz', properties = ['dipole'])
--------------------------------------------------------------------------

    Molecular point group: c1
  Charge       = 0
  Multiplicity = 1
  Basis Set: AUG-CC-PVTZ
    Blend: AUG-CC-PVTZ
  Basis Set: (AUG-CC-PVTZ AUX)
    Blend: AUG-CC-PVTZ-JKFIT

    Orbital Energies [Eh]
    ---------------------

    Doubly Occupied:

       1A    -20.598571     2A    -15.563396     3A    -11.340719
       4A    -11.295654     5A    -11.277297     6A    -11.261427
       7A    -11.243211     8A    -11.241157     9A    -11.236735
      10A    -11.236635    11A    -11.232757    12A    -11.232074
      13A    -11.231333    14A    -11.230438    15A     -1.430727
      16A     -1.253466    17A     -1.145863    18A     -1.102619
      19A     -1.053020    20A     -1.015250    21A     -1.003774
      22A     -0.942905    23A     -0.877674    24A     -0.842126
      25A     -0.830632    26A     -0.800862    27A     -0.736809
      28A     -0.704722    29A     -0.679173    30A     -0.655488
      31A     -0.643245    32A     -0.626466    33A     -0.611054
      34A     -0.594806    35A     -0.592115    36A     -0.586142
      37A     -0.569664    38A     -0.563332    39A     -0.549571
      40A     -0.521132    41A     -0.513541    42A     -0.511692
      43A     -0.492690    44A     -0.477574    45A     -0.428206
      46A     -0.384454    47A     -0.335433    48A     -0.332349
      49A     -0.313580

  @DF-RHF Final Energy:  -590.33156103186377

   => Energetics <=

    Nuclear Repulsion Energy =            801.7176627419884198
    One-Electron Energy =               -2392.2113206760022877
    Two-Electron Energy =                1000.1620969021499832
    Total Energy =                       -590.3315610318637709
  Basis Set: (AUG-CC-PVTZ AUX)
    Blend: AUG-CC-PVTZ-RI
    Molecular point group: c1

    Geometry (in Angstrom), charge = 0, multiplicity = 1:

       Center              X                  Y                   Z               Mass
    ------------   -----------------  -----------------  -----------------  -----------------
         O           -0.443168761726     1.295531997068     0.296631382573    15.994914619570
         N            0.832523238274    -0.574503002932    -0.281489617427    14.003074004430
         C            3.254014238274    -0.444529002932    -0.162849617427    12.000000000000
         C            0.776543238274     0.679925997068     0.147494382573    12.000000000000
         C           -1.586849761726     0.509333997068     0.137080382573    12.000000000000
         C            3.148016238274     0.882092997068     0.287188382573    12.000000000000
         C            1.899477238274     1.462469997068     0.449751382573    12.000000000000
         C            2.060423238274    -1.114573002932    -0.426893617427    12.000000000000
         C            4.589535238274    -1.110265002932    -0.350207617427    12.000000000000
         C           -1.885672761726    -0.509016002932     1.041784382573    12.000000000000
         C           -2.463078761726     0.851883997068    -0.888529617427    12.000000000000
         C           -3.088563761726    -1.200491002932     0.902825382573    12.000000000000
         C           -3.667730761726     0.156370997068    -1.012916617427    12.000000000000
         C           -3.981387761726    -0.871442002932    -0.121622617427    12.000000000000
         H            4.046002238274     1.456007997068     0.511061382573     1.007825032230
         H            1.771517238274     2.482902997068     0.797098382573     1.007825032230
         H            2.075263238274    -2.145572002932    -0.780299617427     1.007825032230
         H            5.149718238274    -1.144903002932     0.589510382573     1.007825032230
         H            4.465844238274    -2.136508002932    -0.706560617427     1.007825032230
         H            5.200888238274    -0.571212002932    -1.080727617427     1.007825032230
         H           -1.184307761726    -0.750037002932     1.835116382573     1.007825032230
         H           -2.194845761726     1.656203997068    -1.567739617427     1.007825032230
         H           -3.331002761726    -1.998330002932     1.600661382573     1.007825032230
         H           -4.359251761726     0.418477997068    -1.809945617427     1.007825032230
         H           -4.918567761726    -1.412849002932    -0.221780617427     1.007825032230

  Basis Set: AUG-CC-PVTZ
    Blend: AUG-CC-PVTZ
  Basis Set: (AUG-CC-PVTZ AUX)
    Blend: AUG-CC-PVTZ-JKFIT
	 Reference Energy          =    -590.3315610318637709 [Eh]
	 Singles Energy            =      -0.0000000000000000 [Eh]
	 Same-Spin Energy          =      -0.6439999548948133 [Eh]
	 Opposite-Spin Energy      =      -1.9814824740100794 [Eh]
	 Correlation Energy        =      -2.6254824289048928 [Eh]
	 Total Energy              =    -592.9570434607686593 [Eh]

	 ================> DF-SCS-MP2 Energies <==================
	-----------------------------------------------------------
	 SCS Same-Spin Scale       =       0.3333333333333333 [-]
	 SCS Opposite-Spin Scale   =       1.2000000000000000 [-]
	 SCS Same-Spin Energy      =      -0.2146666516316044 [Eh]
	 SCS Opposite-Spin Energy  =      -2.3777789688120952 [Eh]
	 SCS Correlation Energy    =      -2.5924456204436996 [Eh]
	 SCS Total Energy          =    -592.9240066523075257 [Eh]
	-----------------------------------------------------------

  Dipole Moment: [D]
     X:     2.0167      Y:    -0.1838      Z:     0.1563     Total:     2.0311

*** Psi4 exiting successfully. Buy a developer a beer!
