                               Psi4 1.3.2 release

  ==> Input File <==

--------------------------------------------------------------------------
#psi4
#
memory 32 gb

molecule  {
0 1
  O       -0.4771680     1.3164760     0.3008390
  N        0.7985240    -0.5535590    -0.2772820
  C        3.2200150    -0.4235850    -0.1586420
  C        0.7425440     0.7008700     0.1517020
  C       -1.6208490     0.5302780     0.1412880
  C        3.1140170     0.9030370     0.2913960
  C        1.8635217     1.4674441     0.5012996
  C        2.0264240    -1.0936290    -0.4226860
  C        4.5555360    -1.0893210    -0.3460000
  C       -1.9196720    -0.4880720     1.0459920
  C       -2.4970780     0.8728280    -0.8843220
  C       -3.1225630    -1.1795470     0.9070330
  C       -3.7017300     0.1773150    -1.0087090
  C       -4.0153870    -0.8504980    -0.1174150
  H        4.0120030     1.4769520     0.5152690
  H        1.7375180     2.5038470     0.8013060
  H        2.0412640    -2.1246280    -0.7760920
  H        5.1157190    -1.1239590     0.5937180
  H        4.4318450    -2.1155640    -0.7023530
  H        5.1668890    -0.5502680    -1.0765200
  H       -1.2183070    -0.7290930     1.8393240
  H       -2.2288450     1.6771480    -1.5635320
  H       -3.3650020    -1.9773860     1.6048690
  H       -4.3932510     0.4394220    -1.8057380
  H       -4.9525670    -1.3919050    -0.2175730
units angstrom
no_reorient  #important for SAPT in psi4, default
symmetry c1  #important for SAPT in psi4, default
}

set PROPERTIES_ORIGIN ["COM"]
properties('MP2/aug-cc-pvtz', properties = ['dipole'])
--------------------------------------------------------------------------

    Molecular point group: c1
  Charge       = 0
  Multiplicity = 1
  Basis Set: AUG-CC-PVTZ
    Blend: AUG-CC-PVTZ
  Basis Set: (AUG-CC-PVTZ AUX)
    Blend: AUG-CC-PVTZ-JKFIT

    Orbital Energies [Eh]
    ---------------------

    Doubly Occupied:

       1A    -20.598522     2A    -15.563416     3A    -11.340866
       4A    -11.295637     5A    -11.277493     6A    -11.261729
       7A    -11.243253     8A    -11.241334     9A    -11.236730
      10A    -11.236630    11A    -11.232800    12A    -11.232069
      13A    -11.231314    14A    -11.230437    15A     -1.430699
      16A     -1.253485    17A     -1.145852    18A     -1.102532
      19A     -1.052901    20A     -1.015240    21A     -1.003727
      22A     -0.942927    23A     -0.877621    24A     -0.842073
      25A     -0.830643    26A     -0.800836    27A     -0.736827
      28A     -0.704624    29A     -0.679180    30A     -0.655570
      31A     -0.642865    32A     -0.626191    33A     -0.611505
      34A     -0.594551    35A     -0.592096    36A     -0.586162
      37A     -0.569319    38A     -0.563206    39A     -0.549648
      40A     -0.521240    41A     -0.513511    42A     -0.511587
      43A     -0.492682    44A     -0.477513    45A     -0.428227
      46A     -0.384331    47A     -0.335393    48A     -0.332352
      49A     -0.313696

  @DF-RHF Final Energy:  -590.33087054054295

   => Energetics <=

    Nuclear Repulsion Energy =            801.7000554234452920
    One-Electron Energy =               -2392.1757693764407122
    Two-Electron Energy =                1000.1448434124524738
    Total Energy =                       -590.3308705405429464
  Basis Set: (AUG-CC-PVTZ AUX)
    Blend: AUG-CC-PVTZ-RI
    Molecular point group: c1

    Geometry (in Angstrom), charge = 0, multiplicity = 1:

       Center              X                  Y                   Z               Mass
    ------------   -----------------  -----------------  -----------------  -----------------
         O           -0.443041924226     1.296567411981     0.293562035662    15.994914619570
         N            0.832650075774    -0.573467588019    -0.284558964338    14.003074004430
         C            3.254141075774    -0.443493588019    -0.165918964338    12.000000000000
         C            0.776670075774     0.680961411981     0.144425035662    12.000000000000
         C           -1.586722924226     0.510369411981     0.134011035662    12.000000000000
         C            3.148143075774     0.883128411981     0.284119035662    12.000000000000
         C            1.897647775774     1.447535511981     0.494022635662    12.000000000000
         C            2.060550075774    -1.113537588019    -0.429962964338    12.000000000000
         C            4.589662075774    -1.109229588019    -0.353276964338    12.000000000000
         C           -1.885545924226    -0.507980588019     1.038715035662    12.000000000000
         C           -2.462951924226     0.852919411981    -0.891598964338    12.000000000000
         C           -3.088436924226    -1.199455588019     0.899756035662    12.000000000000
         C           -3.667603924226     0.157406411981    -1.015985964338    12.000000000000
         C           -3.981260924226    -0.870406588019    -0.124691964338    12.000000000000
         H            4.046129075774     1.457043411981     0.507992035662     1.007825032230
         H            1.771644075774     2.483938411981     0.794029035662     1.007825032230
         H            2.075390075774    -2.144536588019    -0.783368964338     1.007825032230
         H            5.149845075774    -1.143867588019     0.586441035662     1.007825032230
         H            4.465971075774    -2.135472588019    -0.709629964338     1.007825032230
         H            5.201015075774    -0.570176588019    -1.083796964338     1.007825032230
         H           -1.184180924226    -0.749001588019     1.832047035662     1.007825032230
         H           -2.194718924226     1.657239411981    -1.570808964338     1.007825032230
         H           -3.330875924226    -1.997294588019     1.597592035662     1.007825032230
         H           -4.359124924226     0.419513411981    -1.813014964338     1.007825032230
         H           -4.918440924226    -1.411813588019    -0.224849964338     1.007825032230

  Basis Set: AUG-CC-PVTZ
    Blend: AUG-CC-PVTZ
  Basis Set: (AUG-CC-PVTZ AUX)
    Blend: AUG-CC-PVTZ-JKFIT
	 Reference Energy          =    -590.3308705405429464 [Eh]
	 Singles Energy            =      -0.0000000000000000 [Eh]
	 Same-Spin Energy          =      -0.6440265209113758 [Eh]
	 Opposite-Spin Energy      =      -1.9815183293387986 [Eh]
	 Correlation Energy        =      -2.6255448502501744 [Eh]
	 Total Energy              =    -592.9564153907931541 [Eh]

	 ================> DF-SCS-MP2 Energies <==================
	-----------------------------------------------------------
	 SCS Same-Spin Scale       =       0.3333333333333333 [-]
	 SCS Opposite-Spin Scale   =       1.2000000000000000 [-]
	 SCS Same-Spin Energy      =      -0.2146755069704586 [Eh]
	 SCS Opposite-Spin Energy  =      -2.3778219952065580 [Eh]
	 SCS Correlation Energy    =      -2.5924975021770167 [Eh]
	 SCS Total Energy          =    -592.9233680427199715 [Eh]
	-----------------------------------------------------------

  Dipole Moment: [D]
     X:     2.0204      Y:    -0.1829      Z:     0.1320     Total:     2.0329

*** Psi4 exiting successfully. Buy a developer a beer!
