                               Psi4 1.3.2 release

  ==> Input File <==

--------------------------------------------------------------------------
#psi4
#
memory 32 gb

molecule  {
1 1
  N       -2.8138210    -0.0000810     0.0131690
  C       -1.3233890    -0.0000370    -0.0148680
  C        0.7280520     1.2302730    -0.0129860
  C        0.7281180    -1.2302340    -0.0129780
  C       -0.6725800    -1.2264340    -0.0069900
  C       -0.6702950     1.2263948     0.2429919
  C        1.3988940     0.0000390    -0.0107890
  C        1.4942690     2.5253230     0.0134310
  C        1.4944180    -2.5252350     0.0134270
  H       -1.2241800    -2.1659650    -0.0138510
  H       -1.2242990     2.1658960    -0.0138630
  H        2.4879510     0.0000680    -0.0240190
  H       -3.1956820     0.8285560    -0.4636260
  H       -3.1956410    -0.8285950    -0.4638730
  H       -3.1827690    -0.0002330     0.9749950
  H        0.8779320     3.3605910    -0.3276200
  H        1.8358100     2.7495590     1.0289260
  H        2.3762850     2.4675780    -0.6290150
  H        2.3762540    -2.4675350    -0.6292720
  H        0.8780380    -3.3605930    -0.3273260
  H        1.8362550    -2.7492930     1.0288600
units angstrom
no_reorient  #important for SAPT in psi4, default
symmetry c1  #important for SAPT in psi4, default
}

set PROPERTIES_ORIGIN ["COM"]
properties('MP2/aug-cc-pvtz', properties = ['dipole'])
--------------------------------------------------------------------------

    Molecular point group: c1
  Charge       = 1
  Multiplicity = 1
  Basis Set: AUG-CC-PVTZ
    Blend: AUG-CC-PVTZ
  Basis Set: (AUG-CC-PVTZ AUX)
    Blend: AUG-CC-PVTZ-JKFIT

    Orbital Energies [Eh]
    ---------------------

    Doubly Occupied:

       1A    -15.888170     2A    -11.463028     3A    -11.400312
       4A    -11.398117     5A    -11.397998     6A    -11.394359
       7A    -11.371493     8A    -11.346613     9A    -11.345626
      10A     -1.502008    11A     -1.307545    12A     -1.203891
      13A     -1.180798    14A     -1.081538    15A     -1.071418
      16A     -0.987318    17A     -0.964504    18A     -0.949229
      19A     -0.907186    20A     -0.850924    21A     -0.817069
      22A     -0.790226    23A     -0.721215    24A     -0.715548
      25A     -0.706656    26A     -0.691376    27A     -0.679021
      28A     -0.656618    29A     -0.639554    30A     -0.634205
      31A     -0.626165    32A     -0.485708    33A     -0.475642

  @DF-RHF Final Energy:  -364.27480462430879

   => Energetics <=

    Nuclear Repulsion Energy =            431.6123177468209633
    One-Electron Energy =               -1336.4720879103997504
    Two-Electron Energy =                 540.5849655392700015
    Total Energy =                       -364.2748046243087856
  Basis Set: (AUG-CC-PVTZ AUX)
    Blend: AUG-CC-PVTZ-RI
    Molecular point group: c1

    Geometry (in Angstrom), charge = 1, multiplicity = 1:

       Center              X                  Y                   Z               Mass
    ------------   -----------------  -----------------  -----------------  -----------------
         N           -2.808732494814    -0.000080816679    -0.010260632659    14.003074004430
         C           -1.318300494814    -0.000036816679    -0.038297632659    12.000000000000
         C            0.733140505186     1.230273183321    -0.036415632659    12.000000000000
         C            0.733206505186    -1.230233816679    -0.036407632659    12.000000000000
         C           -0.667491494814    -1.226433816679    -0.030419632659    12.000000000000
         C           -0.665206494814     1.226394983321     0.219562267341    12.000000000000
         C            1.403982505186     0.000039183321    -0.034218632659    12.000000000000
         C            1.499357505186     2.525323183321    -0.009998632659    12.000000000000
         C            1.499506505186    -2.525234816679    -0.010002632659    12.000000000000
         H           -1.219091494814    -2.165964816679    -0.037280632659     1.007825032230
         H           -1.219210494814     2.165896183321    -0.037292632659     1.007825032230
         H            2.493039505186     0.000068183321    -0.047448632659     1.007825032230
         H           -3.190593494814     0.828556183321    -0.487055632659     1.007825032230
         H           -3.190552494814    -0.828594816679    -0.487302632659     1.007825032230
         H           -3.177680494814    -0.000232816679     0.951565367341     1.007825032230
         H            0.883020505186     3.360591183321    -0.351049632659     1.007825032230
         H            1.840898505186     2.749559183321     1.005496367341     1.007825032230
         H            2.381373505186     2.467578183321    -0.652444632659     1.007825032230
         H            2.381342505186    -2.467534816679    -0.652701632659     1.007825032230
         H            0.883126505186    -3.360592816679    -0.350755632659     1.007825032230
         H            1.841343505186    -2.749292816679     1.005430367341     1.007825032230

  Basis Set: AUG-CC-PVTZ
    Blend: AUG-CC-PVTZ
  Basis Set: (AUG-CC-PVTZ AUX)
    Blend: AUG-CC-PVTZ-JKFIT
	 Reference Energy          =    -364.2748046243087856 [Eh]
	 Singles Energy            =      -0.0000000000000000 [Eh]
	 Same-Spin Energy          =      -0.3981018154569338 [Eh]
	 Opposite-Spin Energy      =      -1.3080766515840168 [Eh]
	 Correlation Energy        =      -1.7061784670409506 [Eh]
	 Total Energy              =    -365.9809830913497422 [Eh]

	 ================> DF-SCS-MP2 Energies <==================
	-----------------------------------------------------------
	 SCS Same-Spin Scale       =       0.3333333333333333 [-]
	 SCS Opposite-Spin Scale   =       1.2000000000000000 [-]
	 SCS Same-Spin Energy      =      -0.1327006051523112 [Eh]
	 SCS Opposite-Spin Energy  =      -1.5696919819008202 [Eh]
	 SCS Correlation Energy    =      -1.7023925870531313 [Eh]
	 SCS Total Energy          =    -365.9771972113618972 [Eh]
	-----------------------------------------------------------

  Dipole Moment: [D]
     X:    -8.2388      Y:    -0.1227      Z:    -0.0571     Total:     8.2400

*** Psi4 exiting successfully. Buy a developer a beer!
