                               Psi4 1.3.2 release

  ==> Input File <==

--------------------------------------------------------------------------
#psi4
#
memory 32 gb

molecule  {
1 1
  N       -2.8138210    -0.0000810     0.0131690
  C       -1.3233890    -0.0000370    -0.0148680
  C        0.7280520     1.2302730    -0.0129860
  C        0.7281180    -1.2302340    -0.0129780
  C       -0.6725800    -1.2264340    -0.0069900
  C       -0.6707658     1.2263946     0.1929941
  C        1.3988940     0.0000390    -0.0107890
  C        1.4942690     2.5253230     0.0134310
  C        1.4944180    -2.5252350     0.0134270
  H       -1.2241800    -2.1659650    -0.0138510
  H       -1.2242990     2.1658960    -0.0138630
  H        2.4879510     0.0000680    -0.0240190
  H       -3.1956820     0.8285560    -0.4636260
  H       -3.1956410    -0.8285950    -0.4638730
  H       -3.1827690    -0.0002330     0.9749950
  H        0.8779320     3.3605910    -0.3276200
  H        1.8358100     2.7495590     1.0289260
  H        2.3762850     2.4675780    -0.6290150
  H        2.3762540    -2.4675350    -0.6292720
  H        0.8780380    -3.3605930    -0.3273260
  H        1.8362550    -2.7492930     1.0288600
units angstrom
no_reorient  #important for SAPT in psi4, default
symmetry c1  #important for SAPT in psi4, default
}

set PROPERTIES_ORIGIN ["COM"]
properties('MP2/aug-cc-pvtz', properties = ['dipole'])
--------------------------------------------------------------------------

    Molecular point group: c1
  Charge       = 1
  Multiplicity = 1
  Basis Set: AUG-CC-PVTZ
    Blend: AUG-CC-PVTZ
  Basis Set: (AUG-CC-PVTZ AUX)
    Blend: AUG-CC-PVTZ-JKFIT

    Orbital Energies [Eh]
    ---------------------

    Doubly Occupied:

       1A    -15.888366     2A    -11.461616     3A    -11.398331
       4A    -11.396790     5A    -11.396555     6A    -11.394141
       7A    -11.371517     8A    -11.346019     9A    -11.345385
      10A     -1.502196    11A     -1.308130    12A     -1.204247
      13A     -1.181216    14A     -1.082067    15A     -1.071036
      16A     -0.987832    17A     -0.965034    18A     -0.949393
      19A     -0.907377    20A     -0.852442    21A     -0.818195
      22A     -0.791873    23A     -0.721892    24A     -0.715507
      25A     -0.708238    26A     -0.690984    27A     -0.679094
      28A     -0.656681    29A     -0.640226    30A     -0.634188
      31A     -0.627122    32A     -0.485954    33A     -0.475417

  @DF-RHF Final Energy:  -364.28175128561560

   => Energetics <=

    Nuclear Repulsion Energy =            431.8702270277894968
    One-Electron Energy =               -1336.9938374864382240
    Two-Electron Energy =                 540.8418591730330718
    Total Energy =                       -364.2817512856156554
  Basis Set: (AUG-CC-PVTZ AUX)
    Blend: AUG-CC-PVTZ-RI
    Molecular point group: c1

    Geometry (in Angstrom), charge = 1, multiplicity = 1:

       Center              X                  Y                   Z               Mass
    ------------   -----------------  -----------------  -----------------  -----------------
         N           -2.808686223397    -0.000080797022    -0.005346722196    14.003074004430
         C           -1.318254223397    -0.000036797022    -0.033383722196    12.000000000000
         C            0.733186776603     1.230273202978    -0.031501722196    12.000000000000
         C            0.733252776603    -1.230233797022    -0.031493722196    12.000000000000
         C           -0.667445223397    -1.226433797022    -0.025505722196    12.000000000000
         C           -0.665631023397     1.226394802978     0.174478377804    12.000000000000
         C            1.404028776603     0.000039202978    -0.029304722196    12.000000000000
         C            1.499403776603     2.525323202978    -0.005084722196    12.000000000000
         C            1.499552776603    -2.525234797022    -0.005088722196    12.000000000000
         H           -1.219045223397    -2.165964797022    -0.032366722196     1.007825032230
         H           -1.219164223397     2.165896202978    -0.032378722196     1.007825032230
         H            2.493085776603     0.000068202978    -0.042534722196     1.007825032230
         H           -3.190547223397     0.828556202978    -0.482141722196     1.007825032230
         H           -3.190506223397    -0.828594797022    -0.482388722196     1.007825032230
         H           -3.177634223397    -0.000232797022     0.956479277804     1.007825032230
         H            0.883066776603     3.360591202978    -0.346135722196     1.007825032230
         H            1.840944776603     2.749559202978     1.010410277804     1.007825032230
         H            2.381419776603     2.467578202978    -0.647530722196     1.007825032230
         H            2.381388776603    -2.467534797022    -0.647787722196     1.007825032230
         H            0.883172776603    -3.360592797022    -0.345841722196     1.007825032230
         H            1.841389776603    -2.749292797022     1.010344277804     1.007825032230

  Basis Set: AUG-CC-PVTZ
    Blend: AUG-CC-PVTZ
  Basis Set: (AUG-CC-PVTZ AUX)
    Blend: AUG-CC-PVTZ-JKFIT
	 Reference Energy          =    -364.2817512856155986 [Eh]
	 Singles Energy            =      -0.0000000000000000 [Eh]
	 Same-Spin Energy          =      -0.3977823539702134 [Eh]
	 Opposite-Spin Energy      =      -1.3070813770595926 [Eh]
	 Correlation Energy        =      -1.7048637310298060 [Eh]
	 Total Energy              =    -365.9866150166454304 [Eh]

	 ================> DF-SCS-MP2 Energies <==================
	-----------------------------------------------------------
	 SCS Same-Spin Scale       =       0.3333333333333333 [-]
	 SCS Opposite-Spin Scale   =       1.2000000000000000 [-]
	 SCS Same-Spin Energy      =      -0.1325941179900711 [Eh]
	 SCS Opposite-Spin Energy  =      -1.5684976524715111 [Eh]
	 SCS Correlation Energy    =      -1.7010917704615822 [Eh]
	 SCS Total Energy          =    -365.9828430560771722 [Eh]
	-----------------------------------------------------------

  Dipole Moment: [D]
     X:    -8.2840      Y:    -0.0810      Z:    -0.0105     Total:     8.2844

*** Psi4 exiting successfully. Buy a developer a beer!
