                               Psi4 1.3.2 release

  ==> Input File <==

--------------------------------------------------------------------------
#psi4
#
memory 32 gb

molecule  {
1 1
  N       -2.8138210    -0.0000810     0.0131690
  C       -1.3233890    -0.0000370    -0.0148680
  C        0.7280520     1.2302730    -0.0129860
  C        0.7281180    -1.2302340    -0.0129780
  C       -0.6725800    -1.2264340    -0.0069900
  C       -0.6712366     1.2263945     0.1429964
  C        1.3988940     0.0000390    -0.0107890
  C        1.4942690     2.5253230     0.0134310
  C        1.4944180    -2.5252350     0.0134270
  H       -1.2241800    -2.1659650    -0.0138510
  H       -1.2242990     2.1658960    -0.0138630
  H        2.4879510     0.0000680    -0.0240190
  H       -3.1956820     0.8285560    -0.4636260
  H       -3.1956410    -0.8285950    -0.4638730
  H       -3.1827690    -0.0002330     0.9749950
  H        0.8779320     3.3605910    -0.3276200
  H        1.8358100     2.7495590     1.0289260
  H        2.3762850     2.4675780    -0.6290150
  H        2.3762540    -2.4675350    -0.6292720
  H        0.8780380    -3.3605930    -0.3273260
  H        1.8362550    -2.7492930     1.0288600
units angstrom
no_reorient  #important for SAPT in psi4, default
symmetry c1  #important for SAPT in psi4, default
}

set PROPERTIES_ORIGIN ["COM"]
properties('MP2/aug-cc-pvtz', properties = ['dipole'])
--------------------------------------------------------------------------

    Molecular point group: c1
  Charge       = 1
  Multiplicity = 1
  Basis Set: AUG-CC-PVTZ
    Blend: AUG-CC-PVTZ
  Basis Set: (AUG-CC-PVTZ AUX)
    Blend: AUG-CC-PVTZ-JKFIT

    Orbital Energies [Eh]
    ---------------------

    Doubly Occupied:

       1A    -15.888518     2A    -11.460476     3A    -11.396787
       4A    -11.395887     5A    -11.395274     6A    -11.393942
       7A    -11.371543     8A    -11.345563     9A    -11.345199
      10A     -1.502343    11A     -1.308610    12A     -1.204526
      13A     -1.181555    14A     -1.082477    15A     -1.070745
      16A     -0.988268    17A     -0.965452    18A     -0.949517
      19A     -0.907550    20A     -0.853796    21A     -0.819140
      22A     -0.793150    23A     -0.722662    24A     -0.715439
      25A     -0.709375    26A     -0.690677    27A     -0.679120
      28A     -0.656746    29A     -0.640683    30A     -0.634272
      31A     -0.627769    32A     -0.486168    33A     -0.475248

  @DF-RHF Final Energy:  -364.28715325937776

   => Energetics <=

    Nuclear Repulsion Energy =            432.0733811000590663
    One-Electron Energy =               -1337.4041132264937914
    Two-Electron Energy =                 541.0435788670569082
    Total Energy =                       -364.2871532593777602
  Basis Set: (AUG-CC-PVTZ AUX)
    Blend: AUG-CC-PVTZ-RI
    Molecular point group: c1

    Geometry (in Angstrom), charge = 1, multiplicity = 1:

       Center              X                  Y                   Z               Mass
    ------------   -----------------  -----------------  -----------------  -----------------
         N           -2.808639951981    -0.000080787194    -0.000432821561    14.003074004430
         C           -1.318207951981    -0.000036787194    -0.028469821561    12.000000000000
         C            0.733233048019     1.230273212806    -0.026587821561    12.000000000000
         C            0.733299048019    -1.230233787194    -0.026579821561    12.000000000000
         C           -0.667398951981    -1.226433787194    -0.020591821561    12.000000000000
         C           -0.666055551981     1.226394712806     0.129394578439    12.000000000000
         C            1.404075048019     0.000039212806    -0.024390821561    12.000000000000
         C            1.499450048019     2.525323212806    -0.000170821561    12.000000000000
         C            1.499599048019    -2.525234787194    -0.000174821561    12.000000000000
         H           -1.218998951981    -2.165964787194    -0.027452821561     1.007825032230
         H           -1.219117951981     2.165896212806    -0.027464821561     1.007825032230
         H            2.493132048019     0.000068212806    -0.037620821561     1.007825032230
         H           -3.190500951981     0.828556212806    -0.477227821561     1.007825032230
         H           -3.190459951981    -0.828594787194    -0.477474821561     1.007825032230
         H           -3.177587951981    -0.000232787194     0.961393178439     1.007825032230
         H            0.883113048019     3.360591212806    -0.341221821561     1.007825032230
         H            1.840991048019     2.749559212806     1.015324178439     1.007825032230
         H            2.381466048019     2.467578212806    -0.642616821561     1.007825032230
         H            2.381435048019    -2.467534787194    -0.642873821561     1.007825032230
         H            0.883219048019    -3.360592787194    -0.340927821561     1.007825032230
         H            1.841436048019    -2.749292787194     1.015258178439     1.007825032230

  Basis Set: AUG-CC-PVTZ
    Blend: AUG-CC-PVTZ
  Basis Set: (AUG-CC-PVTZ AUX)
    Blend: AUG-CC-PVTZ-JKFIT
	 Reference Energy          =    -364.2871532593777602 [Eh]
	 Singles Energy            =      -0.0000000000000000 [Eh]
	 Same-Spin Energy          =      -0.3975228137315796 [Eh]
	 Opposite-Spin Energy      =      -1.3062989453986773 [Eh]
	 Correlation Energy        =      -1.7038217591302569 [Eh]
	 Total Energy              =    -365.9909750185080384 [Eh]

	 ================> DF-SCS-MP2 Energies <==================
	-----------------------------------------------------------
	 SCS Same-Spin Scale       =       0.3333333333333333 [-]
	 SCS Opposite-Spin Scale   =       1.2000000000000000 [-]
	 SCS Same-Spin Energy      =      -0.1325076045771932 [Eh]
	 SCS Opposite-Spin Energy  =      -1.5675587344784128 [Eh]
	 SCS Correlation Energy    =      -1.7000663390556059 [Eh]
	 SCS Total Energy          =    -365.9872195984333416 [Eh]
	-----------------------------------------------------------

  Dipole Moment: [D]
     X:    -8.3196      Y:    -0.0476      Z:     0.0354     Total:     8.3198

*** Psi4 exiting successfully. Buy a developer a beer!
