                               Psi4 1.3.2 release

  ==> Input File <==

--------------------------------------------------------------------------
#psi4
#
memory 32 gb

molecule  {
1 1
  N       -2.8138210    -0.0000810     0.0131690
  C       -1.3233890    -0.0000370    -0.0148680
  C        0.7280520     1.2302730    -0.0129860
  C        0.7281180    -1.2302340    -0.0129780
  C       -0.6725800    -1.2264340    -0.0069900
  C       -0.6721782     1.2263942     0.0430008
  C        1.3988940     0.0000390    -0.0107890
  C        1.4942690     2.5253230     0.0134310
  C        1.4944180    -2.5252350     0.0134270
  H       -1.2241800    -2.1659650    -0.0138510
  H       -1.2242990     2.1658960    -0.0138630
  H        2.4879510     0.0000680    -0.0240190
  H       -3.1956820     0.8285560    -0.4636260
  H       -3.1956410    -0.8285950    -0.4638730
  H       -3.1827690    -0.0002330     0.9749950
  H        0.8779320     3.3605910    -0.3276200
  H        1.8358100     2.7495590     1.0289260
  H        2.3762850     2.4675780    -0.6290150
  H        2.3762540    -2.4675350    -0.6292720
  H        0.8780380    -3.3605930    -0.3273260
  H        1.8362550    -2.7492930     1.0288600
units angstrom
no_reorient  #important for SAPT in psi4, default
symmetry c1  #important for SAPT in psi4, default
}

set PROPERTIES_ORIGIN ["COM"]
properties('MP2/aug-cc-pvtz', properties = ['dipole'])
--------------------------------------------------------------------------

    Molecular point group: c1
  Charge       = 1
  Multiplicity = 1
  Basis Set: AUG-CC-PVTZ
    Blend: AUG-CC-PVTZ
  Basis Set: (AUG-CC-PVTZ AUX)
    Blend: AUG-CC-PVTZ-JKFIT

    Orbital Energies [Eh]
    ---------------------

    Doubly Occupied:

       1A    -15.888690     2A    -11.459111     3A    -11.395039
       4A    -11.394948     5A    -11.393715     6A    -11.393597
       7A    -11.371565     8A    -11.345046     9A    -11.344995
      10A     -1.502520    11A     -1.309183    12A     -1.204833
      13A     -1.181982    14A     -1.082987    15A     -1.070422
      16A     -0.988804    17A     -0.965956    18A     -0.949652
      19A     -0.907780    20A     -0.855629    21A     -0.820308
      22A     -0.794635    23A     -0.723873    24A     -0.715355
      25A     -0.710563    26A     -0.690347    27A     -0.679114
      28A     -0.656845    29A     -0.641112    30A     -0.634539
      31A     -0.628398    32A     -0.486417    33A     -0.475048

  @DF-RHF Final Energy:  -364.29344112829199

   => Energetics <=

    Nuclear Repulsion Energy =            432.3081889713625401
    One-Electron Energy =               -1337.8772416734700528
    Two-Electron Energy =                 541.2756115738154676
    Total Energy =                       -364.2934411282919882
  Basis Set: (AUG-CC-PVTZ AUX)
    Blend: AUG-CC-PVTZ-RI
    Molecular point group: c1

    Geometry (in Angstrom), charge = 1, multiplicity = 1:

       Center              X                  Y                   Z               Mass
    ------------   -----------------  -----------------  -----------------  -----------------
         N           -2.808547409147    -0.000080757709     0.009394999366    14.003074004430
         C           -1.318115409147    -0.000036757709    -0.018642000634    12.000000000000
         C            0.733325590853     1.230273242291    -0.016760000634    12.000000000000
         C            0.733391590853    -1.230233757709    -0.016752000634    12.000000000000
         C           -0.667306409147    -1.226433757709    -0.010764000634    12.000000000000
         C           -0.666904609147     1.226394442291     0.039226799366    12.000000000000
         C            1.404167590853     0.000039242291    -0.014563000634    12.000000000000
         C            1.499542590853     2.525323242291     0.009656999366    12.000000000000
         C            1.499691590853    -2.525234757709     0.009652999366    12.000000000000
         H           -1.218906409147    -2.165964757709    -0.017625000634     1.007825032230
         H           -1.219025409147     2.165896242291    -0.017637000634     1.007825032230
         H            2.493224590853     0.000068242291    -0.027793000634     1.007825032230
         H           -3.190408409147     0.828556242291    -0.467400000634     1.007825032230
         H           -3.190367409147    -0.828594757709    -0.467647000634     1.007825032230
         H           -3.177495409147    -0.000232757709     0.971220999366     1.007825032230
         H            0.883205590853     3.360591242291    -0.331394000634     1.007825032230
         H            1.841083590853     2.749559242291     1.025151999366     1.007825032230
         H            2.381558590853     2.467578242291    -0.632789000634     1.007825032230
         H            2.381527590853    -2.467534757709    -0.633046000634     1.007825032230
         H            0.883311590853    -3.360592757709    -0.331100000634     1.007825032230
         H            1.841528590853    -2.749292757709     1.025085999366     1.007825032230

  Basis Set: AUG-CC-PVTZ
    Blend: AUG-CC-PVTZ
  Basis Set: (AUG-CC-PVTZ AUX)
    Blend: AUG-CC-PVTZ-JKFIT
	 Reference Energy          =    -364.2934411282919882 [Eh]
	 Singles Energy            =      -0.0000000000000000 [Eh]
	 Same-Spin Energy          =      -0.3972067506977359 [Eh]
	 Opposite-Spin Energy      =      -1.3054175525328109 [Eh]
	 Correlation Energy        =      -1.7026243032305468 [Eh]
	 Total Energy              =    -365.9960654315225383 [Eh]

	 ================> DF-SCS-MP2 Energies <==================
	-----------------------------------------------------------
	 SCS Same-Spin Scale       =       0.3333333333333333 [-]
	 SCS Opposite-Spin Scale   =       1.2000000000000000 [-]
	 SCS Same-Spin Energy      =      -0.1324022502325786 [Eh]
	 SCS Opposite-Spin Energy  =      -1.5665010630393730 [Eh]
	 SCS Correlation Energy    =      -1.6989033132719515 [Eh]
	 SCS Total Energy          =    -365.9923444415639437 [Eh]
	-----------------------------------------------------------

  Dipole Moment: [D]
     X:    -8.3609      Y:    -0.0070      Z:     0.1255     Total:     8.3618

*** Psi4 exiting successfully. Buy a developer a beer!
