                               Psi4 1.3.2 release

  ==> Input File <==

--------------------------------------------------------------------------
#psi4
#
memory 32 gb

molecule  {
1 1
  N       -2.8138210    -0.0000810     0.0131690
  C       -1.3233890    -0.0000370    -0.0148680
  C        0.7280520     1.2302730    -0.0129860
  C        0.7281180    -1.2302340    -0.0129780
  C       -0.6725800    -1.2264340    -0.0069900
  C       -0.6717074     1.2263943     0.0929986
  C        1.3988940     0.0000390    -0.0107890
  C        1.4942690     2.5253230     0.0134310
  C        1.4944180    -2.5252350     0.0134270
  H       -1.2241800    -2.1659650    -0.0138510
  H       -1.2242990     2.1658960    -0.0138630
  H        2.4879510     0.0000680    -0.0240190
  H       -3.1956820     0.8285560    -0.4636260
  H       -3.1956410    -0.8285950    -0.4638730
  H       -3.1827690    -0.0002330     0.9749950
  H        0.8779320     3.3605910    -0.3276200
  H        1.8358100     2.7495590     1.0289260
  H        2.3762850     2.4675780    -0.6290150
  H        2.3762540    -2.4675350    -0.6292720
  H        0.8780380    -3.3605930    -0.3273260
  H        1.8362550    -2.7492930     1.0288600
units angstrom
no_reorient  #important for SAPT in psi4, default
symmetry c1  #important for SAPT in psi4, default
}

set PROPERTIES_ORIGIN ["COM"]
properties('MP2/aug-cc-pvtz', properties = ['dipole'])
--------------------------------------------------------------------------

    Molecular point group: c1
  Charge       = 1
  Multiplicity = 1
  Basis Set: AUG-CC-PVTZ
    Blend: AUG-CC-PVTZ
  Basis Set: (AUG-CC-PVTZ AUX)
    Blend: AUG-CC-PVTZ-JKFIT

    Orbital Energies [Eh]
    ---------------------

    Doubly Occupied:

       1A    -15.888626     2A    -11.459635     3A    -11.395690
       4A    -11.395285     5A    -11.394314     6A    -11.393754
       7A    -11.371562     8A    -11.345240     9A    -11.345069
      10A     -1.502451    11A     -1.308966    12A     -1.204723
      13A     -1.181811    14A     -1.082781    15A     -1.070542
      16A     -0.988599    17A     -0.965759    18A     -0.949603
      19A     -0.907690    20A     -0.854886    21A     -0.819855
      22A     -0.794066    23A     -0.723364    24A     -0.715380
      25A     -0.710130    26A     -0.690464    27A     -0.679122
      28A     -0.656804    29A     -0.640968    30A     -0.634408
      31A     -0.628173    32A     -0.486328    33A     -0.475127

  @DF-RHF Final Energy:  -364.29104053672944

   => Energetics <=

    Nuclear Repulsion Energy =            432.2198507191404815
    One-Electron Energy =               -1337.6994386790786393
    Two-Electron Energy =                 541.1885474232086608
    Total Energy =                       -364.2910405367294970
  Basis Set: (AUG-CC-PVTZ AUX)
    Blend: AUG-CC-PVTZ-RI
    Molecular point group: c1

    Geometry (in Angstrom), charge = 1, multiplicity = 1:

       Center              X                  Y                   Z               Mass
    ------------   -----------------  -----------------  -----------------  -----------------
         N           -2.808593680564    -0.000080767538     0.004481088902    14.003074004430
         C           -1.318161680564    -0.000036767538    -0.023555911098    12.000000000000
         C            0.733279319436     1.230273232462    -0.021673911098    12.000000000000
         C            0.733345319436    -1.230233767538    -0.021665911098    12.000000000000
         C           -0.667352680564    -1.226433767538    -0.015677911098    12.000000000000
         C           -0.666480080564     1.226394532462     0.084310688902    12.000000000000
         C            1.404121319436     0.000039232462    -0.019476911098    12.000000000000
         C            1.499496319436     2.525323232462     0.004743088902    12.000000000000
         C            1.499645319436    -2.525234767538     0.004739088902    12.000000000000
         H           -1.218952680564    -2.165964767538    -0.022538911098     1.007825032230
         H           -1.219071680564     2.165896232462    -0.022550911098     1.007825032230
         H            2.493178319436     0.000068232462    -0.032706911098     1.007825032230
         H           -3.190454680564     0.828556232462    -0.472313911098     1.007825032230
         H           -3.190413680564    -0.828594767538    -0.472560911098     1.007825032230
         H           -3.177541680564    -0.000232767538     0.966307088902     1.007825032230
         H            0.883159319436     3.360591232462    -0.336307911098     1.007825032230
         H            1.841037319436     2.749559232462     1.020238088902     1.007825032230
         H            2.381512319436     2.467578232462    -0.637702911098     1.007825032230
         H            2.381481319436    -2.467534767538    -0.637959911098     1.007825032230
         H            0.883265319436    -3.360592767538    -0.336013911098     1.007825032230
         H            1.841482319436    -2.749292767538     1.020172088902     1.007825032230

  Basis Set: AUG-CC-PVTZ
    Blend: AUG-CC-PVTZ
  Basis Set: (AUG-CC-PVTZ AUX)
    Blend: AUG-CC-PVTZ-JKFIT
	 Reference Energy          =    -364.2910405367294402 [Eh]
	 Singles Energy            =      -0.0000000000000000 [Eh]
	 Same-Spin Energy          =      -0.3973294392281781 [Eh]
	 Opposite-Spin Energy      =      -1.3057422764951263 [Eh]
	 Correlation Energy        =      -1.7030717157233044 [Eh]
	 Total Energy              =    -365.9941122524527373 [Eh]

	 ================> DF-SCS-MP2 Energies <==================
	-----------------------------------------------------------
	 SCS Same-Spin Scale       =       0.3333333333333333 [-]
	 SCS Opposite-Spin Scale   =       1.2000000000000000 [-]
	 SCS Same-Spin Energy      =      -0.1324431464093927 [Eh]
	 SCS Opposite-Spin Energy  =      -1.5668907317941516 [Eh]
	 SCS Correlation Energy    =      -1.6993338782035443 [Eh]
	 SCS Total Energy          =    -365.9903744149330009 [Eh]
	-----------------------------------------------------------

  Dipole Moment: [D]
     X:    -8.3453      Y:    -0.0228      Z:     0.0807     Total:     8.3457

*** Psi4 exiting successfully. Buy a developer a beer!
