                               Psi4 1.3.2 release

  ==> Input File <==

--------------------------------------------------------------------------
#psi4
#
memory 32 gb

molecule  {
1 1
  N       -2.8138210    -0.0000810     0.0131690
  C       -1.3233890    -0.0000370    -0.0148680
  C        0.7280520     1.2302730    -0.0129860
  C        0.7281180    -1.2302340    -0.0129780
  C       -0.6725800    -1.2264340    -0.0069900
  C       -0.6726490     1.2263940    -0.0069970
  C        1.3988940     0.0000390    -0.0107890
  C        1.4942690     2.5253230     0.0134310
  C        1.4944180    -2.5252350     0.0134270
  H       -1.2241800    -2.1659650    -0.0138510
  H       -1.2242990     2.1658960    -0.0138630
  H        2.4879510     0.0000680    -0.0240190
  H       -3.1956820     0.8285560    -0.4636260
  H       -3.1956410    -0.8285950    -0.4638730
  H       -3.1827690    -0.0002330     0.9749950
  H        0.8779320     3.3605910    -0.3276200
  H        1.8358100     2.7495590     1.0289260
  H        2.3762850     2.4675780    -0.6290150
  H        2.3762540    -2.4675350    -0.6292720
  H        0.8780380    -3.3605930    -0.3273260
  H        1.8362550    -2.7492930     1.0288600
units angstrom
no_reorient  #important for SAPT in psi4, default
symmetry c1  #important for SAPT in psi4, default
}

set PROPERTIES_ORIGIN ["COM"]
properties('MP2/aug-cc-pvtz', properties = ['dipole'])
--------------------------------------------------------------------------

    Molecular point group: c1
  Charge       = 1
  Multiplicity = 1
  Basis Set: AUG-CC-PVTZ
    Blend: AUG-CC-PVTZ
  Basis Set: (AUG-CC-PVTZ AUX)
    Blend: AUG-CC-PVTZ-JKFIT

    Orbital Energies [Eh]
    ---------------------

    Doubly Occupied:

       1A    -15.888709     2A    -11.458916     3A    -11.394834
       4A    -11.394824     5A    -11.393506     6A    -11.393504
       7A    -11.371543     8A    -11.344978     9A    -11.344978
      10A     -1.502551    11A     -1.309250    12A     -1.204854
      13A     -1.182064    14A     -1.083098    15A     -1.070381
      16A     -0.988867    17A     -0.966042    18A     -0.949666
      19A     -0.907809    20A     -0.855965    21A     -0.820478
      22A     -0.794863    23A     -0.724111    24A     -0.715379
      25A     -0.710723    26A     -0.690330    27A     -0.679100
      28A     -0.656863    29A     -0.641131    30A     -0.634620
      31A     -0.628493    32A     -0.486425    33A     -0.475005

  @DF-RHF Final Energy:  -364.29437647827740

   => Energetics <=

    Nuclear Repulsion Energy =            432.3374917219460940
    One-Electron Energy =               -1337.9360166708470388
    Two-Electron Energy =                 541.3041484706235451
    Total Energy =                       -364.2943764782773997
  Basis Set: (AUG-CC-PVTZ AUX)
    Blend: AUG-CC-PVTZ-RI
    Molecular point group: c1

    Geometry (in Angstrom), charge = 1, multiplicity = 1:

       Center              X                  Y                   Z               Mass
    ------------   -----------------  -----------------  -----------------  -----------------
         N           -2.808501137730    -0.000080738053     0.014308909829    14.003074004430
         C           -1.318069137730    -0.000036738053    -0.013728090171    12.000000000000
         C            0.733371862270     1.230273261947    -0.011846090171    12.000000000000
         C            0.733437862270    -1.230233738053    -0.011838090171    12.000000000000
         C           -0.667260137730    -1.226433738053    -0.005850090171    12.000000000000
         C           -0.667329137730     1.226394261947    -0.005857090171    12.000000000000
         C            1.404213862270     0.000039261947    -0.009649090171    12.000000000000
         C            1.499588862270     2.525323261947     0.014570909829    12.000000000000
         C            1.499737862270    -2.525234738053     0.014566909829    12.000000000000
         H           -1.218860137730    -2.165964738053    -0.012711090171     1.007825032230
         H           -1.218979137730     2.165896261947    -0.012723090171     1.007825032230
         H            2.493270862270     0.000068261947    -0.022879090171     1.007825032230
         H           -3.190362137730     0.828556261947    -0.462486090171     1.007825032230
         H           -3.190321137730    -0.828594738053    -0.462733090171     1.007825032230
         H           -3.177449137730    -0.000232738053     0.976134909829     1.007825032230
         H            0.883251862270     3.360591261947    -0.326480090171     1.007825032230
         H            1.841129862270     2.749559261947     1.030065909829     1.007825032230
         H            2.381604862270     2.467578261947    -0.627875090171     1.007825032230
         H            2.381573862270    -2.467534738053    -0.628132090171     1.007825032230
         H            0.883357862270    -3.360592738053    -0.326186090171     1.007825032230
         H            1.841574862270    -2.749292738053     1.029999909829     1.007825032230

  Basis Set: AUG-CC-PVTZ
    Blend: AUG-CC-PVTZ
  Basis Set: (AUG-CC-PVTZ AUX)
    Blend: AUG-CC-PVTZ-JKFIT
	 Reference Energy          =    -364.2943764782773997 [Eh]
	 Singles Energy            =      -0.0000000000000000 [Eh]
	 Same-Spin Energy          =      -0.3971568498865015 [Eh]
	 Opposite-Spin Energy      =      -1.3053100283115773 [Eh]
	 Correlation Energy        =      -1.7024668781980787 [Eh]
	 Total Energy              =    -365.9968433564754946 [Eh]

	 ================> DF-SCS-MP2 Energies <==================
	-----------------------------------------------------------
	 SCS Same-Spin Scale       =       0.3333333333333333 [-]
	 SCS Opposite-Spin Scale   =       1.2000000000000000 [-]
	 SCS Same-Spin Energy      =      -0.1323856166288338 [Eh]
	 SCS Opposite-Spin Energy  =      -1.5663720339738927 [Eh]
	 SCS Correlation Energy    =      -1.6987576506027264 [Eh]
	 SCS Total Energy          =    -365.9931341288801150 [Eh]
	-----------------------------------------------------------

  Dipole Moment: [D]
     X:    -8.3663      Y:    -0.0002      Z:     0.1702     Total:     8.3680

*** Psi4 exiting successfully. Buy a developer a beer!
