                               Psi4 1.4a3.dev225

  ==> Input File <==

--------------------------------------------------------------------------
#psi4
#
memory 32 gb

molecule  {
0 1
  O        2.5396650    -0.5551780     0.7057380
  C        0.3025760    -0.4378200    -0.2720190
  C       -0.0927650     0.9034730    -0.0869930
  C        1.7537560    -0.7902540    -0.4711970
  C       -0.6504930    -1.4595100    -0.1921940
  C       -1.4454780     1.1756780     0.1425470
  C        0.9085990     2.0263450    -0.1815640
  C       -1.9974120    -1.1732570     0.0382800
  C       -2.3931980     0.1517110     0.2151080
  H        1.8374090    -1.8385530    -0.7929100
  H        2.2124050    -0.1698090    -1.2460060
  H       -0.3343640    -2.4925800    -0.3335330
  H       -1.7609160     2.2085530     0.2816270
  H        1.8064607     1.7414708     0.3706382
  H        1.2313290     2.1813940    -1.2178320
  H        0.4699250     2.9630620     0.1727880
  H       -2.7264860    -1.9781040     0.0926730
  H       -3.4380290     0.3918270     0.3981780
  H        2.0803190    -1.0071740     1.4349120
units angstrom
no_reorient  #important for SAPT in psi4, default
symmetry c1  #important for SAPT in psi4, default
}

set PROPERTIES_ORIGIN ["COM"]
properties('MP2/aug-cc-pvtz', properties = ['dipole'])
--------------------------------------------------------------------------

    Molecular point group: c1
  Charge       = 0
  Multiplicity = 1
  Basis Set: AUG-CC-PVTZ
    Blend: AUG-CC-PVTZ
  Basis Set: (AUG-CC-PVTZ AUX)
    Blend: AUG-CC-PVTZ-JKFIT

    Orbital Energies [Eh]
    ---------------------

    Doubly Occupied:

       1A    -20.561521     2A    -11.283129     3A    -11.245611
       4A    -11.240171     5A    -11.238707     6A    -11.238042
       7A    -11.234930     8A    -11.233234     9A    -11.219736
      10A     -1.358024    11A     -1.157563    12A     -1.049617
      13A     -1.032632    14A     -0.943643    15A     -0.908842
      16A     -0.818142    17A     -0.792193    18A     -0.701367
      19A     -0.675175    20A     -0.644998    21A     -0.625419
      22A     -0.605555    23A     -0.586984    24A     -0.572951
      25A     -0.565176    26A     -0.547054    27A     -0.527834
      28A     -0.494334    29A     -0.487241    30A     -0.478019
      31A     -0.447786    32A     -0.337520    33A     -0.325048

  @DF-RHF Final Energy:  -383.75876920854500

   => Energetics <=

    Nuclear Repulsion Energy =            427.0493367251928021
    One-Electron Energy =               -1367.2598180717100149
    Two-Electron Energy =                 556.4517121379722084
    Total Energy =                       -383.7587692085450044
  Basis Set: (AUG-CC-PVTZ AUX)
    Blend: AUG-CC-PVTZ-RI
    Molecular point group: c1

    Geometry (in Angstrom), charge = 0, multiplicity = 1:

       Center              X                  Y                   Z               Mass
    ------------   -----------------  -----------------  -----------------  -----------------
         O            2.550825676931    -0.537910526301     0.699628537572    15.994914619570
         C            0.313736676931    -0.420552526301    -0.278128462428    12.000000000000
         C           -0.081604323069     0.920740473699    -0.093102462428    12.000000000000
         C            1.764916676931    -0.772986526301    -0.477306462428    12.000000000000
         C           -0.639332323069    -1.442242526301    -0.198303462428    12.000000000000
         C           -1.434317323069     1.192945473699     0.136437537572    12.000000000000
         C            0.919759676931     2.043612473699    -0.187673462428    12.000000000000
         C           -1.986251323069    -1.155989526301     0.032170537572    12.000000000000
         C           -2.382037323069     0.168978473699     0.208998537572    12.000000000000
         H            1.848569676931    -1.821285526301    -0.799019462428     1.007825032230
         H            2.223565676931    -0.152541526301    -1.252115462428     1.007825032230
         H           -0.323203323069    -2.475312526301    -0.339642462428     1.007825032230
         H           -1.749755323069     2.225820473699     0.275517537572     1.007825032230
         H            1.817621376931     1.758738273699     0.364528737572     1.007825032230
         H            1.242489676931     2.198661473699    -1.223941462428     1.007825032230
         H            0.481085676931     2.980329473699     0.166678537572     1.007825032230
         H           -2.715325323069    -1.960836526301     0.086563537572     1.007825032230
         H           -3.426868323069     0.409094473699     0.392068537572     1.007825032230
         H            2.091479676931    -0.989906526301     1.428802537572     1.007825032230

  Basis Set: AUG-CC-PVTZ
    Blend: AUG-CC-PVTZ
  Basis Set: (AUG-CC-PVTZ AUX)
    Blend: AUG-CC-PVTZ-JKFIT
	 Reference Energy          =    -383.7587692085450044 [Eh]
	 Singles Energy            =      -0.0000000000000000 [Eh]
	 Same-Spin Energy          =      -0.4133117251255423 [Eh]
	 Opposite-Spin Energy      =      -1.3209044548490505 [Eh]
	 Correlation Energy        =      -1.7342161799745928 [Eh]
	 Total Energy              =    -385.4929853885195712 [Eh]

	 ================> DF-SCS-MP2 Energies <==================
	-----------------------------------------------------------
	 SCS Same-Spin Scale       =       0.3333333333333333 [-]
	 SCS Opposite-Spin Scale   =       1.2000000000000000 [-]
	 SCS Same-Spin Energy      =      -0.1377705750418474 [Eh]
	 SCS Opposite-Spin Energy  =      -1.5850853458188605 [Eh]
	 SCS Correlation Energy    =      -1.7228559208607079 [Eh]
	 SCS Total Energy          =    -385.4816251294056997 [Eh]
	-----------------------------------------------------------

  Dipole Moment: [D]
     X:    -1.1883      Y:    -0.4178      Z:    -0.1190     Total:     1.2652

*** Psi4 exiting successfully. Buy a developer a beer!
