                               Psi4 1.4a3.dev225

  ==> Input File <==

--------------------------------------------------------------------------
#psi4
#
memory 32 gb

molecule  {
0 1
  O        2.5396650    -0.5551780     0.7057380
  C        0.3025760    -0.4378200    -0.2720190
  C       -0.0927650     0.9034730    -0.0869930
  C        1.7537560    -0.7902540    -0.4711970
  C       -0.6504930    -1.4595100    -0.1921940
  C       -1.4454780     1.1756780     0.1425470
  C        0.9085990     2.0263450    -0.1815640
  C       -1.9974120    -1.1732570     0.0382800
  C       -2.3931980     0.1517110     0.2151080
  H        1.8374090    -1.8385530    -0.7929100
  H        2.2124050    -0.1698090    -1.2460060
  H       -0.3633783    -2.3977649    -0.3205609
  H       -1.7609160     2.2085530     0.2816270
  H        1.7975830     1.8046110     0.4123870
  H        1.2313290     2.1813940    -1.2178320
  H        0.4699250     2.9630620     0.1727880
  H       -2.7264860    -1.9781040     0.0926730
  H       -3.4380290     0.3918270     0.3981780
  H        2.0803190    -1.0071740     1.4349120
units angstrom
no_reorient  #important for SAPT in psi4, default
symmetry c1  #important for SAPT in psi4, default
}

set PROPERTIES_ORIGIN ["COM"]
properties('MP2/aug-cc-pvtz', properties = ['dipole'])
--------------------------------------------------------------------------

    Molecular point group: c1
  Charge       = 0
  Multiplicity = 1
  Basis Set: AUG-CC-PVTZ
    Blend: AUG-CC-PVTZ
  Basis Set: (AUG-CC-PVTZ AUX)
    Blend: AUG-CC-PVTZ-JKFIT

    Orbital Energies [Eh]
    ---------------------

    Doubly Occupied:

       1A    -20.560997     2A    -11.282903     3A    -11.245140
       4A    -11.238090     5A    -11.237524     6A    -11.234480
       7A    -11.233225     8A    -11.227649     9A    -11.219470
      10A     -1.357404    11A     -1.157788    12A     -1.049209
      13A     -1.035409    14A     -0.944472    15A     -0.908946
      16A     -0.826294    17A     -0.792280    18A     -0.701344
      19A     -0.679758    20A     -0.648572    21A     -0.628479
      22A     -0.606515    23A     -0.590034    24A     -0.573656
      25A     -0.568381    26A     -0.543176    27A     -0.525969
      28A     -0.498179    29A     -0.487570    30A     -0.477851
      31A     -0.447414    32A     -0.337146    33A     -0.325091

  @DF-RHF Final Energy:  -383.75394131880978

   => Energetics <=

    Nuclear Repulsion Energy =            427.4467489712558859
    One-Electron Energy =               -1368.0205530704345165
    Two-Electron Energy =                 556.8198627803689078
    Total Energy =                       -383.7539413188097797
  Basis Set: (AUG-CC-PVTZ AUX)
    Blend: AUG-CC-PVTZ-RI
    Molecular point group: c1

    Geometry (in Angstrom), charge = 0, multiplicity = 1:

       Center              X                  Y                   Z               Mass
    ------------   -----------------  -----------------  -----------------  -----------------
         O            2.551138509863    -0.539214591002     0.699176766760    15.994914619570
         C            0.314049509863    -0.421856591002    -0.278580233240    12.000000000000
         C           -0.081291490137     0.919436408998    -0.093554233240    12.000000000000
         C            1.765229509863    -0.774290591002    -0.477758233240    12.000000000000
         C           -0.639019490137    -1.443546591002    -0.198755233240    12.000000000000
         C           -1.434004490137     1.191641408998     0.135985766760    12.000000000000
         C            0.920072509863     2.042308408998    -0.188125233240    12.000000000000
         C           -1.985938490137    -1.157293591002     0.031718766760    12.000000000000
         C           -2.381724490137     0.167674408998     0.208546766760    12.000000000000
         H            1.848882509863    -1.822589591002    -0.799471233240     1.007825032230
         H            2.223878509863    -0.153845591002    -1.252567233240     1.007825032230
         H           -0.351904790137    -2.381801491002    -0.327122133240     1.007825032230
         H           -1.749442490137     2.224516408998     0.275065766760     1.007825032230
         H            1.809056509863     1.820574408998     0.405825766760     1.007825032230
         H            1.242802509863     2.197357408998    -1.224393233240     1.007825032230
         H            0.481398509863     2.979025408998     0.166226766760     1.007825032230
         H           -2.715012490137    -1.962140591002     0.086111766760     1.007825032230
         H           -3.426555490137     0.407790408998     0.391616766760     1.007825032230
         H            2.091792509863    -0.991210591002     1.428350766760     1.007825032230

  Basis Set: AUG-CC-PVTZ
    Blend: AUG-CC-PVTZ
  Basis Set: (AUG-CC-PVTZ AUX)
    Blend: AUG-CC-PVTZ-JKFIT
	 Reference Energy          =    -383.7539413188097797 [Eh]
	 Singles Energy            =      -0.0000000000000000 [Eh]
	 Same-Spin Energy          =      -0.4129819002554992 [Eh]
	 Opposite-Spin Energy      =      -1.3202344546012479 [Eh]
	 Correlation Energy        =      -1.7332163548567472 [Eh]
	 Total Energy              =    -385.4871576736665020 [Eh]

	 ================> DF-SCS-MP2 Energies <==================
	-----------------------------------------------------------
	 SCS Same-Spin Scale       =       0.3333333333333333 [-]
	 SCS Opposite-Spin Scale   =       1.2000000000000000 [-]
	 SCS Same-Spin Energy      =      -0.1376606334184997 [Eh]
	 SCS Opposite-Spin Energy  =      -1.5842813455214975 [Eh]
	 SCS Correlation Energy    =      -1.7219419789399972 [Eh]
	 SCS Total Energy          =    -385.4758832977497605 [Eh]
	-----------------------------------------------------------

  Dipole Moment: [D]
     X:    -1.1897      Y:    -0.4371      Z:    -0.1064     Total:     1.2719

*** Psi4 exiting successfully. Buy a developer a beer!
