                               Psi4 1.4a3.dev225

  ==> Input File <==

--------------------------------------------------------------------------
#psi4
#
memory 32 gb

molecule  {
0 1
  O        2.5396650    -0.5551780     0.7057380
  C        0.3025760    -0.4378200    -0.2720190
  C       -0.0927650     0.9034730    -0.0869930
  C        1.7537560    -0.7902540    -0.4711970
  C       -0.6504930    -1.4595100    -0.1921940
  C       -1.4454780     1.1756780     0.1425470
  C        0.9085990     2.0263450    -0.1815640
  C       -1.9974120    -1.1732570     0.0382800
  C       -2.3931980     0.1517110     0.2151080
  H        1.8374090    -1.8385530    -0.7929100
  H        2.1704600    -0.2265508    -1.1751471
  H       -0.3343640    -2.4925800    -0.3335330
  H       -1.7609160     2.2085530     0.2816270
  H        1.7975830     1.8046110     0.4123870
  H        1.2313290     2.1813940    -1.2178320
  H        0.4699250     2.9630620     0.1727880
  H       -2.7264860    -1.9781040     0.0926730
  H       -3.4380290     0.3918270     0.3981780
  H        2.0803190    -1.0071740     1.4349120
units angstrom
no_reorient  #important for SAPT in psi4, default
symmetry c1  #important for SAPT in psi4, default
}

set PROPERTIES_ORIGIN ["COM"]
properties('MP2/aug-cc-pvtz', properties = ['dipole'])
--------------------------------------------------------------------------

    Molecular point group: c1
  Charge       = 0
  Multiplicity = 1
  Basis Set: AUG-CC-PVTZ
    Blend: AUG-CC-PVTZ
  Basis Set: (AUG-CC-PVTZ AUX)
    Blend: AUG-CC-PVTZ-JKFIT

    Orbital Energies [Eh]
    ---------------------

    Doubly Occupied:

       1A    -20.559658     2A    -11.270411     3A    -11.245697
       4A    -11.239613     5A    -11.238515     6A    -11.237425
       7A    -11.234903     8A    -11.233428     9A    -11.220047
      10A     -1.356804    11A     -1.157421    12A     -1.049892
      13A     -1.033423    14A     -0.946912    15A     -0.915373
      16A     -0.818485    17A     -0.795238    18A     -0.702275
      19A     -0.674421    20A     -0.644634    21A     -0.627434
      22A     -0.610658    23A     -0.588079    24A     -0.573561
      25A     -0.568839    26A     -0.545850    27A     -0.527835
      28A     -0.495231    29A     -0.488018    30A     -0.481124
      31A     -0.446693    32A     -0.337389    33A     -0.325604

  @DF-RHF Final Energy:  -383.75383679960817

   => Energetics <=

    Nuclear Repulsion Energy =            427.4215345237453789
    One-Electron Energy =               -1367.9689610585210175
    Two-Electron Energy =                 556.7935897351675294
    Total Energy =                       -383.7538367996081661
  Basis Set: (AUG-CC-PVTZ AUX)
    Blend: AUG-CC-PVTZ-RI
    Molecular point group: c1

    Geometry (in Angstrom), charge = 0, multiplicity = 1:

       Center              X                  Y                   Z               Mass
    ------------   -----------------  -----------------  -----------------  -----------------
         O            2.551245264556    -0.537963350914     0.698698858564    15.994914619570
         C            0.314156264556    -0.420605350914    -0.279058141436    12.000000000000
         C           -0.081184735444     0.920687649086    -0.094032141436    12.000000000000
         C            1.765336264556    -0.773039350914    -0.478236141436    12.000000000000
         C           -0.638912735444    -1.442295350914    -0.199233141436    12.000000000000
         C           -1.433897735444     1.192892649086     0.135507858564    12.000000000000
         C            0.920179264556     2.043559649086    -0.188603141436    12.000000000000
         C           -1.985831735444    -1.156042350914     0.031240858564    12.000000000000
         C           -2.381617735444     0.168925649086     0.208068858564    12.000000000000
         H            1.848989264556    -1.821338350914    -0.799949141436     1.007825032230
         H            2.182040264556    -0.209336150914    -1.182186241436     1.007825032230
         H           -0.322783735444    -2.475365350914    -0.340572141436     1.007825032230
         H           -1.749335735444     2.225767649086     0.274587858564     1.007825032230
         H            1.809163264556     1.821825649086     0.405347858564     1.007825032230
         H            1.242909264556     2.198608649086    -1.224871141436     1.007825032230
         H            0.481505264556     2.980276649086     0.165748858564     1.007825032230
         H           -2.714905735444    -1.960889350914     0.085633858564     1.007825032230
         H           -3.426448735444     0.409041649086     0.391138858564     1.007825032230
         H            2.091899264556    -0.989959350914     1.427872858564     1.007825032230

  Basis Set: AUG-CC-PVTZ
    Blend: AUG-CC-PVTZ
  Basis Set: (AUG-CC-PVTZ AUX)
    Blend: AUG-CC-PVTZ-JKFIT
	 Reference Energy          =    -383.7538367996081661 [Eh]
	 Singles Energy            =      -0.0000000000000000 [Eh]
	 Same-Spin Energy          =      -0.4130441565671040 [Eh]
	 Opposite-Spin Energy      =      -1.3201452956227593 [Eh]
	 Correlation Energy        =      -1.7331894521898632 [Eh]
	 Total Energy              =    -385.4870262517980564 [Eh]

	 ================> DF-SCS-MP2 Energies <==================
	-----------------------------------------------------------
	 SCS Same-Spin Scale       =       0.3333333333333333 [-]
	 SCS Opposite-Spin Scale   =       1.2000000000000000 [-]
	 SCS Same-Spin Energy      =      -0.1376813855223680 [Eh]
	 SCS Opposite-Spin Energy  =      -1.5841743547473111 [Eh]
	 SCS Correlation Energy    =      -1.7218557402696790 [Eh]
	 SCS Total Energy          =    -385.4756925398778549 [Eh]
	-----------------------------------------------------------

  Dipole Moment: [D]
     X:    -1.1797      Y:    -0.3908      Z:    -0.1372     Total:     1.2503

*** Psi4 exiting successfully. Buy a developer a beer!
