                               Psi4 1.4a3.dev225

  ==> Input File <==

--------------------------------------------------------------------------
#psi4
#
memory 32 gb

molecule  {
0 1
  O        2.5396650    -0.5551780     0.7057380
  C        0.3025760    -0.4378200    -0.2720190
  C       -0.0871594     0.8844547    -0.0896165
  C        1.7537560    -0.7902540    -0.4711970
  C       -0.6504930    -1.4595100    -0.1921940
  C       -1.4454780     1.1756780     0.1425470
  C        0.9085990     2.0263450    -0.1815640
  C       -1.9974120    -1.1732570     0.0382800
  C       -2.3931980     0.1517110     0.2151080
  H        1.8374090    -1.8385530    -0.7929100
  H        2.2124050    -0.1698090    -1.2460060
  H       -0.3343640    -2.4925800    -0.3335330
  H       -1.7609160     2.2085530     0.2816270
  H        1.7975830     1.8046110     0.4123870
  H        1.2313290     2.1813940    -1.2178320
  H        0.4699250     2.9630620     0.1727880
  H       -2.7264860    -1.9781040     0.0926730
  H       -3.4380290     0.3918270     0.3981780
  H        2.0803190    -1.0071740     1.4349120
units angstrom
no_reorient  #important for SAPT in psi4, default
symmetry c1  #important for SAPT in psi4, default
}

set PROPERTIES_ORIGIN ["COM"]
properties('MP2/aug-cc-pvtz', properties = ['dipole'])
--------------------------------------------------------------------------

    Molecular point group: c1
  Charge       = 0
  Multiplicity = 1
  Basis Set: AUG-CC-PVTZ
    Blend: AUG-CC-PVTZ
  Basis Set: (AUG-CC-PVTZ AUX)
    Blend: AUG-CC-PVTZ-JKFIT

    Orbital Energies [Eh]
    ---------------------

    Doubly Occupied:

       1A    -20.560919     2A    -11.282664     3A    -11.245189
       4A    -11.240132     5A    -11.238681     6A    -11.236140
       7A    -11.235187     8A    -11.234638     9A    -11.220027
      10A     -1.357342    11A     -1.158634    12A     -1.049451
      13A     -1.031565    14A     -0.942518    15A     -0.908819
      16A     -0.821264    17A     -0.791137    18A     -0.700825
      19A     -0.675314    20A     -0.644198    21A     -0.625114
      22A     -0.605437    23A     -0.587836    24A     -0.571580
      25A     -0.567739    26A     -0.543386    27A     -0.524968
      28A     -0.496161    29A     -0.488726    30A     -0.476765
      31A     -0.447326    32A     -0.337241    33A     -0.326994

  @DF-RHF Final Energy:  -383.75933808582096

   => Energetics <=

    Nuclear Repulsion Energy =            427.0796182549369746
    One-Electron Energy =               -1367.3300747131702337
    Two-Electron Energy =                 556.4911183724123021
    Total Energy =                       -383.7593380858209002
  Basis Set: (AUG-CC-PVTZ AUX)
    Blend: AUG-CC-PVTZ-RI
    Molecular point group: c1

    Geometry (in Angstrom), charge = 0, multiplicity = 1:

       Center              X                  Y                   Z               Mass
    ------------   -----------------  -----------------  -----------------  -----------------
         O            2.550347930395    -0.536562274816     0.699541757765    15.994914619570
         C            0.313258930395    -0.419204274816    -0.278215242235    12.000000000000
         C           -0.076476469605     0.903070425184    -0.095812742235    12.000000000000
         C            1.764438930395    -0.771638274816    -0.477393242235    12.000000000000
         C           -0.639810069605    -1.440894274816    -0.198390242235    12.000000000000
         C           -1.434795069605     1.194293725184     0.136350757765    12.000000000000
         C            0.919281930395     2.044960725184    -0.187760242235    12.000000000000
         C           -1.986729069605    -1.154641274816     0.032083757765    12.000000000000
         C           -2.382515069605     0.170326725184     0.208911757765    12.000000000000
         H            1.848091930395    -1.819937274816    -0.799106242235     1.007825032230
         H            2.223087930395    -0.151193274816    -1.252202242235     1.007825032230
         H           -0.323681069605    -2.473964274816    -0.339729242235     1.007825032230
         H           -1.750233069605     2.227168725184     0.275430757765     1.007825032230
         H            1.808265930395     1.823226725184     0.406190757765     1.007825032230
         H            1.242011930395     2.200009725184    -1.224028242235     1.007825032230
         H            0.480607930395     2.981677725184     0.166591757765     1.007825032230
         H           -2.715803069605    -1.959488274816     0.086476757765     1.007825032230
         H           -3.427346069605     0.410442725184     0.391981757765     1.007825032230
         H            2.091001930395    -0.988558274816     1.428715757765     1.007825032230

  Basis Set: AUG-CC-PVTZ
    Blend: AUG-CC-PVTZ
  Basis Set: (AUG-CC-PVTZ AUX)
    Blend: AUG-CC-PVTZ-JKFIT
	 Reference Energy          =    -383.7593380858209571 [Eh]
	 Singles Energy            =      -0.0000000000000000 [Eh]
	 Same-Spin Energy          =      -0.4131143219545412 [Eh]
	 Opposite-Spin Energy      =      -1.3206873009366997 [Eh]
	 Correlation Energy        =      -1.7338016228912410 [Eh]
	 Total Energy              =    -385.4931397087121923 [Eh]

	 ================> DF-SCS-MP2 Energies <==================
	-----------------------------------------------------------
	 SCS Same-Spin Scale       =       0.3333333333333333 [-]
	 SCS Opposite-Spin Scale   =       1.2000000000000000 [-]
	 SCS Same-Spin Energy      =      -0.1377047739848471 [Eh]
	 SCS Opposite-Spin Energy  =      -1.5848247611240396 [Eh]
	 SCS Correlation Energy    =      -1.7225295351088867 [Eh]
	 SCS Total Energy          =    -385.4818676209298474 [Eh]
	-----------------------------------------------------------

  Dipole Moment: [D]
     X:    -1.2149      Y:    -0.4054      Z:    -0.0988     Total:     1.2846

*** Psi4 exiting successfully. Buy a developer a beer!
