                               Psi4 1.4a3.dev225

  ==> Input File <==

--------------------------------------------------------------------------
#psi4
#
memory 32 gb

molecule  {
0 1
  O        2.5396650    -0.5551780     0.7057380
  C        0.3025760    -0.4378200    -0.2720190
  C       -0.0927650     0.9034730    -0.0869930
  C        1.7537560    -0.7902540    -0.4711970
  C       -0.6504930    -1.4595100    -0.1921940
  C       -1.5421839     1.1951380     0.1589569
  C        0.9085990     2.0263450    -0.1815640
  C       -1.9974120    -1.1732570     0.0382800
  C       -2.3931980     0.1517110     0.2151080
  H        1.8374090    -1.8385530    -0.7929100
  H        2.2124050    -0.1698090    -1.2460060
  H       -0.3343640    -2.4925800    -0.3335330
  H       -1.7609160     2.2085530     0.2816270
  H        1.7975830     1.8046110     0.4123870
  H        1.2313290     2.1813940    -1.2178320
  H        0.4699250     2.9630620     0.1727880
  H       -2.7264860    -1.9781040     0.0926730
  H       -3.4380290     0.3918270     0.3981780
  H        2.0803190    -1.0071740     1.4349120
units angstrom
no_reorient  #important for SAPT in psi4, default
symmetry c1  #important for SAPT in psi4, default
}

set PROPERTIES_ORIGIN ["COM"]
properties('MP2/aug-cc-pvtz', properties = ['dipole'])
--------------------------------------------------------------------------

    Molecular point group: c1
  Charge       = 0
  Multiplicity = 1
  Basis Set: AUG-CC-PVTZ
    Blend: AUG-CC-PVTZ
  Basis Set: (AUG-CC-PVTZ AUX)
    Blend: AUG-CC-PVTZ-JKFIT

    Orbital Energies [Eh]
    ---------------------

    Doubly Occupied:

       1A    -20.560580     2A    -11.282556     3A    -11.256142
       4A    -11.240913     5A    -11.236412     6A    -11.235304
       7A    -11.234756     8A    -11.232967     9A    -11.221382
      10A     -1.357001    11A     -1.152900    12A     -1.050558
      13A     -1.031269    14A     -0.947561    15A     -0.903590
      16A     -0.822475    17A     -0.786932    18A     -0.702530
      19A     -0.674903    20A     -0.641036    21A     -0.634116
      22A     -0.607512    23A     -0.586716    24A     -0.572598
      25A     -0.567978    26A     -0.545863    27A     -0.521300
      28A     -0.498091    29A     -0.487509    30A     -0.476671
      31A     -0.442774    32A     -0.344641    33A     -0.315772

  @DF-RHF Final Energy:  -383.74785800433898

   => Energetics <=

    Nuclear Repulsion Energy =            425.6735623245381248
    One-Electron Energy =               -1364.4962248207164066
    Two-Electron Energy =                 555.0748044918393589
    Total Energy =                       -383.7478580043389229
  Basis Set: (AUG-CC-PVTZ AUX)
    Blend: AUG-CC-PVTZ-RI
    Molecular point group: c1

    Geometry (in Angstrom), charge = 0, multiplicity = 1:

       Center              X                  Y                   Z               Mass
    ------------   -----------------  -----------------  -----------------  -----------------
         O            2.560405325078    -0.540344757233     0.697670742132    15.994914619570
         C            0.323316325078    -0.422986757233    -0.280086257868    12.000000000000
         C           -0.072024674922     0.918306242767    -0.095060257868    12.000000000000
         C            1.774496325078    -0.775420757233    -0.479264257868    12.000000000000
         C           -0.629752674922    -1.444676757233    -0.200261257868    12.000000000000
         C           -1.521443574922     1.209971242767     0.150889642132    12.000000000000
         C            0.929339325078     2.041178242767    -0.189631257868    12.000000000000
         C           -1.976671674922    -1.158423757233     0.030212742132    12.000000000000
         C           -2.372457674922     0.166544242767     0.207040742132    12.000000000000
         H            1.858149325078    -1.823719757233    -0.800977257868     1.007825032230
         H            2.233145325078    -0.154975757233    -1.254073257868     1.007825032230
         H           -0.313623674922    -2.477746757233    -0.341600257868     1.007825032230
         H           -1.740175674922     2.223386242767     0.273559742132     1.007825032230
         H            1.818323325078     1.819444242767     0.404319742132     1.007825032230
         H            1.252069325078     2.196227242767    -1.225899257868     1.007825032230
         H            0.490665325078     2.977895242767     0.164720742132     1.007825032230
         H           -2.705745674922    -1.963270757233     0.084605742132     1.007825032230
         H           -3.417288674922     0.406660242767     0.390110742132     1.007825032230
         H            2.101059325078    -0.992340757233     1.426844742132     1.007825032230

  Basis Set: AUG-CC-PVTZ
    Blend: AUG-CC-PVTZ
  Basis Set: (AUG-CC-PVTZ AUX)
    Blend: AUG-CC-PVTZ-JKFIT
	 Reference Energy          =    -383.7478580043389798 [Eh]
	 Singles Energy            =      -0.0000000000000000 [Eh]
	 Same-Spin Energy          =      -0.4131471720250397 [Eh]
	 Opposite-Spin Energy      =      -1.3213263347360740 [Eh]
	 Correlation Energy        =      -1.7344735067611137 [Eh]
	 Total Energy              =    -385.4823315111000852 [Eh]

	 ================> DF-SCS-MP2 Energies <==================
	-----------------------------------------------------------
	 SCS Same-Spin Scale       =       0.3333333333333333 [-]
	 SCS Opposite-Spin Scale   =       1.2000000000000000 [-]
	 SCS Same-Spin Energy      =      -0.1377157240083466 [Eh]
	 SCS Opposite-Spin Energy  =      -1.5855916016832887 [Eh]
	 SCS Correlation Energy    =      -1.7233073256916354 [Eh]
	 SCS Total Energy          =    -385.4711653300306011 [Eh]
	-----------------------------------------------------------

  Dipole Moment: [D]
     X:    -1.1587      Y:    -0.3481      Z:    -0.1044     Total:     1.2144

*** Psi4 exiting successfully. Buy a developer a beer!
