                               Psi4 1.4a3.dev225

  ==> Input File <==

--------------------------------------------------------------------------
#psi4
#
memory 32 gb

molecule  {
0 1
  O        2.5396650    -0.5551780     0.7057380
  C        0.3025760    -0.4378200    -0.2720190
  C       -0.0927650     0.9034730    -0.0869930
  C        1.8019172    -0.8019504    -0.4778072
  C       -0.6504930    -1.4595100    -0.1921940
  C       -1.4454780     1.1756780     0.1425470
  C        0.9085990     2.0263450    -0.1815640
  C       -1.9974120    -1.1732570     0.0382800
  C       -2.3931980     0.1517110     0.2151080
  H        1.8374090    -1.8385530    -0.7929100
  H        2.2124050    -0.1698090    -1.2460060
  H       -0.3343640    -2.4925800    -0.3335330
  H       -1.7609160     2.2085530     0.2816270
  H        1.7975830     1.8046110     0.4123870
  H        1.2313290     2.1813940    -1.2178320
  H        0.4699250     2.9630620     0.1727880
  H       -2.7264860    -1.9781040     0.0926730
  H       -3.4380290     0.3918270     0.3981780
  H        2.0803190    -1.0071740     1.4349120
units angstrom
no_reorient  #important for SAPT in psi4, default
symmetry c1  #important for SAPT in psi4, default
}

set PROPERTIES_ORIGIN ["COM"]
properties('MP2/aug-cc-pvtz', properties = ['dipole'])
--------------------------------------------------------------------------

    Molecular point group: c1
  Charge       = 0
  Multiplicity = 1
  Basis Set: AUG-CC-PVTZ
    Blend: AUG-CC-PVTZ
  Basis Set: (AUG-CC-PVTZ AUX)
    Blend: AUG-CC-PVTZ-JKFIT

    Orbital Energies [Eh]
    ---------------------

    Doubly Occupied:

       1A    -20.562657     2A    -11.283260     3A    -11.244439
       4A    -11.239616     5A    -11.238185     6A    -11.237224
       7A    -11.234286     8A    -11.232659     9A    -11.219323
      10A     -1.364079    11A     -1.155055    12A     -1.046922
      13A     -1.028114    14A     -0.941953    15A     -0.909849
      16A     -0.816960    17A     -0.792045    18A     -0.702105
      19A     -0.675932    20A     -0.643153    21A     -0.626355
      22A     -0.609281    23A     -0.588773    24A     -0.572289
      25A     -0.569143    26A     -0.543659    27A     -0.524663
      28A     -0.493523    29A     -0.487617    30A     -0.479653
      31A     -0.441556    32A     -0.336441    33A     -0.324562

  @DF-RHF Final Energy:  -383.75851131179934

   => Energetics <=

    Nuclear Repulsion Energy =            426.2841592309135876
    One-Electron Energy =               -1365.7546756287147218
    Two-Electron Energy =                 555.7120050860017955
    Total Energy =                       -383.7585113117993387
  Basis Set: (AUG-CC-PVTZ AUX)
    Blend: AUG-CC-PVTZ-RI
    Molecular point group: c1

    Geometry (in Angstrom), charge = 0, multiplicity = 1:

       Center              X                  Y                   Z               Mass
    ------------   -----------------  -----------------  -----------------  -----------------
         O            2.546164642444    -0.537282030055     0.699933657164    15.994914619570
         C            0.309075642444    -0.419924030055    -0.277823342836    12.000000000000
         C           -0.086265357556     0.921368969945    -0.092797342836    12.000000000000
         C            1.808416842444    -0.784054430055    -0.483611542836    12.000000000000
         C           -0.643993357556    -1.441614030055    -0.197998342836    12.000000000000
         C           -1.438978357556     1.193573969945     0.136742657164    12.000000000000
         C            0.915098642444     2.044240969945    -0.187368342836    12.000000000000
         C           -1.990912357556    -1.155361030055     0.032475657164    12.000000000000
         C           -2.386698357556     0.169606969945     0.209303657164    12.000000000000
         H            1.843908642444    -1.820657030055    -0.798714342836     1.007825032230
         H            2.218904642444    -0.151913030055    -1.251810342836     1.007825032230
         H           -0.327864357556    -2.474684030055    -0.339337342836     1.007825032230
         H           -1.754416357556     2.226448969945     0.275822657164     1.007825032230
         H            1.804082642444     1.822506969945     0.406582657164     1.007825032230
         H            1.237828642444     2.199289969945    -1.223636342836     1.007825032230
         H            0.476424642444     2.980957969945     0.166983657164     1.007825032230
         H           -2.719986357556    -1.960208030055     0.086868657164     1.007825032230
         H           -3.431529357556     0.409722969945     0.392373657164     1.007825032230
         H            2.086818642444    -0.989278030055     1.429107657164     1.007825032230

  Basis Set: AUG-CC-PVTZ
    Blend: AUG-CC-PVTZ
  Basis Set: (AUG-CC-PVTZ AUX)
    Blend: AUG-CC-PVTZ-JKFIT
	 Reference Energy          =    -383.7585113117993387 [Eh]
	 Singles Energy            =      -0.0000000000000000 [Eh]
	 Same-Spin Energy          =      -0.4127610275053772 [Eh]
	 Opposite-Spin Energy      =      -1.3201008717912286 [Eh]
	 Correlation Energy        =      -1.7328618992966058 [Eh]
	 Total Energy              =    -385.4913732110959472 [Eh]

	 ================> DF-SCS-MP2 Energies <==================
	-----------------------------------------------------------
	 SCS Same-Spin Scale       =       0.3333333333333333 [-]
	 SCS Opposite-Spin Scale   =       1.2000000000000000 [-]
	 SCS Same-Spin Energy      =      -0.1375870091684591 [Eh]
	 SCS Opposite-Spin Energy  =      -1.5841210461494744 [Eh]
	 SCS Correlation Energy    =      -1.7217080553179334 [Eh]
	 SCS Total Energy          =    -385.4802193671172859 [Eh]
	-----------------------------------------------------------

  Dipole Moment: [D]
     X:    -1.0585      Y:    -0.4366      Z:    -0.0842     Total:     1.1481

*** Psi4 exiting successfully. Buy a developer a beer!
