                               Psi4 1.4a3.dev225

  ==> Input File <==

--------------------------------------------------------------------------
#psi4
#
memory 32 gb

molecule  {
0 1
  O        2.5396650    -0.5551780     0.7057380
  C        0.3025760    -0.4378200    -0.2720190
  C       -0.1159225     0.8086822    -0.0902894
  C        1.7537560    -0.7902540    -0.4711970
  C       -0.6504930    -1.4595100    -0.1921940
  C       -1.4454780     1.1756780     0.1425470
  C        0.9085990     2.0263450    -0.1815640
  C       -1.9974120    -1.1732570     0.0382800
  C       -2.3931980     0.1517110     0.2151080
  H        1.8374090    -1.8385530    -0.7929100
  H        2.2124050    -0.1698090    -1.2460060
  H       -0.3343640    -2.4925800    -0.3335330
  H       -1.7609160     2.2085530     0.2816270
  H        1.7975830     1.8046110     0.4123870
  H        1.2313290     2.1813940    -1.2178320
  H        0.4699250     2.9630620     0.1727880
  H       -2.7264860    -1.9781040     0.0926730
  H       -3.4380290     0.3918270     0.3981780
  H        2.0803190    -1.0071740     1.4349120
units angstrom
no_reorient  #important for SAPT in psi4, default
symmetry c1  #important for SAPT in psi4, default
}

set PROPERTIES_ORIGIN ["COM"]
properties('MP2/aug-cc-pvtz', properties = ['dipole'])
--------------------------------------------------------------------------

    Molecular point group: c1
  Charge       = 0
  Multiplicity = 1
  Basis Set: AUG-CC-PVTZ
    Blend: AUG-CC-PVTZ
  Basis Set: (AUG-CC-PVTZ AUX)
    Blend: AUG-CC-PVTZ-JKFIT

    Orbital Energies [Eh]
    ---------------------

    Doubly Occupied:

       1A    -20.561372     2A    -11.283854     3A    -11.240469
       4A    -11.240102     5A    -11.238753     6A    -11.234893
       7A    -11.234363     8A    -11.229192     9A    -11.220582
      10A     -1.357803    11A     -1.166286    12A     -1.049354
      13A     -1.028374    14A     -0.935899    15A     -0.911537
      16A     -0.830599    17A     -0.790084    18A     -0.701424
      19A     -0.678468    20A     -0.641982    21A     -0.623798
      22A     -0.606326    23A     -0.595073    24A     -0.566723
      25A     -0.561922    26A     -0.539175    27A     -0.524389
      28A     -0.499472    29A     -0.493655    30A     -0.465563
      31A     -0.446012    32A     -0.340642    33A     -0.331897

  @DF-RHF Final Energy:  -383.74992497675902

   => Energetics <=

    Nuclear Repulsion Energy =            427.8743933008315707
    One-Electron Energy =               -1368.9085688051397938
    Two-Electron Energy =                 557.2842505275491476
    Total Energy =                       -383.7499249767590754
  Basis Set: (AUG-CC-PVTZ AUX)
    Blend: AUG-CC-PVTZ-RI
    Molecular point group: c1

    Geometry (in Angstrom), charge = 0, multiplicity = 1:

       Center              X                  Y                   Z               Mass
    ------------   -----------------  -----------------  -----------------  -----------------
         O            2.553175392108    -0.529113709028     0.699607904981    15.994914619570
         C            0.316086392108    -0.411755709028    -0.278149095019    12.000000000000
         C           -0.102412107892     0.834746490972    -0.096419495019    12.000000000000
         C            1.767266392108    -0.764189709028    -0.477327095019    12.000000000000
         C           -0.636982607892    -1.433445709028    -0.198324095019    12.000000000000
         C           -1.431967607892     1.201742290972     0.136416904981    12.000000000000
         C            0.922109392108     2.052409290972    -0.187694095019    12.000000000000
         C           -1.983901607892    -1.147192709028     0.032149904981    12.000000000000
         C           -2.379687607892     0.177775290972     0.208977904981    12.000000000000
         H            1.850919392108    -1.812488709028    -0.799040095019     1.007825032230
         H            2.225915392108    -0.143744709028    -1.252136095019     1.007825032230
         H           -0.320853607892    -2.466515709028    -0.339663095019     1.007825032230
         H           -1.747405607892     2.234617290972     0.275496904981     1.007825032230
         H            1.811093392108     1.830675290972     0.406256904981     1.007825032230
         H            1.244839392108     2.207458290972    -1.223962095019     1.007825032230
         H            0.483435392108     2.989126290972     0.166657904981     1.007825032230
         H           -2.712975607892    -1.952039709028     0.086542904981     1.007825032230
         H           -3.424518607892     0.417891290972     0.392047904981     1.007825032230
         H            2.093829392108    -0.981109709028     1.428781904981     1.007825032230

  Basis Set: AUG-CC-PVTZ
    Blend: AUG-CC-PVTZ
  Basis Set: (AUG-CC-PVTZ AUX)
    Blend: AUG-CC-PVTZ-JKFIT
	 Reference Energy          =    -383.7499249767590186 [Eh]
	 Singles Energy            =      -0.0000000000000000 [Eh]
	 Same-Spin Energy          =      -0.4127258000414516 [Eh]
	 Opposite-Spin Energy      =      -1.3204417377104822 [Eh]
	 Correlation Energy        =      -1.7331675377519338 [Eh]
	 Total Energy              =    -385.4830925145109290 [Eh]

	 ================> DF-SCS-MP2 Energies <==================
	-----------------------------------------------------------
	 SCS Same-Spin Scale       =       0.3333333333333333 [-]
	 SCS Opposite-Spin Scale   =       1.2000000000000000 [-]
	 SCS Same-Spin Energy      =      -0.1375752666804839 [Eh]
	 SCS Opposite-Spin Energy  =      -1.5845300852525785 [Eh]
	 SCS Correlation Energy    =      -1.7221053519330625 [Eh]
	 SCS Total Energy          =    -385.4720303286920853 [Eh]
	-----------------------------------------------------------

  Dipole Moment: [D]
     X:    -1.2893      Y:    -0.4837      Z:    -0.0843     Total:     1.3796

*** Psi4 exiting successfully. Buy a developer a beer!
