                               Psi4 1.4a3.dev225

  ==> Input File <==

--------------------------------------------------------------------------
#psi4
#
memory 32 gb

molecule  {
0 1
  O        2.5396650    -0.5551780     0.7057380
  C        0.3025760    -0.4378200    -0.2720190
  C       -0.0927650     0.9034730    -0.0869930
  C        1.7537560    -0.7902540    -0.4711970
  C       -0.6504930    -1.4595100    -0.1921940
  C       -1.4454780     1.1756780     0.1425470
  C        0.9085990     2.0263450    -0.1815640
  C       -1.9974120    -1.1732570     0.0382800
  C       -2.3931980     0.1517110     0.2151080
  H        1.8374090    -1.8385530    -0.7929100
  H        2.2124050    -0.1698090    -1.2460060
  H       -0.3343640    -2.4925800    -0.3335330
  H       -1.7609160     2.2085530     0.2816270
  H        1.7975830     1.8046110     0.4123870
  H        1.2313290     2.1813940    -1.2178320
  H        0.5501682     2.7917157     0.1079692
  H       -2.7264860    -1.9781040     0.0926730
  H       -3.4380290     0.3918270     0.3981780
  H        2.0803190    -1.0071740     1.4349120
units angstrom
no_reorient  #important for SAPT in psi4, default
symmetry c1  #important for SAPT in psi4, default
}

set PROPERTIES_ORIGIN ["COM"]
properties('MP2/aug-cc-pvtz', properties = ['dipole'])
--------------------------------------------------------------------------

    Molecular point group: c1
  Charge       = 0
  Multiplicity = 1
  Basis Set: AUG-CC-PVTZ
    Blend: AUG-CC-PVTZ
  Basis Set: (AUG-CC-PVTZ AUX)
    Blend: AUG-CC-PVTZ-JKFIT

    Orbital Energies [Eh]
    ---------------------

    Doubly Occupied:

       1A    -20.560101     2A    -11.281828     3A    -11.244595
       4A    -11.239498     5A    -11.238591     6A    -11.237043
       7A    -11.234711     8A    -11.233459     9A    -11.195122
      10A     -1.356473    11A     -1.157593    12A     -1.054489
      13A     -1.033903    14A     -0.957328    15A     -0.911430
      16A     -0.821343    17A     -0.794336    18A     -0.700450
      19A     -0.679091    20A     -0.644171    21A     -0.631055
      22A     -0.604361    23A     -0.586076    24A     -0.575042
      25A     -0.572082    26A     -0.565017    27A     -0.528195
      28A     -0.494649    29A     -0.487580    30A     -0.477291
      31A     -0.446927    32A     -0.337237    33A     -0.325002

  @DF-RHF Final Energy:  -383.72576066167449

   => Energetics <=

    Nuclear Repulsion Energy =            427.9519465853348947
    One-Electron Energy =               -1368.9432811410322302
    Two-Electron Energy =                 557.2655738940228503
    Total Energy =                       -383.7257606616744852
  Basis Set: (AUG-CC-PVTZ AUX)
    Blend: AUG-CC-PVTZ-RI
    Molecular point group: c1

    Geometry (in Angstrom), charge = 0, multiplicity = 1:

       Center              X                  Y                   Z               Mass
    ------------   -----------------  -----------------  -----------------  -----------------
         O            2.550236489804    -0.537017186505     0.699819001410    15.994914619570
         C            0.313147489804    -0.419659186505    -0.277937998590    12.000000000000
         C           -0.082193510196     0.921633813495    -0.092911998590    12.000000000000
         C            1.764327489804    -0.772093186505    -0.477115998590    12.000000000000
         C           -0.639921510196    -1.441349186505    -0.198112998590    12.000000000000
         C           -1.434906510196     1.193838813495     0.136628001410    12.000000000000
         C            0.919170489804     2.044505813495    -0.187482998590    12.000000000000
         C           -1.986840510196    -1.155096186505     0.032361001410    12.000000000000
         C           -2.382626510196     0.169871813495     0.209189001410    12.000000000000
         H            1.847980489804    -1.820392186505    -0.798828998590     1.007825032230
         H            2.222976489804    -0.151648186505    -1.251924998590     1.007825032230
         H           -0.323792510196    -2.474419186505    -0.339451998590     1.007825032230
         H           -1.750344510196     2.226713813495     0.275708001410     1.007825032230
         H            1.808154489804     1.822771813495     0.406468001410     1.007825032230
         H            1.241900489804     2.199554813495    -1.223750998590     1.007825032230
         H            0.560739689804     2.809876513495     0.102050201410     1.007825032230
         H           -2.715914510196    -1.959943186505     0.086754001410     1.007825032230
         H           -3.427457510196     0.409987813495     0.392259001410     1.007825032230
         H            2.090890489804    -0.989013186505     1.428993001410     1.007825032230

  Basis Set: AUG-CC-PVTZ
    Blend: AUG-CC-PVTZ
  Basis Set: (AUG-CC-PVTZ AUX)
    Blend: AUG-CC-PVTZ-JKFIT
	 Reference Energy          =    -383.7257606616744852 [Eh]
	 Singles Energy            =      -0.0000000000000000 [Eh]
	 Same-Spin Energy          =      -0.4132140364828262 [Eh]
	 Opposite-Spin Energy      =      -1.3199640487063624 [Eh]
	 Correlation Energy        =      -1.7331780851891887 [Eh]
	 Total Energy              =    -385.4589387468636801 [Eh]

	 ================> DF-SCS-MP2 Energies <==================
	-----------------------------------------------------------
	 SCS Same-Spin Scale       =       0.3333333333333333 [-]
	 SCS Opposite-Spin Scale   =       1.2000000000000000 [-]
	 SCS Same-Spin Energy      =      -0.1377380121609421 [Eh]
	 SCS Opposite-Spin Energy  =      -1.5839568584476349 [Eh]
	 SCS Correlation Energy    =      -1.7216948706085768 [Eh]
	 SCS Total Energy          =    -385.4474555322830724 [Eh]
	-----------------------------------------------------------

  Dipole Moment: [D]
     X:    -1.2041      Y:    -0.3071      Z:    -0.0873     Total:     1.2457

*** Psi4 exiting successfully. Buy a developer a beer!
