                               Psi4 1.4a3.dev225

  ==> Input File <==

--------------------------------------------------------------------------
#psi4
#
memory 32 gb

molecule  {
0 1
  O        2.5396650    -0.5551780     0.7057380
  C        0.3025760    -0.4378200    -0.2720190
  C       -0.0367093     0.7132902    -0.1132280
  C        1.7537560    -0.7902540    -0.4711970
  C       -0.6504930    -1.4595100    -0.1921940
  C       -1.4454780     1.1756780     0.1425470
  C        0.9085990     2.0263450    -0.1815640
  C       -1.9974120    -1.1732570     0.0382800
  C       -2.3931980     0.1517110     0.2151080
  H        1.8374090    -1.8385530    -0.7929100
  H        2.2124050    -0.1698090    -1.2460060
  H       -0.3343640    -2.4925800    -0.3335330
  H       -1.7609160     2.2085530     0.2816270
  H        1.7975830     1.8046110     0.4123870
  H        1.2313290     2.1813940    -1.2178320
  H        0.4699250     2.9630620     0.1727880
  H       -2.7264860    -1.9781040     0.0926730
  H       -3.4380290     0.3918270     0.3981780
  H        2.0803190    -1.0071740     1.4349120
units angstrom
no_reorient  #important for SAPT in psi4, default
symmetry c1  #important for SAPT in psi4, default
}

set PROPERTIES_ORIGIN ["COM"]
properties('MP2/aug-cc-pvtz', properties = ['dipole'])
--------------------------------------------------------------------------

    Molecular point group: c1
  Charge       = 0
  Multiplicity = 1
  Basis Set: AUG-CC-PVTZ
    Blend: AUG-CC-PVTZ
  Basis Set: (AUG-CC-PVTZ AUX)
    Blend: AUG-CC-PVTZ-JKFIT

    Orbital Energies [Eh]
    ---------------------

    Doubly Occupied:

       1A    -20.561467     2A    -11.282191     3A    -11.244056
       4A    -11.240854     5A    -11.237601     6A    -11.235812
       7A    -11.235060     8A    -11.221756     9A    -11.211936
      10A     -1.358070    11A     -1.175027    12A     -1.061132
      13A     -1.014618    14A     -0.932904    15A     -0.914695
      16A     -0.844622    17A     -0.778094    18A     -0.700745
      19A     -0.679945    20A     -0.637979    21A     -0.624445
      22A     -0.609744    23A     -0.598581    24A     -0.561459
      25A     -0.560663    26A     -0.540882    27A     -0.523914
      28A     -0.505299    29A     -0.496041    30A     -0.465634
      31A     -0.425478    32A     -0.360071    33A     -0.320904

  @DF-RHF Final Energy:  -383.70262450644719

   => Energetics <=

    Nuclear Repulsion Energy =            428.9229143908358992
    One-Electron Energy =               -1370.9277211393041398
    Two-Electron Energy =                 558.3021822420209901
    Total Energy =                       -383.7026245064472505
  Basis Set: (AUG-CC-PVTZ AUX)
    Blend: AUG-CC-PVTZ-RI
    Molecular point group: c1

    Geometry (in Angstrom), charge = 0, multiplicity = 1:

       Center              X                  Y                   Z               Mass
    ------------   -----------------  -----------------  -----------------  -----------------
         O            2.545388599650    -0.519736512979     0.701862808425    15.994914619570
         C            0.308299599650    -0.402378512979    -0.275894191575    12.000000000000
         C           -0.030985700350     0.748731687021    -0.117103191575    12.000000000000
         C            1.759479599650    -0.754812512979    -0.475072191575    12.000000000000
         C           -0.644769400350    -1.424068512979    -0.196069191575    12.000000000000
         C           -1.439754400350     1.211119487021     0.138671808425    12.000000000000
         C            0.914322599650     2.061786487021    -0.185439191575    12.000000000000
         C           -1.991688400350    -1.137815512979     0.034404808425    12.000000000000
         C           -2.387474400350     0.187152487021     0.211232808425    12.000000000000
         H            1.843132599650    -1.803111512979    -0.796785191575     1.007825032230
         H            2.218128599650    -0.134367512979    -1.249881191575     1.007825032230
         H           -0.328640400350    -2.457138512979    -0.337408191575     1.007825032230
         H           -1.755192400350     2.243994487021     0.277751808425     1.007825032230
         H            1.803306599650     1.840052487021     0.408511808425     1.007825032230
         H            1.237052599650     2.216835487021    -1.221707191575     1.007825032230
         H            0.475648599650     2.998503487021     0.168912808425     1.007825032230
         H           -2.720762400350    -1.942662512979     0.088797808425     1.007825032230
         H           -3.432305400350     0.427268487021     0.394302808425     1.007825032230
         H            2.086042599650    -0.971732512979     1.431036808425     1.007825032230

  Basis Set: AUG-CC-PVTZ
    Blend: AUG-CC-PVTZ
  Basis Set: (AUG-CC-PVTZ AUX)
    Blend: AUG-CC-PVTZ-JKFIT
	 Reference Energy          =    -383.7026245064471937 [Eh]
	 Singles Energy            =      -0.0000000000000000 [Eh]
	 Same-Spin Energy          =      -0.4120913497677471 [Eh]
	 Opposite-Spin Energy      =      -1.3217270313105487 [Eh]
	 Correlation Energy        =      -1.7338183810782959 [Eh]
	 Total Energy              =    -385.4364428875255157 [Eh]

	 ================> DF-SCS-MP2 Energies <==================
	-----------------------------------------------------------
	 SCS Same-Spin Scale       =       0.3333333333333333 [-]
	 SCS Opposite-Spin Scale   =       1.2000000000000000 [-]
	 SCS Same-Spin Energy      =      -0.1373637832559157 [Eh]
	 SCS Opposite-Spin Energy  =      -1.5860724375726585 [Eh]
	 SCS Correlation Energy    =      -1.7234362208285741 [Eh]
	 SCS Total Energy          =    -385.4260607272757397 [Eh]
	-----------------------------------------------------------

  Dipole Moment: [D]
     X:    -1.3275      Y:    -0.4720      Z:    -0.0698     Total:     1.4106

*** Psi4 exiting successfully. Buy a developer a beer!
