                               Psi4 1.4a3.dev225

  ==> Input File <==

--------------------------------------------------------------------------
#psi4
#
memory 32 gb

molecule  {
0 1
  O        2.5396650    -0.5551780     0.7057380
  C        0.3025760    -0.4378200    -0.2720190
  C       -0.0927650     0.9034730    -0.0869930
  C        1.8633206    -0.7574818    -0.3071190
  C       -0.6504930    -1.4595100    -0.1921940
  C       -1.4454780     1.1756780     0.1425470
  C        0.9085990     2.0263450    -0.1815640
  C       -1.9974120    -1.1732570     0.0382800
  C       -2.3931980     0.1517110     0.2151080
  H        1.8374090    -1.8385530    -0.7929100
  H        2.2124050    -0.1698090    -1.2460060
  H       -0.3343640    -2.4925800    -0.3335330
  H       -1.7609160     2.2085530     0.2816270
  H        1.7975830     1.8046110     0.4123870
  H        1.2313290     2.1813940    -1.2178320
  H        0.4699250     2.9630620     0.1727880
  H       -2.7264860    -1.9781040     0.0926730
  H       -3.4380290     0.3918270     0.3981780
  H        2.0803190    -1.0071740     1.4349120
units angstrom
no_reorient  #important for SAPT in psi4, default
symmetry c1  #important for SAPT in psi4, default
}

set PROPERTIES_ORIGIN ["COM"]
properties('MP2/aug-cc-pvtz', properties = ['dipole'])
--------------------------------------------------------------------------

    Molecular point group: c1
  Charge       = 0
  Multiplicity = 1
  Basis Set: AUG-CC-PVTZ
    Blend: AUG-CC-PVTZ
  Basis Set: (AUG-CC-PVTZ AUX)
    Blend: AUG-CC-PVTZ-JKFIT

    Orbital Energies [Eh]
    ---------------------

    Doubly Occupied:

       1A    -20.584247     2A    -11.294006     3A    -11.241206
       4A    -11.236366     5A    -11.235329     6A    -11.234633
       7A    -11.232502     8A    -11.230487     9A    -11.219569
      10A     -1.460759    11A     -1.152047    12A     -1.044886
      13A     -1.020351    14A     -0.936266    15A     -0.903382
      16A     -0.816620    17A     -0.798986    18A     -0.731613
      19A     -0.678636    20A     -0.665615    21A     -0.653172
      22A     -0.623269    23A     -0.602050    24A     -0.570670
      25A     -0.569604    26A     -0.540751    27A     -0.520694
      28A     -0.488581    29A     -0.486763    30A     -0.450105
      31A     -0.412128    32A     -0.333985    33A     -0.322781

  @DF-RHF Final Energy:  -383.71753352545102

   => Energetics <=

    Nuclear Repulsion Energy =            428.1643843905431481
    One-Electron Energy =               -1369.1797175240496927
    Two-Electron Energy =                 557.2977996080555840
    Total Energy =                       -383.7175335254510173
  Basis Set: (AUG-CC-PVTZ AUX)
    Blend: AUG-CC-PVTZ-RI
    Molecular point group: c1

    Geometry (in Angstrom), charge = 0, multiplicity = 1:

       Center              X                  Y                   Z               Mass
    ------------   -----------------  -----------------  -----------------  -----------------
         O            2.540128583657    -0.541653369163     0.683154716428    15.994914619570
         C            0.303039583657    -0.424295369163    -0.294602283572    12.000000000000
         C           -0.092301416343     0.916997630837    -0.109576283572    12.000000000000
         C            1.863784183657    -0.743957169163    -0.329702283572    12.000000000000
         C           -0.650029416343    -1.445985369163    -0.214777283572    12.000000000000
         C           -1.445014416343     1.189202630837     0.119963716428    12.000000000000
         C            0.909062583657     2.039869630837    -0.204147283572    12.000000000000
         C           -1.996948416343    -1.159732369163     0.015696716428    12.000000000000
         C           -2.392734416343     0.165235630837     0.192524716428    12.000000000000
         H            1.837872583657    -1.825028369163    -0.815493283572     1.007825032230
         H            2.212868583657    -0.156284369163    -1.268589283572     1.007825032230
         H           -0.333900416343    -2.479055369163    -0.356116283572     1.007825032230
         H           -1.760452416343     2.222077630837     0.259043716428     1.007825032230
         H            1.798046583657     1.818135630837     0.389803716428     1.007825032230
         H            1.231792583657     2.194918630837    -1.240415283572     1.007825032230
         H            0.470388583657     2.976586630837     0.150204716428     1.007825032230
         H           -2.726022416343    -1.964579369163     0.070089716428     1.007825032230
         H           -3.437565416343     0.405351630837     0.375594716428     1.007825032230
         H            2.080782583657    -0.993649369163     1.412328716428     1.007825032230

  Basis Set: AUG-CC-PVTZ
    Blend: AUG-CC-PVTZ
  Basis Set: (AUG-CC-PVTZ AUX)
    Blend: AUG-CC-PVTZ-JKFIT
	 Reference Energy          =    -383.7175335254510173 [Eh]
	 Singles Energy            =      -0.0000000000000000 [Eh]
	 Same-Spin Energy          =      -0.4138789618762047 [Eh]
	 Opposite-Spin Energy      =      -1.3197093195852649 [Eh]
	 Correlation Energy        =      -1.7335882814614696 [Eh]
	 Total Energy              =    -385.4511218069125107 [Eh]

	 ================> DF-SCS-MP2 Energies <==================
	-----------------------------------------------------------
	 SCS Same-Spin Scale       =       0.3333333333333333 [-]
	 SCS Opposite-Spin Scale   =       1.2000000000000000 [-]
	 SCS Same-Spin Energy      =      -0.1379596539587349 [Eh]
	 SCS Opposite-Spin Energy  =      -1.5836511835023179 [Eh]
	 SCS Correlation Energy    =      -1.7216108374610528 [Eh]
	 SCS Total Energy          =    -385.4391443629120886 [Eh]
	-----------------------------------------------------------

  Dipole Moment: [D]
     X:    -0.6539      Y:    -0.2793      Z:     0.6140     Total:     0.9395

*** Psi4 exiting successfully. Buy a developer a beer!
