                               Psi4 1.4a3.dev225

  ==> Input File <==

--------------------------------------------------------------------------
#psi4
#
memory 32 gb

molecule  {
0 1
  O        2.5396650    -0.5551780     0.7057380
  C        0.3025760    -0.4378200    -0.2720190
  C       -0.1035263     0.8558828    -0.0887821
  C        1.7537560    -0.7902540    -0.4711970
  C       -0.6504930    -1.4595100    -0.1921940
  C       -1.4454780     1.1756780     0.1425470
  C        0.9085990     2.0263450    -0.1815640
  C       -1.9974120    -1.1732570     0.0382800
  C       -2.3931980     0.1517110     0.2151080
  H        1.8374090    -1.8385530    -0.7929100
  H        2.2124050    -0.1698090    -1.2460060
  H       -0.3343640    -2.4925800    -0.3335330
  H       -1.7609160     2.2085530     0.2816270
  H        1.7975830     1.8046110     0.4123870
  H        1.2313290     2.1813940    -1.2178320
  H        0.4699250     2.9630620     0.1727880
  H       -2.7264860    -1.9781040     0.0926730
  H       -3.4380290     0.3918270     0.3981780
  H        2.0803190    -1.0071740     1.4349120
units angstrom
no_reorient  #important for SAPT in psi4, default
symmetry c1  #important for SAPT in psi4, default
}

set PROPERTIES_ORIGIN ["COM"]
properties('MP2/aug-cc-pvtz', properties = ['dipole'])
--------------------------------------------------------------------------

    Molecular point group: c1
  Charge       = 0
  Multiplicity = 1
  Basis Set: AUG-CC-PVTZ
    Blend: AUG-CC-PVTZ
  Basis Set: (AUG-CC-PVTZ AUX)
    Blend: AUG-CC-PVTZ-JKFIT

    Orbital Energies [Eh]
    ---------------------

    Doubly Occupied:

       1A    -20.561108     2A    -11.283259     3A    -11.242940
       4A    -11.240209     5A    -11.238717     6A    -11.235041
       7A    -11.233919     8A    -11.233801     9A    -11.220358
      10A     -1.357532    11A     -1.161573    12A     -1.048234
      13A     -1.031091    14A     -0.939738    15A     -0.910018
      16A     -0.824595    17A     -0.791252    18A     -0.701125
      19A     -0.676473    20A     -0.643307    21A     -0.624398
      22A     -0.605565    23A     -0.590730    24A     -0.569626
      25A     -0.565168    26A     -0.541386    27A     -0.524618
      28A     -0.497318    29A     -0.490798    30A     -0.471967
      31A     -0.448281    32A     -0.337847    33A     -0.329894

  @DF-RHF Final Energy:  -383.75775189702358

   => Energetics <=

    Nuclear Repulsion Energy =            427.3777852591658757
    One-Electron Energy =               -1367.9273047041674545
    Two-Electron Energy =                 556.7917675479779973
    Total Energy =                       -383.7577518970235815
  Basis Set: (AUG-CC-PVTZ AUX)
    Blend: AUG-CC-PVTZ-RI
    Molecular point group: c1

    Geometry (in Angstrom), charge = 0, multiplicity = 1:

       Center              X                  Y                   Z               Mass
    ------------   -----------------  -----------------  -----------------  -----------------
         O            2.551956824537    -0.533753608389     0.699459734824    15.994914619570
         C            0.314867824537    -0.416395608389    -0.278297265176    12.000000000000
         C           -0.091234475463     0.877307191611    -0.095060365176    12.000000000000
         C            1.766047824537    -0.768829608389    -0.477475265176    12.000000000000
         C           -0.638201175463    -1.438085608389    -0.198472265176    12.000000000000
         C           -1.433186175463     1.197102391611     0.136268734824    12.000000000000
         C            0.920890824537     2.047769391611    -0.187842265176    12.000000000000
         C           -1.985120175463    -1.151832608389     0.032001734824    12.000000000000
         C           -2.380906175463     0.173135391611     0.208829734824    12.000000000000
         H            1.849700824537    -1.817128608389    -0.799188265176     1.007825032230
         H            2.224696824537    -0.148384608389    -1.252284265176     1.007825032230
         H           -0.322072175463    -2.471155608389    -0.339811265176     1.007825032230
         H           -1.748624175463     2.229977391611     0.275348734824     1.007825032230
         H            1.809874824537     1.826035391611     0.406108734824     1.007825032230
         H            1.243620824537     2.202818391611    -1.224110265176     1.007825032230
         H            0.482216824537     2.984486391611     0.166509734824     1.007825032230
         H           -2.714194175463    -1.956679608389     0.086394734824     1.007825032230
         H           -3.425737175463     0.413251391611     0.391899734824     1.007825032230
         H            2.092610824537    -0.985749608389     1.428633734824     1.007825032230

  Basis Set: AUG-CC-PVTZ
    Blend: AUG-CC-PVTZ
  Basis Set: (AUG-CC-PVTZ AUX)
    Blend: AUG-CC-PVTZ-JKFIT
	 Reference Energy          =    -383.7577518970235815 [Eh]
	 Singles Energy            =      -0.0000000000000000 [Eh]
	 Same-Spin Energy          =      -0.4128856552761956 [Eh]
	 Opposite-Spin Energy      =      -1.3204293360719710 [Eh]
	 Correlation Energy        =      -1.7333149913481667 [Eh]
	 Total Energy              =    -385.4910668883717335 [Eh]

	 ================> DF-SCS-MP2 Energies <==================
	-----------------------------------------------------------
	 SCS Same-Spin Scale       =       0.3333333333333333 [-]
	 SCS Opposite-Spin Scale   =       1.2000000000000000 [-]
	 SCS Same-Spin Energy      =      -0.1376285517587318 [Eh]
	 SCS Opposite-Spin Energy  =      -1.5845152032863652 [Eh]
	 SCS Correlation Energy    =      -1.7221437550450971 [Eh]
	 SCS Total Energy          =    -385.4798956520687057 [Eh]
	-----------------------------------------------------------

  Dipole Moment: [D]
     X:    -1.2456      Y:    -0.4406      Z:    -0.0931     Total:     1.3245

*** Psi4 exiting successfully. Buy a developer a beer!
