                               Psi4 1.4a3.dev225

  ==> Input File <==

--------------------------------------------------------------------------
#psi4
#
memory 32 gb

molecule  {
0 1
  O        2.5396650    -0.5551780     0.7057380
  C        0.3697793    -0.5065398    -0.2894323
  C       -0.0927650     0.9034730    -0.0869930
  C        1.7537560    -0.7902540    -0.4711970
  C       -0.6504930    -1.4595100    -0.1921940
  C       -1.4454780     1.1756780     0.1425470
  C        0.9085990     2.0263450    -0.1815640
  C       -1.9974120    -1.1732570     0.0382800
  C       -2.3931980     0.1517110     0.2151080
  H        1.8374090    -1.8385530    -0.7929100
  H        2.2124050    -0.1698090    -1.2460060
  H       -0.3343640    -2.4925800    -0.3335330
  H       -1.7609160     2.2085530     0.2816270
  H        1.7975830     1.8046110     0.4123870
  H        1.2313290     2.1813940    -1.2178320
  H        0.4699250     2.9630620     0.1727880
  H       -2.7264860    -1.9781040     0.0926730
  H       -3.4380290     0.3918270     0.3981780
  H        2.0803190    -1.0071740     1.4349120
units angstrom
no_reorient  #important for SAPT in psi4, default
symmetry c1  #important for SAPT in psi4, default
}

set PROPERTIES_ORIGIN ["COM"]
properties('MP2/aug-cc-pvtz', properties = ['dipole'])
--------------------------------------------------------------------------

    Molecular point group: c1
  Charge       = 0
  Multiplicity = 1
  Basis Set: AUG-CC-PVTZ
    Blend: AUG-CC-PVTZ
  Basis Set: (AUG-CC-PVTZ AUX)
    Blend: AUG-CC-PVTZ-JKFIT

    Orbital Energies [Eh]
    ---------------------

    Doubly Occupied:

       1A    -20.561814     2A    -11.279460     3A    -11.255512
       4A    -11.243058     5A    -11.241811     6A    -11.241459
       7A    -11.235255     8A    -11.232909     9A    -11.219713
      10A     -1.359842    11A     -1.151702    12A     -1.050812
      13A     -1.039024    14A     -0.950146    15A     -0.909094
      16A     -0.806509    17A     -0.795475    18A     -0.706999
      19A     -0.674003    20A     -0.653179    21A     -0.623357
      22A     -0.608018    23A     -0.586076    24A     -0.572149
      25A     -0.567676    26A     -0.543610    27A     -0.528473
      28A     -0.496093    29A     -0.484521    30A     -0.477406
      31A     -0.447195    32A     -0.340854    33A     -0.317399

  @DF-RHF Final Energy:  -383.74618953167345

   => Energetics <=

    Nuclear Repulsion Energy =            426.3717753761762879
    One-Electron Energy =               -1365.8347228480315607
    Two-Electron Energy =                 555.7167579401817648
    Total Energy =                       -383.7461895316735081
  Basis Set: (AUG-CC-PVTZ AUX)
    Blend: AUG-CC-PVTZ-RI
    Molecular point group: c1

    Geometry (in Angstrom), charge = 0, multiplicity = 1:

       Center              X                  Y                   Z               Mass
    ------------   -----------------  -----------------  -----------------  -----------------
         O            2.544292771586    -0.531676532726     0.700995620291    15.994914619570
         C            0.374407071586    -0.483038332726    -0.294174679709    12.000000000000
         C           -0.088137228414     0.926974467274    -0.091735379709    12.000000000000
         C            1.758383771586    -0.766752532726    -0.475939379709    12.000000000000
         C           -0.645865228414    -1.436008532726    -0.196936379709    12.000000000000
         C           -1.440850228414     1.199179467274     0.137804620291    12.000000000000
         C            0.913226771586     2.049846467274    -0.186306379709    12.000000000000
         C           -1.992784228414    -1.149755532726     0.033537620291    12.000000000000
         C           -2.388570228414     0.175212467274     0.210365620291    12.000000000000
         H            1.842036771586    -1.815051532726    -0.797652379709     1.007825032230
         H            2.217032771586    -0.146307532726    -1.250748379709     1.007825032230
         H           -0.329736228414    -2.469078532726    -0.338275379709     1.007825032230
         H           -1.756288228414     2.232054467274     0.276884620291     1.007825032230
         H            1.802210771586     1.828112467274     0.407644620291     1.007825032230
         H            1.235956771586     2.204895467274    -1.222574379709     1.007825032230
         H            0.474552771586     2.986563467274     0.168045620291     1.007825032230
         H           -2.721858228414    -1.954602532726     0.087930620291     1.007825032230
         H           -3.433401228414     0.415328467274     0.393435620291     1.007825032230
         H            2.084946771586    -0.983672532726     1.430169620291     1.007825032230

  Basis Set: AUG-CC-PVTZ
    Blend: AUG-CC-PVTZ
  Basis Set: (AUG-CC-PVTZ AUX)
    Blend: AUG-CC-PVTZ-JKFIT
	 Reference Energy          =    -383.7461895316734513 [Eh]
	 Singles Energy            =      -0.0000000000000000 [Eh]
	 Same-Spin Energy          =      -0.4140908861477702 [Eh]
	 Opposite-Spin Energy      =      -1.3224568823325260 [Eh]
	 Correlation Energy        =      -1.7365477684802961 [Eh]
	 Total Energy              =    -385.4827373001537580 [Eh]

	 ================> DF-SCS-MP2 Energies <==================
	-----------------------------------------------------------
	 SCS Same-Spin Scale       =       0.3333333333333333 [-]
	 SCS Opposite-Spin Scale   =       1.2000000000000000 [-]
	 SCS Same-Spin Energy      =      -0.1380302953825901 [Eh]
	 SCS Opposite-Spin Energy  =      -1.5869482587990311 [Eh]
	 SCS Correlation Energy    =      -1.7249785541816212 [Eh]
	 SCS Total Energy          =    -385.4711680858550835 [Eh]
	-----------------------------------------------------------

  Dipole Moment: [D]
     X:    -1.2238      Y:    -0.3654      Z:    -0.1002     Total:     1.2811

*** Psi4 exiting successfully. Buy a developer a beer!
