                               Psi4 1.4a3.dev225

  ==> Input File <==

--------------------------------------------------------------------------
#psi4
#
memory 32 gb

molecule  {
0 1
  O        2.5396650    -0.5551780     0.7057380
  C        0.3025760    -0.4378200    -0.2720190
  C       -0.0927650     0.9034730    -0.0869930
  C        1.7537560    -0.7902540    -0.4711970
  C       -0.6504930    -1.4595100    -0.1921940
  C       -1.6388897     1.2145980     0.1753668
  C        0.9085990     2.0263450    -0.1815640
  C       -1.9974120    -1.1732570     0.0382800
  C       -2.3931980     0.1517110     0.2151080
  H        1.8374090    -1.8385530    -0.7929100
  H        2.2124050    -0.1698090    -1.2460060
  H       -0.3343640    -2.4925800    -0.3335330
  H       -1.7609160     2.2085530     0.2816270
  H        1.7975830     1.8046110     0.4123870
  H        1.2313290     2.1813940    -1.2178320
  H        0.4699250     2.9630620     0.1727880
  H       -2.7264860    -1.9781040     0.0926730
  H       -3.4380290     0.3918270     0.3981780
  H        2.0803190    -1.0071740     1.4349120
units angstrom
no_reorient  #important for SAPT in psi4, default
symmetry c1  #important for SAPT in psi4, default
}

set PROPERTIES_ORIGIN ["COM"]
properties('MP2/aug-cc-pvtz', properties = ['dipole'])
--------------------------------------------------------------------------

    Molecular point group: c1
  Charge       = 0
  Multiplicity = 1
  Basis Set: AUG-CC-PVTZ
    Blend: AUG-CC-PVTZ
  Basis Set: (AUG-CC-PVTZ AUX)
    Blend: AUG-CC-PVTZ-JKFIT

    Orbital Energies [Eh]
    ---------------------

    Doubly Occupied:

       1A    -20.560156     2A    -11.282237     3A    -11.262924
       4A    -11.242208     5A    -11.236121     6A    -11.234546
       7A    -11.234259     8A    -11.229130     9A    -11.222517
      10A     -1.356603    11A     -1.150108    12A     -1.055074
      13A     -1.028936    14A     -0.951232    15A     -0.899478
      16A     -0.826279    17A     -0.783471    18A     -0.705603
      19A     -0.674299    20A     -0.645945    21A     -0.637362
      22A     -0.608298    23A     -0.586327    24A     -0.572282
      25A     -0.567530    26A     -0.549349    27A     -0.517710
      28A     -0.498306    29A     -0.487798    30A     -0.470433
      31A     -0.431969    32A     -0.353759    33A     -0.307560

  @DF-RHF Final Energy:  -383.71805113904679

   => Energetics <=

    Nuclear Repulsion Energy =            424.5421894256265887
    One-Electron Energy =               -1362.1808612583681679
    Two-Electron Energy =                 553.9206206936947865
    Total Energy =                       -383.7180511390467927
  Basis Set: (AUG-CC-PVTZ AUX)
    Blend: AUG-CC-PVTZ-RI
    Molecular point group: c1

    Geometry (in Angstrom), charge = 0, multiplicity = 1:

       Center              X                  Y                   Z               Mass
    ------------   -----------------  -----------------  -----------------  -----------------
         O            2.569911669904    -0.542257708373     0.696057621016    15.994914619570
         C            0.332822669904    -0.424899708373    -0.281699378984    12.000000000000
         C           -0.062518330096     0.916393291627    -0.096673378984    12.000000000000
         C            1.784002669904    -0.777333708373    -0.480877378984    12.000000000000
         C           -0.620246330096    -1.446589708373    -0.201874378984    12.000000000000
         C           -1.608643030096     1.227518291627     0.165686421016    12.000000000000
         C            0.938845669904     2.039265291627    -0.191244378984    12.000000000000
         C           -1.967165330096    -1.160336708373     0.028599621016    12.000000000000
         C           -2.362951330096     0.164631291627     0.205427621016    12.000000000000
         H            1.867655669904    -1.825632708373    -0.802590378984     1.007825032230
         H            2.242651669904    -0.156888708373    -1.255686378984     1.007825032230
         H           -0.304117330096    -2.479659708373    -0.343213378984     1.007825032230
         H           -1.730669330096     2.221473291627     0.271946621016     1.007825032230
         H            1.827829669904     1.817531291627     0.402706621016     1.007825032230
         H            1.261575669904     2.194314291627    -1.227512378984     1.007825032230
         H            0.500171669904     2.975982291627     0.163107621016     1.007825032230
         H           -2.696239330096    -1.965183708373     0.082992621016     1.007825032230
         H           -3.407782330096     0.404747291627     0.388497621016     1.007825032230
         H            2.110565669904    -0.994253708373     1.425231621016     1.007825032230

  Basis Set: AUG-CC-PVTZ
    Blend: AUG-CC-PVTZ
  Basis Set: (AUG-CC-PVTZ AUX)
    Blend: AUG-CC-PVTZ-JKFIT
	 Reference Energy          =    -383.7180511390467927 [Eh]
	 Singles Energy            =      -0.0000000000000000 [Eh]
	 Same-Spin Energy          =      -0.4130126715605160 [Eh]
	 Opposite-Spin Energy      =      -1.3228353449083019 [Eh]
	 Correlation Energy        =      -1.7358480164688179 [Eh]
	 Total Energy              =    -385.4538991555156144 [Eh]

	 ================> DF-SCS-MP2 Energies <==================
	-----------------------------------------------------------
	 SCS Same-Spin Scale       =       0.3333333333333333 [-]
	 SCS Opposite-Spin Scale   =       1.2000000000000000 [-]
	 SCS Same-Spin Energy      =      -0.1376708905201720 [Eh]
	 SCS Opposite-Spin Energy  =      -1.5874024138899623 [Eh]
	 SCS Correlation Energy    =      -1.7250733044101343 [Eh]
	 SCS Total Energy          =    -385.4431244434569521 [Eh]
	-----------------------------------------------------------

  Dipole Moment: [D]
     X:    -1.1279      Y:    -0.3153      Z:    -0.1065     Total:     1.1760

*** Psi4 exiting successfully. Buy a developer a beer!
