                               Psi4 1.4a3.dev225

  ==> Input File <==

--------------------------------------------------------------------------
#psi4
#
memory 32 gb

molecule  {
0 1
  O        2.5396650    -0.5551780     0.7057380
  C        0.3025760    -0.4378200    -0.2720190
  C       -0.0927650     0.9034730    -0.0869930
  C        1.7537560    -0.7902540    -0.4711970
  C       -0.6504930    -1.4595100    -0.1921940
  C       -1.4454780     1.1756780     0.1425470
  C        0.9085990     2.0263450    -0.1815640
  C       -2.0456487    -1.1630055     0.0465339
  C       -2.3931980     0.1517110     0.2151080
  H        1.8374090    -1.8385530    -0.7929100
  H        2.2124050    -0.1698090    -1.2460060
  H       -0.3343640    -2.4925800    -0.3335330
  H       -1.7609160     2.2085530     0.2816270
  H        1.7975830     1.8046110     0.4123870
  H        1.2313290     2.1813940    -1.2178320
  H        0.4699250     2.9630620     0.1727880
  H       -2.7264860    -1.9781040     0.0926730
  H       -3.4380290     0.3918270     0.3981780
  H        2.0803190    -1.0071740     1.4349120
units angstrom
no_reorient  #important for SAPT in psi4, default
symmetry c1  #important for SAPT in psi4, default
}

set PROPERTIES_ORIGIN ["COM"]
properties('MP2/aug-cc-pvtz', properties = ['dipole'])
--------------------------------------------------------------------------

    Molecular point group: c1
  Charge       = 0
  Multiplicity = 1
  Basis Set: AUG-CC-PVTZ
    Blend: AUG-CC-PVTZ
  Basis Set: (AUG-CC-PVTZ AUX)
    Blend: AUG-CC-PVTZ-JKFIT

    Orbital Energies [Eh]
    ---------------------

    Doubly Occupied:

       1A    -20.561016     2A    -11.282985     3A    -11.246478
       4A    -11.245121     5A    -11.238809     6A    -11.236811
       7A    -11.235397     8A    -11.233258     9A    -11.220025
      10A     -1.357441    11A     -1.155658    12A     -1.050764
      13A     -1.030248    14A     -0.941018    15A     -0.910586
      16A     -0.819381    17A     -0.791879    18A     -0.702162
      19A     -0.675059    20A     -0.644351    21A     -0.625017
      22A     -0.605851    23A     -0.590386    24A     -0.570597
      25A     -0.568834    26A     -0.542665    27A     -0.526093
      28A     -0.496743    29A     -0.486422    30A     -0.477387
      31A     -0.446757    32A     -0.337506    33A     -0.324927

  @DF-RHF Final Energy:  -383.75668130669044

   => Energetics <=

    Nuclear Repulsion Energy =            426.3630309726620453
    One-Electron Energy =               -1365.8841602827822044
    Two-Electron Energy =                 555.7644480034297203
    Total Energy =                       -383.7566813066904388
  Basis Set: (AUG-CC-PVTZ AUX)
    Blend: AUG-CC-PVTZ-RI
    Molecular point group: c1

    Geometry (in Angstrom), charge = 0, multiplicity = 1:

       Center              X                  Y                   Z               Mass
    ------------   -----------------  -----------------  -----------------  -----------------
         O            2.555640720177    -0.539439546001     0.698472490821    15.994914619570
         C            0.318551720177    -0.422081546001    -0.279284509179    12.000000000000
         C           -0.076789279823     0.919211453999    -0.094258509179    12.000000000000
         C            1.769731720177    -0.774515546001    -0.478462509179    12.000000000000
         C           -0.634517279823    -1.443771546001    -0.199459509179    12.000000000000
         C           -1.429502279823     1.191416453999     0.135281490821    12.000000000000
         C            0.924574720177     2.042083453999    -0.188829509179    12.000000000000
         C           -2.029672979823    -1.147267046001     0.039268390821    12.000000000000
         C           -2.377222279823     0.167449453999     0.207842490821    12.000000000000
         H            1.853384720177    -1.822814546001    -0.800175509179     1.007825032230
         H            2.228380720177    -0.154070546001    -1.253271509179     1.007825032230
         H           -0.318388279823    -2.476841546001    -0.340798509179     1.007825032230
         H           -1.744940279823     2.224291453999     0.274361490821     1.007825032230
         H            1.813558720177     1.820349453999     0.405121490821     1.007825032230
         H            1.247304720177     2.197132453999    -1.225097509179     1.007825032230
         H            0.485900720177     2.978800453999     0.165522490821     1.007825032230
         H           -2.710510279823    -1.962365546001     0.085407490821     1.007825032230
         H           -3.422053279823     0.407565453999     0.390912490821     1.007825032230
         H            2.096294720177    -0.991435546001     1.427646490821     1.007825032230

  Basis Set: AUG-CC-PVTZ
    Blend: AUG-CC-PVTZ
  Basis Set: (AUG-CC-PVTZ AUX)
    Blend: AUG-CC-PVTZ-JKFIT
	 Reference Energy          =    -383.7566813066904388 [Eh]
	 Singles Energy            =      -0.0000000000000000 [Eh]
	 Same-Spin Energy          =      -0.4129710861014991 [Eh]
	 Opposite-Spin Energy      =      -1.3209007375468642 [Eh]
	 Correlation Energy        =      -1.7338718236483635 [Eh]
	 Total Energy              =    -385.4905531303388102 [Eh]

	 ================> DF-SCS-MP2 Energies <==================
	-----------------------------------------------------------
	 SCS Same-Spin Scale       =       0.3333333333333333 [-]
	 SCS Opposite-Spin Scale   =       1.2000000000000000 [-]
	 SCS Same-Spin Energy      =      -0.1376570287004997 [Eh]
	 SCS Opposite-Spin Energy  =      -1.5850808850562370 [Eh]
	 SCS Correlation Energy    =      -1.7227379137567367 [Eh]
	 SCS Total Energy          =    -385.4794192204471983 [Eh]
	-----------------------------------------------------------

  Dipole Moment: [D]
     X:    -1.1947      Y:    -0.4159      Z:    -0.1044     Total:     1.2693

*** Psi4 exiting successfully. Buy a developer a beer!
