                               Psi4 1.4a3.dev225

  ==> Input File <==

--------------------------------------------------------------------------
#psi4
#
memory 32 gb

molecule  {
0 1
  O        2.5396650    -0.5551780     0.7057380
  C        0.3025760    -0.4378200    -0.2720190
  C       -0.0927650     0.9034730    -0.0869930
  C        1.7537560    -0.7902540    -0.4711970
  C       -0.6504930    -1.4595100    -0.1921940
  C       -1.4454780     1.1756780     0.1425470
  C        0.9085990     2.0263450    -0.1815640
  C       -1.9974120    -1.1732570     0.0382800
  C       -2.3931980     0.1517110     0.2151080
  H        1.8374090    -1.8385530    -0.7929100
  H        2.2124050    -0.1698090    -1.2460060
  H       -0.3343640    -2.4925800    -0.3335330
  H       -1.7609160     2.2085530     0.2816270
  H        1.7761650     1.9012492     0.4695248
  H        1.2313290     2.1813940    -1.2178320
  H        0.4699250     2.9630620     0.1727880
  H       -2.7264860    -1.9781040     0.0926730
  H       -3.4380290     0.3918270     0.3981780
  H        2.0803190    -1.0071740     1.4349120
units angstrom
no_reorient  #important for SAPT in psi4, default
symmetry c1  #important for SAPT in psi4, default
}

set PROPERTIES_ORIGIN ["COM"]
properties('MP2/aug-cc-pvtz', properties = ['dipole'])
--------------------------------------------------------------------------

    Molecular point group: c1
  Charge       = 0
  Multiplicity = 1
  Basis Set: AUG-CC-PVTZ
    Blend: AUG-CC-PVTZ
  Basis Set: (AUG-CC-PVTZ AUX)
    Blend: AUG-CC-PVTZ-JKFIT

    Orbital Energies [Eh]
    ---------------------

    Doubly Occupied:

       1A    -20.560039     2A    -11.282265     3A    -11.246329
       4A    -11.240113     5A    -11.238841     6A    -11.238324
       7A    -11.235581     8A    -11.234057     9A    -11.220008
      10A     -1.356311    11A     -1.157630    12A     -1.049014
      13A     -1.032747    14A     -0.943819    15A     -0.908306
      16A     -0.818563    17A     -0.792809    18A     -0.700575
      19A     -0.674207    20A     -0.644411    21A     -0.625394
      22A     -0.604804    23A     -0.586362    24A     -0.574852
      25A     -0.572566    26A     -0.538902    27A     -0.521768
      28A     -0.494083    29A     -0.489007    30A     -0.478358
      31A     -0.446873    32A     -0.337627    33A     -0.326516

  @DF-RHF Final Energy:  -383.75864248772484

   => Energetics <=

    Nuclear Repulsion Energy =            426.7099015368779646
    One-Electron Energy =               -1366.5949673603802239
    Two-Electron Energy =                 556.1264233357774174
    Total Energy =                       -383.7586424877248419
  Basis Set: (AUG-CC-PVTZ AUX)
    Blend: AUG-CC-PVTZ-RI
    Molecular point group: c1

    Geometry (in Angstrom), charge = 0, multiplicity = 1:

       Center              X                  Y                   Z               Mass
    ------------   -----------------  -----------------  -----------------  -----------------
         O            2.551075795496    -0.539229642351     0.698812138727    15.994914619570
         C            0.313986795496    -0.421871642351    -0.278944861273    12.000000000000
         C           -0.081354204504     0.919421357649    -0.093918861273    12.000000000000
         C            1.765166795496    -0.774305642351    -0.478122861273    12.000000000000
         C           -0.639082204504    -1.443561642351    -0.199119861273    12.000000000000
         C           -1.434067204504     1.191626357649     0.135621138727    12.000000000000
         C            0.920009795496     2.042293357649    -0.188489861273    12.000000000000
         C           -1.986001204504    -1.157308642351     0.031354138727    12.000000000000
         C           -2.381787204504     0.167659357649     0.208182138727    12.000000000000
         H            1.848819795496    -1.822604642351    -0.799835861273     1.007825032230
         H            2.223815795496    -0.153860642351    -1.252931861273     1.007825032230
         H           -0.322953204504    -2.476631642351    -0.340458861273     1.007825032230
         H           -1.749505204504     2.224501357649     0.274701138727     1.007825032230
         H            1.787575795496     1.917197557649     0.462598938727     1.007825032230
         H            1.242739795496     2.197342357649    -1.224757861273     1.007825032230
         H            0.481335795496     2.979010357649     0.165862138727     1.007825032230
         H           -2.715075204504    -1.962155642351     0.085747138727     1.007825032230
         H           -3.426618204504     0.407775357649     0.391252138727     1.007825032230
         H            2.091729795496    -0.991225642351     1.427986138727     1.007825032230

  Basis Set: AUG-CC-PVTZ
    Blend: AUG-CC-PVTZ
  Basis Set: (AUG-CC-PVTZ AUX)
    Blend: AUG-CC-PVTZ-JKFIT
	 Reference Energy          =    -383.7586424877248419 [Eh]
	 Singles Energy            =      -0.0000000000000000 [Eh]
	 Same-Spin Energy          =      -0.4131004930564189 [Eh]
	 Opposite-Spin Energy      =      -1.3207324632576016 [Eh]
	 Correlation Energy        =      -1.7338329563140205 [Eh]
	 Total Energy              =    -385.4924754440388597 [Eh]

	 ================> DF-SCS-MP2 Energies <==================
	-----------------------------------------------------------
	 SCS Same-Spin Scale       =       0.3333333333333333 [-]
	 SCS Opposite-Spin Scale   =       1.2000000000000000 [-]
	 SCS Same-Spin Energy      =      -0.1377001643521396 [Eh]
	 SCS Opposite-Spin Energy  =      -1.5848789559091219 [Eh]
	 SCS Correlation Energy    =      -1.7225791202612615 [Eh]
	 SCS Total Energy          =    -385.4812216079861287 [Eh]
	-----------------------------------------------------------

  Dipole Moment: [D]
     X:    -1.2246      Y:    -0.3728      Z:    -0.0763     Total:     1.2823

*** Psi4 exiting successfully. Buy a developer a beer!
