                               Psi4 1.4a3.dev225

  ==> Input File <==

--------------------------------------------------------------------------
#psi4
#
memory 32 gb

molecule  {
0 1
  O        2.5396650    -0.5551780     0.7057380
  C        0.3025760    -0.4378200    -0.2720190
  C       -0.0927650     0.9034730    -0.0869930
  C        1.7344915    -0.7855754    -0.4685529
  C       -0.6504930    -1.4595100    -0.1921940
  C       -1.4454780     1.1756780     0.1425470
  C        0.9085990     2.0263450    -0.1815640
  C       -1.9974120    -1.1732570     0.0382800
  C       -2.3931980     0.1517110     0.2151080
  H        1.8374090    -1.8385530    -0.7929100
  H        2.2124050    -0.1698090    -1.2460060
  H       -0.3343640    -2.4925800    -0.3335330
  H       -1.7609160     2.2085530     0.2816270
  H        1.7975830     1.8046110     0.4123870
  H        1.2313290     2.1813940    -1.2178320
  H        0.4699250     2.9630620     0.1727880
  H       -2.7264860    -1.9781040     0.0926730
  H       -3.4380290     0.3918270     0.3981780
  H        2.0803190    -1.0071740     1.4349120
units angstrom
no_reorient  #important for SAPT in psi4, default
symmetry c1  #important for SAPT in psi4, default
}

set PROPERTIES_ORIGIN ["COM"]
properties('MP2/aug-cc-pvtz', properties = ['dipole'])
--------------------------------------------------------------------------

    Molecular point group: c1
  Charge       = 0
  Multiplicity = 1
  Basis Set: AUG-CC-PVTZ
    Blend: AUG-CC-PVTZ
  Basis Set: (AUG-CC-PVTZ AUX)
    Blend: AUG-CC-PVTZ-JKFIT

    Orbital Energies [Eh]
    ---------------------

    Doubly Occupied:

       1A    -20.560225     2A    -11.282718     3A    -11.246472
       4A    -11.240664     5A    -11.239395     6A    -11.237655
       7A    -11.235550     8A    -11.233945     9A    -11.220050
      10A     -1.354574    11A     -1.158677    12A     -1.050510
      13A     -1.034498    14A     -0.944404    15A     -0.908136
      16A     -0.818783    17A     -0.792484    18A     -0.701023
      19A     -0.674085    20A     -0.645634    21A     -0.624679
      22A     -0.603862    23A     -0.585813    24A     -0.573345
      25A     -0.568258    26A     -0.543341    27A     -0.526711
      28A     -0.494629    29A     -0.488315    30A     -0.477937
      31A     -0.448777    32A     -0.337981    33A     -0.326097

  @DF-RHF Final Energy:  -383.75866403413522

   => Energetics <=

    Nuclear Repulsion Energy =            427.1620972001028917
    One-Electron Energy =               -1367.4830667416231336
    Two-Electron Energy =                 556.5623055073850765
    Total Energy =                       -383.7586640341352222
  Basis Set: (AUG-CC-PVTZ AUX)
    Blend: AUG-CC-PVTZ-RI
    Molecular point group: c1

    Geometry (in Angstrom), charge = 0, multiplicity = 1:

       Center              X                  Y                   Z               Mass
    ------------   -----------------  -----------------  -----------------  -----------------
         O            2.552792703578    -0.538891720441     0.699023943714    15.994914619570
         C            0.315703703578    -0.421533720441    -0.278733056286    12.000000000000
         C           -0.079637296422     0.919759279559    -0.093707056286    12.000000000000
         C            1.747619203578    -0.769289120441    -0.475266956286    12.000000000000
         C           -0.637365296422    -1.443223720441    -0.198908056286    12.000000000000
         C           -1.432350296422     1.191964279559     0.135832943714    12.000000000000
         C            0.921726703578     2.042631279559    -0.188278056286    12.000000000000
         C           -1.984284296422    -1.156970720441     0.031565943714    12.000000000000
         C           -2.380070296422     0.167997279559     0.208393943714    12.000000000000
         H            1.850536703578    -1.822266720441    -0.799624056286     1.007825032230
         H            2.225532703578    -0.153522720441    -1.252720056286     1.007825032230
         H           -0.321236296422    -2.476293720441    -0.340247056286     1.007825032230
         H           -1.747788296422     2.224839279559     0.274912943714     1.007825032230
         H            1.810710703578     1.820897279559     0.405672943714     1.007825032230
         H            1.244456703578     2.197680279559    -1.224546056286     1.007825032230
         H            0.483052703578     2.979348279559     0.166073943714     1.007825032230
         H           -2.713358296422    -1.961817720441     0.085958943714     1.007825032230
         H           -3.424901296422     0.408113279559     0.391463943714     1.007825032230
         H            2.093446703578    -0.990887720441     1.428197943714     1.007825032230

  Basis Set: AUG-CC-PVTZ
    Blend: AUG-CC-PVTZ
  Basis Set: (AUG-CC-PVTZ AUX)
    Blend: AUG-CC-PVTZ-JKFIT
	 Reference Energy          =    -383.7586640341352222 [Eh]
	 Singles Energy            =      -0.0000000000000000 [Eh]
	 Same-Spin Energy          =      -0.4134181327552544 [Eh]
	 Opposite-Spin Energy      =      -1.3211626222681485 [Eh]
	 Correlation Energy        =      -1.7345807550234029 [Eh]
	 Total Energy              =    -385.4932447891586094 [Eh]

	 ================> DF-SCS-MP2 Energies <==================
	-----------------------------------------------------------
	 SCS Same-Spin Scale       =       0.3333333333333333 [-]
	 SCS Opposite-Spin Scale   =       1.2000000000000000 [-]
	 SCS Same-Spin Energy      =      -0.1378060442517515 [Eh]
	 SCS Opposite-Spin Energy  =      -1.5853951467217782 [Eh]
	 SCS Correlation Energy    =      -1.7232011909735296 [Eh]
	 SCS Total Energy          =    -385.4818652251087769 [Eh]
	-----------------------------------------------------------

  Dipole Moment: [D]
     X:    -1.2599      Y:    -0.3857      Z:    -0.1083     Total:     1.3220

*** Psi4 exiting successfully. Buy a developer a beer!
