                               Psi4 1.4a3.dev225

  ==> Input File <==

--------------------------------------------------------------------------
#psi4
#
memory 32 gb

molecule  {
0 1
  O        2.5396650    -0.5551780     0.7057380
  C        0.3367791    -0.4715781    -0.2807796
  C       -0.0927650     0.9034730    -0.0869930
  C        1.7537560    -0.7902540    -0.4711970
  C       -0.6504930    -1.4595100    -0.1921940
  C       -1.4454780     1.1756780     0.1425470
  C        0.9085990     2.0263450    -0.1815640
  C       -1.9974120    -1.1732570     0.0382800
  C       -2.3931980     0.1517110     0.2151080
  H        1.8374090    -1.8385530    -0.7929100
  H        2.2124050    -0.1698090    -1.2460060
  H       -0.3343640    -2.4925800    -0.3335330
  H       -1.7609160     2.2085530     0.2816270
  H        1.7975830     1.8046110     0.4123870
  H        1.2313290     2.1813940    -1.2178320
  H        0.4699250     2.9630620     0.1727880
  H       -2.7264860    -1.9781040     0.0926730
  H       -3.4380290     0.3918270     0.3981780
  H        2.0803190    -1.0071740     1.4349120
units angstrom
no_reorient  #important for SAPT in psi4, default
symmetry c1  #important for SAPT in psi4, default
}

set PROPERTIES_ORIGIN ["COM"]
properties('MP2/aug-cc-pvtz', properties = ['dipole'])
--------------------------------------------------------------------------

    Molecular point group: c1
  Charge       = 0
  Multiplicity = 1
  Basis Set: AUG-CC-PVTZ
    Blend: AUG-CC-PVTZ
  Basis Set: (AUG-CC-PVTZ AUX)
    Blend: AUG-CC-PVTZ-JKFIT

    Orbital Energies [Eh]
    ---------------------

    Doubly Occupied:

       1A    -20.561372     2A    -11.281238     3A    -11.250907
       4A    -11.241378     5A    -11.240147     6A    -11.240029
       7A    -11.235196     8A    -11.233243     9A    -11.219750
      10A     -1.358575    11A     -1.154329    12A     -1.048935
      13A     -1.036519    14A     -0.946664    15A     -0.908928
      16A     -0.812368    17A     -0.793992    18A     -0.703796
      19A     -0.674283    20A     -0.648867    21A     -0.624069
      22A     -0.606742    23A     -0.586494    24A     -0.572587
      25A     -0.568122    26A     -0.543561    27A     -0.527125
      28A     -0.493593    29A     -0.486229    30A     -0.478878
      31A     -0.449242    32A     -0.339128    33A     -0.321409

  @DF-RHF Final Energy:  -383.75571316333202

   => Energetics <=

    Nuclear Repulsion Energy =            426.6260798808397681
    One-Electron Energy =               -1366.3881903207432060
    Two-Electron Energy =                 556.0063972765713061
    Total Energy =                       -383.7557131633320751
  Basis Set: (AUG-CC-PVTZ AUX)
    Blend: AUG-CC-PVTZ-RI
    Molecular point group: c1

    Geometry (in Angstrom), charge = 0, multiplicity = 1:

       Center              X                  Y                   Z               Mass
    ------------   -----------------  -----------------  -----------------  -----------------
         O            2.547536747445    -0.535113327375     0.700145045146    15.994914619570
         C            0.344650847445    -0.451513427375    -0.286372554854    12.000000000000
         C           -0.084893252555     0.923537672625    -0.092585954854    12.000000000000
         C            1.761627747445    -0.770189327375    -0.476789954854    12.000000000000
         C           -0.642621252555    -1.439445327375    -0.197786954854    12.000000000000
         C           -1.437606252555     1.195742672625     0.136954045146    12.000000000000
         C            0.916470747445     2.046409672625    -0.187156954854    12.000000000000
         C           -1.989540252555    -1.153192327375     0.032687045146    12.000000000000
         C           -2.385326252555     0.171775672625     0.209515045146    12.000000000000
         H            1.845280747445    -1.818488327375    -0.798502954854     1.007825032230
         H            2.220276747445    -0.149744327375    -1.251598954854     1.007825032230
         H           -0.326492252555    -2.472515327375    -0.339125954854     1.007825032230
         H           -1.753044252555     2.228617672625     0.276034045146     1.007825032230
         H            1.805454747445     1.824675672625     0.406794045146     1.007825032230
         H            1.239200747445     2.201458672625    -1.223424954854     1.007825032230
         H            0.477796747445     2.983126672625     0.167195045146     1.007825032230
         H           -2.718614252555    -1.958039327375     0.087080045146     1.007825032230
         H           -3.430157252555     0.411891672625     0.392585045146     1.007825032230
         H            2.088190747445    -0.987109327375     1.429319045146     1.007825032230

  Basis Set: AUG-CC-PVTZ
    Blend: AUG-CC-PVTZ
  Basis Set: (AUG-CC-PVTZ AUX)
    Blend: AUG-CC-PVTZ-JKFIT
	 Reference Energy          =    -383.7557131633320182 [Eh]
	 Singles Energy            =      -0.0000000000000000 [Eh]
	 Same-Spin Energy          =      -0.4135648300203221 [Eh]
	 Opposite-Spin Energy      =      -1.3214318970065586 [Eh]
	 Correlation Energy        =      -1.7349967270268807 [Eh]
	 Total Energy              =    -385.4907098903589144 [Eh]

	 ================> DF-SCS-MP2 Energies <==================
	-----------------------------------------------------------
	 SCS Same-Spin Scale       =       0.3333333333333333 [-]
	 SCS Opposite-Spin Scale   =       1.2000000000000000 [-]
	 SCS Same-Spin Energy      =      -0.1378549433401074 [Eh]
	 SCS Opposite-Spin Energy  =      -1.5857182764078703 [Eh]
	 SCS Correlation Energy    =      -1.7235732197479776 [Eh]
	 SCS Total Energy          =    -385.4792863830800229 [Eh]
	-----------------------------------------------------------

  Dipole Moment: [D]
     X:    -1.2117      Y:    -0.3831      Z:    -0.1016     Total:     1.2749

*** Psi4 exiting successfully. Buy a developer a beer!
