                               Psi4 1.4a3.dev225

  ==> Input File <==

--------------------------------------------------------------------------
#psi4
#
memory 32 gb

molecule  {
0 1
  O        2.5396650    -0.5551780     0.7057380
  C        0.3025760    -0.4378200    -0.2720190
  C       -0.0927650     0.9034730    -0.0869930
  C        1.7537560    -0.7902540    -0.4711970
  C       -0.6504930    -1.4595100    -0.1921940
  C       -1.4454780     1.1756780     0.1425470
  C        0.9085990     2.0263450    -0.1815640
  C       -1.9974120    -1.1732570     0.0382800
  C       -2.3931980     0.1517110     0.2151080
  H        1.8374090    -1.8385530    -0.7929100
  H        2.2124050    -0.1698090    -1.2460060
  H       -0.3343640    -2.4925800    -0.3335330
  H       -1.7609160     2.2085530     0.2816270
  H        1.7975830     1.8046110     0.4123870
  H        1.2313290     2.1813940    -1.2178320
  H        0.4699250     2.9630620     0.1727880
  H       -2.7264860    -1.9781040     0.0926730
  H       -3.4572428     0.3962426     0.4015445
  H        2.0803190    -1.0071740     1.4349120
units angstrom
no_reorient  #important for SAPT in psi4, default
symmetry c1  #important for SAPT in psi4, default
}

set PROPERTIES_ORIGIN ["COM"]
properties('MP2/aug-cc-pvtz', properties = ['dipole'])
--------------------------------------------------------------------------

    Molecular point group: c1
  Charge       = 0
  Multiplicity = 1
  Basis Set: AUG-CC-PVTZ
    Blend: AUG-CC-PVTZ
  Basis Set: (AUG-CC-PVTZ AUX)
    Blend: AUG-CC-PVTZ-JKFIT

    Orbital Energies [Eh]
    ---------------------

    Doubly Occupied:

       1A    -20.560961     2A    -11.282819     3A    -11.246017
       4A    -11.241044     5A    -11.240269     6A    -11.238241
       7A    -11.235421     8A    -11.233794     9A    -11.219930
      10A     -1.357363    11A     -1.157615    12A     -1.049141
      13A     -1.032558    14A     -0.943654    15A     -0.908182
      16A     -0.818254    17A     -0.791428    18A     -0.700927
      19A     -0.674054    20A     -0.643184    21A     -0.625267
      22A     -0.605288    23A     -0.586524    24A     -0.572899
      25A     -0.568693    26A     -0.542889    27A     -0.525722
      28A     -0.494021    29A     -0.488295    30A     -0.478113
      31A     -0.447450    32A     -0.337673    33A     -0.325785

  @DF-RHF Final Energy:  -383.75894525032726

   => Energetics <=

    Nuclear Repulsion Energy =            426.8073942758625776
    One-Electron Energy =               -1366.7857295158853503
    Two-Electron Energy =                 556.2193899896954008
    Total Energy =                       -383.7589452503273151
  Basis Set: (AUG-CC-PVTZ AUX)
    Blend: AUG-CC-PVTZ-RI
    Molecular point group: c1

    Geometry (in Angstrom), charge = 0, multiplicity = 1:

       Center              X                  Y                   Z               Mass
    ------------   -----------------  -----------------  -----------------  -----------------
         O            2.551057597820    -0.538468260889     0.699256069727    15.994914619570
         C            0.313968597820    -0.421110260889    -0.278500930273    12.000000000000
         C           -0.081372402180     0.920182739111    -0.093474930273    12.000000000000
         C            1.765148597820    -0.773544260889    -0.477678930273    12.000000000000
         C           -0.639100402180    -1.442800260889    -0.198675930273    12.000000000000
         C           -1.434085402180     1.192387739111     0.136065069727    12.000000000000
         C            0.919991597820     2.043054739111    -0.188045930273    12.000000000000
         C           -1.986019402180    -1.156547260889     0.031798069727    12.000000000000
         C           -2.381805402180     0.168420739111     0.208626069727    12.000000000000
         H            1.848801597820    -1.821843260889    -0.799391930273     1.007825032230
         H            2.223797597820    -0.153099260889    -1.252487930273     1.007825032230
         H           -0.322971402180    -2.475870260889    -0.340014930273     1.007825032230
         H           -1.749523402180     2.225262739111     0.275145069727     1.007825032230
         H            1.808975597820     1.821320739111     0.405905069727     1.007825032230
         H            1.242721597820     2.198103739111    -1.224313930273     1.007825032230
         H            0.481317597820     2.979771739111     0.166306069727     1.007825032230
         H           -2.715093402180    -1.961394260889     0.086191069727     1.007825032230
         H           -3.445850202180     0.412952339111     0.395062569727     1.007825032230
         H            2.091711597820    -0.990464260889     1.428430069727     1.007825032230

  Basis Set: AUG-CC-PVTZ
    Blend: AUG-CC-PVTZ
  Basis Set: (AUG-CC-PVTZ AUX)
    Blend: AUG-CC-PVTZ-JKFIT
	 Reference Energy          =    -383.7589452503272582 [Eh]
	 Singles Energy            =      -0.0000000000000000 [Eh]
	 Same-Spin Energy          =      -0.4132166455353723 [Eh]
	 Opposite-Spin Energy      =      -1.3209333624756898 [Eh]
	 Correlation Energy        =      -1.7341500080110621 [Eh]
	 Total Energy              =    -385.4930952583383146 [Eh]

	 ================> DF-SCS-MP2 Energies <==================
	-----------------------------------------------------------
	 SCS Same-Spin Scale       =       0.3333333333333333 [-]
	 SCS Opposite-Spin Scale   =       1.2000000000000000 [-]
	 SCS Same-Spin Energy      =      -0.1377388818451241 [Eh]
	 SCS Opposite-Spin Energy  =      -1.5851200349708277 [Eh]
	 SCS Correlation Energy    =      -1.7228589168159518 [Eh]
	 SCS Total Energy          =    -385.4818041671431956 [Eh]
	-----------------------------------------------------------

  Dipole Moment: [D]
     X:    -1.1925      Y:    -0.4018      Z:    -0.1036     Total:     1.2627

*** Psi4 exiting successfully. Buy a developer a beer!
