                               Psi4 1.4a3.dev225

  ==> Input File <==

--------------------------------------------------------------------------
#psi4
#
memory 32 gb

molecule  {
0 1
  O        2.5396650    -0.5551780     0.7057380
  C        0.3025760    -0.4378200    -0.2720190
  C       -0.0927650     0.9034730    -0.0869930
  C        1.7537560    -0.7902540    -0.4711970
  C       -0.6504930    -1.4595100    -0.1921940
  C       -1.4454780     1.1756780     0.1425470
  C        0.9085990     2.0263450    -0.1815640
  C       -1.9974120    -1.1732570     0.0382800
  C       -2.3931980     0.1517110     0.2151080
  H        1.8374090    -1.8385530    -0.7929100
  H        2.2124050    -0.1698090    -1.2460060
  H       -0.3343640    -2.4925800    -0.3335330
  H       -1.7609160     2.2085530     0.2816270
  H        1.7975830     1.8046110     0.4123870
  H        1.2313290     2.1813940    -1.2178320
  H        0.4699250     2.9630620     0.1727880
  H       -2.7264860    -1.9781040     0.0926730
  H       -3.6301667     0.4359828     0.4318434
  H        2.0803190    -1.0071740     1.4349120
units angstrom
no_reorient  #important for SAPT in psi4, default
symmetry c1  #important for SAPT in psi4, default
}

set PROPERTIES_ORIGIN ["COM"]
properties('MP2/aug-cc-pvtz', properties = ['dipole'])
--------------------------------------------------------------------------

    Molecular point group: c1
  Charge       = 0
  Multiplicity = 1
  Basis Set: AUG-CC-PVTZ
    Blend: AUG-CC-PVTZ
  Basis Set: (AUG-CC-PVTZ AUX)
    Blend: AUG-CC-PVTZ-JKFIT

    Orbital Energies [Eh]
    ---------------------

    Doubly Occupied:

       1A    -20.561621     2A    -11.283583     3A    -11.260380
       4A    -11.247602     5A    -11.241848     6A    -11.239350
       7A    -11.237687     8A    -11.236050     9A    -11.220907
      10A     -1.358032    11A     -1.158613    12A     -1.048866
      13A     -1.032308    14A     -0.944280    15A     -0.906180
      16A     -0.818907    17A     -0.785390    18A     -0.700992
      19A     -0.671392    20A     -0.632601    21A     -0.624211
      22A     -0.606038    23A     -0.585336    24A     -0.571596
      25A     -0.569483    26A     -0.539201    27A     -0.518320
      28A     -0.491952    29A     -0.489873    30A     -0.475229
      31A     -0.446930    32A     -0.339077    33A     -0.327145

  @DF-RHF Final Energy:  -383.73745945109550

   => Energetics <=

    Nuclear Repulsion Energy =            425.9972848562782133
    One-Electron Energy =               -1365.1275259575129439
    Two-Electron Energy =                 555.3927816501392272
    Total Energy =                       -383.7374594510955603
  Basis Set: (AUG-CC-PVTZ AUX)
    Blend: AUG-CC-PVTZ-RI
    Molecular point group: c1

    Geometry (in Angstrom), charge = 0, multiplicity = 1:

       Center              X                  Y                   Z               Mass
    ------------   -----------------  -----------------  -----------------  -----------------
         O            2.552485241931    -0.538796352393     0.699005924743    15.994914619570
         C            0.315396241931    -0.421438352393    -0.278751075257    12.000000000000
         C           -0.079944758069     0.919854647607    -0.093725075257    12.000000000000
         C            1.766576241931    -0.773872352393    -0.477929075257    12.000000000000
         C           -0.637672758069    -1.443128352393    -0.198926075257    12.000000000000
         C           -1.432657758069     1.192059647607     0.135814924743    12.000000000000
         C            0.921419241931     2.042726647607    -0.188296075257    12.000000000000
         C           -1.984591758069    -1.156875352393     0.031547924743    12.000000000000
         C           -2.380377758069     0.168092647607     0.208375924743    12.000000000000
         H            1.850229241931    -1.822171352393    -0.799642075257     1.007825032230
         H            2.225225241931    -0.153427352393    -1.252738075257     1.007825032230
         H           -0.321543758069    -2.476198352393    -0.340265075257     1.007825032230
         H           -1.748095758069     2.224934647607     0.274894924743     1.007825032230
         H            1.810403241931     1.820992647607     0.405654924743     1.007825032230
         H            1.244149241931     2.197775647607    -1.224564075257     1.007825032230
         H            0.482745241931     2.979443647607     0.166055924743     1.007825032230
         H           -2.713665758069    -1.961722352393     0.085940924743     1.007825032230
         H           -3.617346458069     0.452364447607     0.425111324743     1.007825032230
         H            2.093139241931    -0.990792352393     1.428179924743     1.007825032230

  Basis Set: AUG-CC-PVTZ
    Blend: AUG-CC-PVTZ
  Basis Set: (AUG-CC-PVTZ AUX)
    Blend: AUG-CC-PVTZ-JKFIT
	 Reference Energy          =    -383.7374594510955035 [Eh]
	 Singles Energy            =      -0.0000000000000000 [Eh]
	 Same-Spin Energy          =      -0.4136434475960290 [Eh]
	 Opposite-Spin Energy      =      -1.3229956810592856 [Eh]
	 Correlation Energy        =      -1.7366391286553147 [Eh]
	 Total Energy              =    -385.4740985797508301 [Eh]

	 ================> DF-SCS-MP2 Energies <==================
	-----------------------------------------------------------
	 SCS Same-Spin Scale       =       0.3333333333333333 [-]
	 SCS Opposite-Spin Scale   =       1.2000000000000000 [-]
	 SCS Same-Spin Energy      =      -0.1378811491986763 [Eh]
	 SCS Opposite-Spin Energy  =      -1.5875948172711427 [Eh]
	 SCS Correlation Energy    =      -1.7254759664698189 [Eh]
	 SCS Total Energy          =    -385.4629354175653475 [Eh]
	-----------------------------------------------------------

  Dipole Moment: [D]
     X:    -1.0791      Y:    -0.4188      Z:    -0.1221     Total:     1.1639

*** Psi4 exiting successfully. Buy a developer a beer!
