                               Psi4 1.4a3.dev225

  ==> Input File <==

--------------------------------------------------------------------------
#psi4
#
memory 32 gb

molecule  {
0 1
  O        2.5396650    -0.5551780     0.7057380
  C        0.2307294    -0.3740777    -0.2542168
  C       -0.0927650     0.9034730    -0.0869930
  C        1.7537560    -0.7902540    -0.4711970
  C       -0.6504930    -1.4595100    -0.1921940
  C       -1.4454780     1.1756780     0.1425470
  C        0.9085990     2.0263450    -0.1815640
  C       -1.9974120    -1.1732570     0.0382800
  C       -2.3931980     0.1517110     0.2151080
  H        1.8374090    -1.8385530    -0.7929100
  H        2.2124050    -0.1698090    -1.2460060
  H       -0.3343640    -2.4925800    -0.3335330
  H       -1.7609160     2.2085530     0.2816270
  H        1.7975830     1.8046110     0.4123870
  H        1.2313290     2.1813940    -1.2178320
  H        0.4699250     2.9630620     0.1727880
  H       -2.7264860    -1.9781040     0.0926730
  H       -3.4380290     0.3918270     0.3981780
  H        2.0803190    -1.0071740     1.4349120
units angstrom
no_reorient  #important for SAPT in psi4, default
symmetry c1  #important for SAPT in psi4, default
}

set PROPERTIES_ORIGIN ["COM"]
properties('MP2/aug-cc-pvtz', properties = ['dipole'])
--------------------------------------------------------------------------

    Molecular point group: c1
  Charge       = 0
  Multiplicity = 1
  Basis Set: AUG-CC-PVTZ
    Blend: AUG-CC-PVTZ
  Basis Set: (AUG-CC-PVTZ AUX)
    Blend: AUG-CC-PVTZ-JKFIT

    Orbital Energies [Eh]
    ---------------------

    Doubly Occupied:

       1A    -20.559850     2A    -11.284577     3A    -11.238870
       4A    -11.236706     5A    -11.235705     6A    -11.235234
       7A    -11.234272     8A    -11.233297     9A    -11.220299
      10A     -1.354719    11A     -1.166080    12A     -1.052969
      13A     -1.024791    14A     -0.940156    15A     -0.906576
      16A     -0.829498    17A     -0.789239    18A     -0.696973
      19A     -0.675693    20A     -0.637651    21A     -0.628326
      22A     -0.601957    23A     -0.586814    24A     -0.573993
      25A     -0.569668    26A     -0.543076    27A     -0.525577
      28A     -0.500874    29A     -0.492797    30A     -0.473753
      31A     -0.433412    32A     -0.337241    33A     -0.332662

  @DF-RHF Final Energy:  -383.74968688231667

   => Energetics <=

    Nuclear Repulsion Energy =            427.5570691431142336
    One-Electron Energy =               -1368.3069015927576402
    Two-Electron Energy =                 557.0001455673268538
    Total Energy =                       -383.7496868823166096
  Basis Set: (AUG-CC-PVTZ AUX)
    Blend: AUG-CC-PVTZ-RI
    Molecular point group: c1

    Geometry (in Angstrom), charge = 0, multiplicity = 1:

       Center              X                  Y                   Z               Mass
    ------------   -----------------  -----------------  -----------------  -----------------
         O            2.557961613553    -0.544697782734     0.697533876671    15.994914619570
         C            0.249026013553    -0.363597482734    -0.262420923329    12.000000000000
         C           -0.074468386447     0.913953217266    -0.095197123329    12.000000000000
         C            1.772052613553    -0.779773782734    -0.479401123329    12.000000000000
         C           -0.632196386447    -1.449029782734    -0.200398123329    12.000000000000
         C           -1.427181386447     1.186158217266     0.134342876671    12.000000000000
         C            0.926895613553     2.036825217266    -0.189768123329    12.000000000000
         C           -1.979115386447    -1.162776782734     0.030075876671    12.000000000000
         C           -2.374901386447     0.162191217266     0.206903876671    12.000000000000
         H            1.855705613553    -1.828072782734    -0.801114123329     1.007825032230
         H            2.230701613553    -0.159328782734    -1.254210123329     1.007825032230
         H           -0.316067386447    -2.482099782734    -0.341737123329     1.007825032230
         H           -1.742619386447     2.219033217266     0.273422876671     1.007825032230
         H            1.815879613553     1.815091217266     0.404182876671     1.007825032230
         H            1.249625613553     2.191874217266    -1.226036123329     1.007825032230
         H            0.488221613553     2.973542217266     0.164583876671     1.007825032230
         H           -2.708189386447    -1.967623782734     0.084468876671     1.007825032230
         H           -3.419732386447     0.402307217266     0.389973876671     1.007825032230
         H            2.098615613553    -0.996693782734     1.426707876671     1.007825032230

  Basis Set: AUG-CC-PVTZ
    Blend: AUG-CC-PVTZ
  Basis Set: (AUG-CC-PVTZ AUX)
    Blend: AUG-CC-PVTZ-JKFIT
	 Reference Energy          =    -383.7496868823166665 [Eh]
	 Singles Energy            =      -0.0000000000000000 [Eh]
	 Same-Spin Energy          =      -0.4128346784262384 [Eh]
	 Opposite-Spin Energy      =      -1.3205642617604008 [Eh]
	 Correlation Energy        =      -1.7333989401866392 [Eh]
	 Total Energy              =    -385.4830858225033126 [Eh]

	 ================> DF-SCS-MP2 Energies <==================
	-----------------------------------------------------------
	 SCS Same-Spin Scale       =       0.3333333333333333 [-]
	 SCS Opposite-Spin Scale   =       1.2000000000000000 [-]
	 SCS Same-Spin Energy      =      -0.1376115594754128 [Eh]
	 SCS Opposite-Spin Energy  =      -1.5846771141124809 [Eh]
	 SCS Correlation Energy    =      -1.7222886735878937 [Eh]
	 SCS Total Energy          =    -385.4719755559045780 [Eh]
	-----------------------------------------------------------

  Dipole Moment: [D]
     X:    -1.1946      Y:    -0.4301      Z:    -0.0990     Total:     1.2735

*** Psi4 exiting successfully. Buy a developer a beer!
