                               Psi4 1.4a3.dev225

  ==> Input File <==

--------------------------------------------------------------------------
#psi4
#
memory 32 gb

molecule  {
0 1
  O        2.5396650    -0.5551780     0.7057380
  C        0.2850364    -0.4214052    -0.2676015
  C       -0.0927650     0.9034730    -0.0869930
  C        1.7537560    -0.7902540    -0.4711970
  C       -0.6504930    -1.4595100    -0.1921940
  C       -1.4454780     1.1756780     0.1425470
  C        0.9085990     2.0263450    -0.1815640
  C       -1.9974120    -1.1732570     0.0382800
  C       -2.3931980     0.1517110     0.2151080
  H        1.8374090    -1.8385530    -0.7929100
  H        2.2124050    -0.1698090    -1.2460060
  H       -0.3343640    -2.4925800    -0.3335330
  H       -1.7609160     2.2085530     0.2816270
  H        1.7975830     1.8046110     0.4123870
  H        1.2313290     2.1813940    -1.2178320
  H        0.4699250     2.9630620     0.1727880
  H       -2.7264860    -1.9781040     0.0926730
  H       -3.4380290     0.3918270     0.3981780
  H        2.0803190    -1.0071740     1.4349120
units angstrom
no_reorient  #important for SAPT in psi4, default
symmetry c1  #important for SAPT in psi4, default
}

set PROPERTIES_ORIGIN ["COM"]
properties('MP2/aug-cc-pvtz', properties = ['dipole'])
--------------------------------------------------------------------------

    Molecular point group: c1
  Charge       = 0
  Multiplicity = 1
  Basis Set: AUG-CC-PVTZ
    Blend: AUG-CC-PVTZ
  Basis Set: (AUG-CC-PVTZ AUX)
    Blend: AUG-CC-PVTZ-JKFIT

    Orbital Energies [Eh]
    ---------------------

    Doubly Occupied:

       1A    -20.560667     2A    -11.283387     3A    -11.243255
       4A    -11.239686     5A    -11.238159     6A    -11.237072
       7A    -11.235214     8A    -11.233756     9A    -11.219921
      10A     -1.356676    11A     -1.159445    12A     -1.049981
      13A     -1.030621    14A     -0.942411    15A     -0.908263
      16A     -0.821184    17A     -0.791635    18A     -0.699785
      19A     -0.674936    20A     -0.642779    21A     -0.625993
      22A     -0.604417    23A     -0.586770    24A     -0.573316
      25A     -0.568879    26A     -0.543372    27A     -0.525942
      28A     -0.495529    29A     -0.489209    30A     -0.477191
      31A     -0.445204    32A     -0.336891    33A     -0.327847

  @DF-RHF Final Energy:  -383.75935191885787

   => Energetics <=

    Nuclear Repulsion Energy =            427.0593957369171676
    One-Electron Energy =               -1367.2987118257519796
    Two-Electron Energy =                 556.4799641699769381
    Total Energy =                       -383.7593519188578739
  Basis Set: (AUG-CC-PVTZ AUX)
    Blend: AUG-CC-PVTZ-RI
    Molecular point group: c1

    Geometry (in Angstrom), charge = 0, multiplicity = 1:

       Center              X                  Y                   Z               Mass
    ------------   -----------------  -----------------  -----------------  -----------------
         O            2.552623142971    -0.540045408887     0.698849615474    15.994914619570
         C            0.297994542971    -0.406272608887    -0.274489884526    12.000000000000
         C           -0.079806857029     0.918605591113    -0.093881384526    12.000000000000
         C            1.766714142971    -0.775121408887    -0.478085384526    12.000000000000
         C           -0.637534857029    -1.444377408887    -0.199082384526    12.000000000000
         C           -1.432519857029     1.190810591113     0.135658615474    12.000000000000
         C            0.921557142971     2.041477591113    -0.188452384526    12.000000000000
         C           -1.984453857029    -1.158124408887     0.031391615474    12.000000000000
         C           -2.380239857029     0.166843591113     0.208219615474    12.000000000000
         H            1.850367142971    -1.823420408887    -0.799798384526     1.007825032230
         H            2.225363142971    -0.154676408887    -1.252894384526     1.007825032230
         H           -0.321405857029    -2.477447408887    -0.340421384526     1.007825032230
         H           -1.747957857029     2.223685591113     0.274738615474     1.007825032230
         H            1.810541142971     1.819743591113     0.405498615474     1.007825032230
         H            1.244287142971     2.196526591113    -1.224720384526     1.007825032230
         H            0.482883142971     2.978194591113     0.165899615474     1.007825032230
         H           -2.713527857029    -1.962971408887     0.085784615474     1.007825032230
         H           -3.425070857029     0.406959591113     0.391289615474     1.007825032230
         H            2.093277142971    -0.992041408887     1.428023615474     1.007825032230

  Basis Set: AUG-CC-PVTZ
    Blend: AUG-CC-PVTZ
  Basis Set: (AUG-CC-PVTZ AUX)
    Blend: AUG-CC-PVTZ-JKFIT
	 Reference Energy          =    -383.7593519188578739 [Eh]
	 Singles Energy            =      -0.0000000000000000 [Eh]
	 Same-Spin Energy          =      -0.4130398879169366 [Eh]
	 Opposite-Spin Energy      =      -1.3205829634988124 [Eh]
	 Correlation Energy        =      -1.7336228514157490 [Eh]
	 Total Energy              =    -385.4929747702736336 [Eh]

	 ================> DF-SCS-MP2 Energies <==================
	-----------------------------------------------------------
	 SCS Same-Spin Scale       =       0.3333333333333333 [-]
	 SCS Opposite-Spin Scale   =       1.2000000000000000 [-]
	 SCS Same-Spin Energy      =      -0.1376799626389789 [Eh]
	 SCS Opposite-Spin Energy  =      -1.5846995561985748 [Eh]
	 SCS Correlation Energy    =      -1.7223795188375537 [Eh]
	 SCS Total Energy          =    -385.4817314376954300 [Eh]
	-----------------------------------------------------------

  Dipole Moment: [D]
     X:    -1.1977      Y:    -0.4089      Z:    -0.1020     Total:     1.2697

*** Psi4 exiting successfully. Buy a developer a beer!
