                               Psi4 1.4a3.dev225

  ==> Input File <==

--------------------------------------------------------------------------
#psi4
#
memory 32 gb

molecule  {
0 1
  O        2.5396650    -0.5551780     0.7057380
  C        0.3025760    -0.4378200    -0.2720190
  C       -0.0927650     0.9034730    -0.0869930
  C        1.7730205    -0.7949326    -0.4738411
  C       -0.6504930    -1.4595100    -0.1921940
  C       -1.4454780     1.1756780     0.1425470
  C        0.9085990     2.0263450    -0.1815640
  C       -1.9974120    -1.1732570     0.0382800
  C       -2.3931980     0.1517110     0.2151080
  H        1.8374090    -1.8385530    -0.7929100
  H        2.2124050    -0.1698090    -1.2460060
  H       -0.3343640    -2.4925800    -0.3335330
  H       -1.7609160     2.2085530     0.2816270
  H        1.7975830     1.8046110     0.4123870
  H        1.2313290     2.1813940    -1.2178320
  H        0.4699250     2.9630620     0.1727880
  H       -2.7264860    -1.9781040     0.0926730
  H       -3.4380290     0.3918270     0.3981780
  H        2.0803190    -1.0071740     1.4349120
units angstrom
no_reorient  #important for SAPT in psi4, default
symmetry c1  #important for SAPT in psi4, default
}

set PROPERTIES_ORIGIN ["COM"]
properties('MP2/aug-cc-pvtz', properties = ['dipole'])
--------------------------------------------------------------------------

    Molecular point group: c1
  Charge       = 0
  Multiplicity = 1
  Basis Set: AUG-CC-PVTZ
    Blend: AUG-CC-PVTZ
  Basis Set: (AUG-CC-PVTZ AUX)
    Blend: AUG-CC-PVTZ-JKFIT

    Orbital Energies [Eh]
    ---------------------

    Doubly Occupied:

       1A    -20.561601     2A    -11.282886     3A    -11.245293
       4A    -11.239734     5A    -11.238452     6A    -11.238123
       7A    -11.234834     8A    -11.233213     9A    -11.219637
      10A     -1.360031    11A     -1.156532    12A     -1.048280
      13A     -1.030832    14A     -0.942940    15A     -0.909051
      16A     -0.817757    17A     -0.792315    18A     -0.701237
      19A     -0.675255    20A     -0.643963    21A     -0.625775
      22A     -0.606759    23A     -0.587593    24A     -0.572773
      25A     -0.568877    26A     -0.543549    27A     -0.525659
      28A     -0.493823    29A     -0.487969    30A     -0.478716
      31A     -0.445531    32A     -0.337123    33A     -0.325237

  @DF-RHF Final Energy:  -383.75971490494015

   => Energetics <=

    Nuclear Repulsion Energy =            426.6565163104333465
    One-Electron Energy =               -1366.4897617821623044
    Two-Electron Energy =                 556.0735305667888042
    Total Energy =                       -383.7597149049402105
  Basis Set: (AUG-CC-PVTZ AUX)
    Blend: AUG-CC-PVTZ-RI
    Molecular point group: c1

    Geometry (in Angstrom), charge = 0, multiplicity = 1:

       Center              X                  Y                   Z               Mass
    ------------   -----------------  -----------------  -----------------  -----------------
         O            2.549005237265    -0.537971891746     0.699543782780    15.994914619570
         C            0.311916237265    -0.420613891746    -0.278213217220    12.000000000000
         C           -0.083424762735     0.920679108254    -0.093187217220    12.000000000000
         C            1.782360737265    -0.777726491746    -0.480035317220    12.000000000000
         C           -0.641152762735    -1.442303891746    -0.198388217220    12.000000000000
         C           -1.436137762735     1.192884108254     0.136352782780    12.000000000000
         C            0.917939237265     2.043551108254    -0.187758217220    12.000000000000
         C           -1.988071762735    -1.156050891746     0.032085782780    12.000000000000
         C           -2.383857762735     0.168917108254     0.208913782780    12.000000000000
         H            1.846749237265    -1.821346891746    -0.799104217220     1.007825032230
         H            2.221745237265    -0.152602891746    -1.252200217220     1.007825032230
         H           -0.325023762735    -2.475373891746    -0.339727217220     1.007825032230
         H           -1.751575762735     2.225759108254     0.275432782780     1.007825032230
         H            1.806923237265     1.821817108254     0.406192782780     1.007825032230
         H            1.240669237265     2.198600108254    -1.224026217220     1.007825032230
         H            0.479265237265     2.980268108254     0.166593782780     1.007825032230
         H           -2.717145762735    -1.960897891746     0.086478782780     1.007825032230
         H           -3.428688762735     0.409033108254     0.391983782780     1.007825032230
         H            2.089659237265    -0.989967891746     1.428717782780     1.007825032230

  Basis Set: AUG-CC-PVTZ
    Blend: AUG-CC-PVTZ
  Basis Set: (AUG-CC-PVTZ AUX)
    Blend: AUG-CC-PVTZ-JKFIT
	 Reference Energy          =    -383.7597149049401537 [Eh]
	 Singles Energy            =      -0.0000000000000000 [Eh]
	 Same-Spin Energy          =      -0.4129826071470930 [Eh]
	 Opposite-Spin Energy      =      -1.3204534474607179 [Eh]
	 Correlation Energy        =      -1.7334360546078109 [Eh]
	 Total Energy              =    -385.4931509595479611 [Eh]

	 ================> DF-SCS-MP2 Energies <==================
	-----------------------------------------------------------
	 SCS Same-Spin Scale       =       0.3333333333333333 [-]
	 SCS Opposite-Spin Scale   =       1.2000000000000000 [-]
	 SCS Same-Spin Energy      =      -0.1376608690490310 [Eh]
	 SCS Opposite-Spin Energy  =      -1.5845441369528614 [Eh]
	 SCS Correlation Energy    =      -1.7222050060018925 [Eh]
	 SCS Total Energy          =    -385.4819199109420538 [Eh]
	-----------------------------------------------------------

  Dipole Moment: [D]
     X:    -1.1439      Y:    -0.4152      Z:    -0.0954     Total:     1.2206

*** Psi4 exiting successfully. Buy a developer a beer!
