                               Psi4 1.4a3.dev225

  ==> Input File <==

--------------------------------------------------------------------------
#psi4
#
memory 32 gb

molecule  {
0 1
  O        2.5396650    -0.5551780     0.7057380
  C        0.3025760    -0.4378200    -0.2720190
  C       -0.0927650     0.9034730    -0.0869930
  C        1.7537560    -0.7902540    -0.4711970
  C       -0.6504930    -1.4595100    -0.1921940
  C       -1.4454780     1.1756780     0.1425470
  C        0.9085990     2.0263450    -0.1815640
  C       -1.9974120    -1.1732570     0.0382800
  C       -2.3931980     0.1517110     0.2151080
  H        1.8374090    -1.8385530    -0.7929100
  H        2.1285150    -0.2832926    -1.1042882
  H       -0.3343640    -2.4925800    -0.3335330
  H       -1.7609160     2.2085530     0.2816270
  H        1.7975830     1.8046110     0.4123870
  H        1.2313290     2.1813940    -1.2178320
  H        0.4699250     2.9630620     0.1727880
  H       -2.7264860    -1.9781040     0.0926730
  H       -3.4380290     0.3918270     0.3981780
  H        2.0803190    -1.0071740     1.4349120
units angstrom
no_reorient  #important for SAPT in psi4, default
symmetry c1  #important for SAPT in psi4, default
}

set PROPERTIES_ORIGIN ["COM"]
properties('MP2/aug-cc-pvtz', properties = ['dipole'])
--------------------------------------------------------------------------

    Molecular point group: c1
  Charge       = 0
  Multiplicity = 1
  Basis Set: AUG-CC-PVTZ
    Blend: AUG-CC-PVTZ
  Basis Set: (AUG-CC-PVTZ AUX)
    Blend: AUG-CC-PVTZ-JKFIT

    Orbital Energies [Eh]
    ---------------------

    Doubly Occupied:

       1A    -20.558772     2A    -11.258133     3A    -11.245641
       4A    -11.239283     5A    -11.238394     6A    -11.236929
       7A    -11.234722     8A    -11.233354     9A    -11.220208
      10A     -1.356836    11A     -1.157457    12A     -1.051154
      13A     -1.034929    14A     -0.953743    15A     -0.922198
      16A     -0.819064    17A     -0.798408    18A     -0.704106
      19A     -0.674369    20A     -0.645078    21A     -0.632281
      22A     -0.615103    23A     -0.588996    24A     -0.573915
      25A     -0.569003    26A     -0.547888    27A     -0.528892
      28A     -0.496285    29A     -0.487972    30A     -0.482735
      31A     -0.446217    32A     -0.337316    33A     -0.325617

  @DF-RHF Final Energy:  -383.72609771734795

   => Energetics <=

    Nuclear Repulsion Energy =            428.0049060986008271
    One-Electron Energy =               -1369.0320096968748658
    Two-Electron Energy =                 557.3010058809260272
    Total Energy =                       -383.7260977173480114
  Basis Set: (AUG-CC-PVTZ AUX)
    Blend: AUG-CC-PVTZ-RI
    Molecular point group: c1

    Geometry (in Angstrom), charge = 0, multiplicity = 1:

       Center              X                  Y                   Z               Mass
    ------------   -----------------  -----------------  -----------------  -----------------
         O            2.551591558690    -0.537494895734     0.698113853881    15.994914619570
         C            0.314502558690    -0.420136895734    -0.279643146119    12.000000000000
         C           -0.080838441310     0.921156104266    -0.094617146119    12.000000000000
         C            1.765682558690    -0.772570895734    -0.478821146119    12.000000000000
         C           -0.638566441310    -1.441826895734    -0.199818146119    12.000000000000
         C           -1.433551441310     1.193361104266     0.134922853881    12.000000000000
         C            0.920525558690     2.044028104266    -0.189188146119    12.000000000000
         C           -1.985485441310    -1.155573895734     0.030655853881    12.000000000000
         C           -2.381271441310     0.169394104266     0.207483853881    12.000000000000
         H            1.849335558690    -1.820869895734    -0.800534146119     1.007825032230
         H            2.140441558690    -0.265609495734    -1.111912346119     1.007825032230
         H           -0.322437441310    -2.474896895734    -0.341157146119     1.007825032230
         H           -1.748989441310     2.226236104266     0.274002853881     1.007825032230
         H            1.809509558690     1.822294104266     0.404762853881     1.007825032230
         H            1.243255558690     2.199077104266    -1.225456146119     1.007825032230
         H            0.481851558690     2.980745104266     0.165163853881     1.007825032230
         H           -2.714559441310    -1.960420895734     0.085048853881     1.007825032230
         H           -3.426102441310     0.409510104266     0.390553853881     1.007825032230
         H            2.092245558690    -0.989490895734     1.427287853881     1.007825032230

  Basis Set: AUG-CC-PVTZ
    Blend: AUG-CC-PVTZ
  Basis Set: (AUG-CC-PVTZ AUX)
    Blend: AUG-CC-PVTZ-JKFIT
	 Reference Energy          =    -383.7260977173479546 [Eh]
	 Singles Energy            =      -0.0000000000000000 [Eh]
	 Same-Spin Energy          =      -0.4129872639644443 [Eh]
	 Opposite-Spin Energy      =      -1.3198872463327200 [Eh]
	 Correlation Energy        =      -1.7328745102971643 [Eh]
	 Total Energy              =    -385.4589722276451198 [Eh]

	 ================> DF-SCS-MP2 Energies <==================
	-----------------------------------------------------------
	 SCS Same-Spin Scale       =       0.3333333333333333 [-]
	 SCS Opposite-Spin Scale   =       1.2000000000000000 [-]
	 SCS Same-Spin Energy      =      -0.1376624213214814 [Eh]
	 SCS Opposite-Spin Energy  =      -1.5838646955992639 [Eh]
	 SCS Correlation Energy    =      -1.7215271169207453 [Eh]
	 SCS Total Energy          =    -385.4476248342687086 [Eh]
	-----------------------------------------------------------

  Dipole Moment: [D]
     X:    -1.1688      Y:    -0.3875      Z:    -0.1577     Total:     1.2414

*** Psi4 exiting successfully. Buy a developer a beer!
