                               Psi4 1.4a3.dev225

  ==> Input File <==

--------------------------------------------------------------------------
#psi4
#
memory 32 gb

molecule  {
0 1
  O        2.5396650    -0.5551780     0.7057380
  C        0.3025760    -0.4378200    -0.2720190
  C       -0.0927650     0.9034730    -0.0869930
  C        1.7537560    -0.7902540    -0.4711970
  C       -0.6504930    -1.4595100    -0.1921940
  C       -1.4454780     1.1756780     0.1425470
  C        0.9085990     2.0263450    -0.1815640
  C       -1.9781173    -1.1773576     0.0349784
  C       -2.3931980     0.1517110     0.2151080
  H        1.8374090    -1.8385530    -0.7929100
  H        2.2124050    -0.1698090    -1.2460060
  H       -0.3343640    -2.4925800    -0.3335330
  H       -1.7609160     2.2085530     0.2816270
  H        1.7975830     1.8046110     0.4123870
  H        1.2313290     2.1813940    -1.2178320
  H        0.4699250     2.9630620     0.1727880
  H       -2.7264860    -1.9781040     0.0926730
  H       -3.4380290     0.3918270     0.3981780
  H        2.0803190    -1.0071740     1.4349120
units angstrom
no_reorient  #important for SAPT in psi4, default
symmetry c1  #important for SAPT in psi4, default
}

set PROPERTIES_ORIGIN ["COM"]
properties('MP2/aug-cc-pvtz', properties = ['dipole'])
--------------------------------------------------------------------------

    Molecular point group: c1
  Charge       = 0
  Multiplicity = 1
  Basis Set: AUG-CC-PVTZ
    Blend: AUG-CC-PVTZ
  Basis Set: (AUG-CC-PVTZ AUX)
    Blend: AUG-CC-PVTZ-JKFIT

    Orbital Energies [Eh]
    ---------------------

    Doubly Occupied:

       1A    -20.560863     2A    -11.282660     3A    -11.245660
       4A    -11.239699     5A    -11.238545     6A    -11.237314
       7A    -11.234861     8A    -11.233703     9A    -11.219783
      10A     -1.357254    11A     -1.158495    12A     -1.049234
      13A     -1.033401    14A     -0.944849    15A     -0.907645
      16A     -0.817854    17A     -0.792640    18A     -0.700531
      19A     -0.674656    20A     -0.645004    21A     -0.625357
      22A     -0.605033    23A     -0.586417    24A     -0.573319
      25A     -0.568280    26A     -0.543503    27A     -0.526284
      28A     -0.493434    29A     -0.489009    30A     -0.477561
      31A     -0.447665    32A     -0.338808    33A     -0.325010

  @DF-RHF Final Energy:  -383.75906085619300

   => Energetics <=

    Nuclear Repulsion Energy =            427.1347563277366248
    One-Electron Energy =               -1367.4389735513807409
    Two-Electron Energy =                 556.5451563674512272
    Total Energy =                       -383.7590608561929457
  Basis Set: (AUG-CC-PVTZ AUX)
    Blend: AUG-CC-PVTZ-RI
    Molecular point group: c1

    Geometry (in Angstrom), charge = 0, multiplicity = 1:

       Center              X                  Y                   Z               Mass
    ------------   -----------------  -----------------  -----------------  -----------------
         O            2.549002268553    -0.538028710130     0.699608416150    15.994914619570
         C            0.311913268553    -0.420670710130    -0.278148583850    12.000000000000
         C           -0.083427731447     0.920622289870    -0.093122583850    12.000000000000
         C            1.763093268553    -0.773104710130    -0.477326583850    12.000000000000
         C           -0.641155731447    -1.442360710130    -0.198323583850    12.000000000000
         C           -1.436140731447     1.192827289870     0.136417416150    12.000000000000
         C            0.917936268553     2.043494289870    -0.187693583850    12.000000000000
         C           -1.968780031447    -1.160208310130     0.028848816150    12.000000000000
         C           -2.383860731447     0.168860289870     0.208978416150    12.000000000000
         H            1.846746268553    -1.821403710130    -0.799039583850     1.007825032230
         H            2.221742268553    -0.152659710130    -1.252135583850     1.007825032230
         H           -0.325026731447    -2.475430710130    -0.339662583850     1.007825032230
         H           -1.751578731447     2.225702289870     0.275497416150     1.007825032230
         H            1.806920268553     1.821760289870     0.406257416150     1.007825032230
         H            1.240666268553     2.198543289870    -1.223961583850     1.007825032230
         H            0.479262268553     2.980211289870     0.166658416150     1.007825032230
         H           -2.717148731447    -1.960954710130     0.086543416150     1.007825032230
         H           -3.428691731447     0.408976289870     0.392048416150     1.007825032230
         H            2.089656268553    -0.990024710130     1.428782416150     1.007825032230

  Basis Set: AUG-CC-PVTZ
    Blend: AUG-CC-PVTZ
  Basis Set: (AUG-CC-PVTZ AUX)
    Blend: AUG-CC-PVTZ-JKFIT
	 Reference Energy          =    -383.7590608561930026 [Eh]
	 Singles Energy            =      -0.0000000000000000 [Eh]
	 Same-Spin Energy          =      -0.4132442010724729 [Eh]
	 Opposite-Spin Energy      =      -1.3208021305692959 [Eh]
	 Correlation Energy        =      -1.7340463316417689 [Eh]
	 Total Energy              =    -385.4931071878347666 [Eh]

	 ================> DF-SCS-MP2 Energies <==================
	-----------------------------------------------------------
	 SCS Same-Spin Scale       =       0.3333333333333333 [-]
	 SCS Opposite-Spin Scale   =       1.2000000000000000 [-]
	 SCS Same-Spin Energy      =      -0.1377480670241576 [Eh]
	 SCS Opposite-Spin Energy  =      -1.5849625566831549 [Eh]
	 SCS Correlation Energy    =      -1.7227106237073124 [Eh]
	 SCS Total Energy          =    -385.4817714799003170 [Eh]
	-----------------------------------------------------------

  Dipole Moment: [D]
     X:    -1.2036      Y:    -0.3938      Z:    -0.1013     Total:     1.2704

*** Psi4 exiting successfully. Buy a developer a beer!
