                               Psi4 1.4a3.dev225

  ==> Input File <==

--------------------------------------------------------------------------
#psi4
#
memory 32 gb

molecule  {
0 1
  O        2.5396650    -0.5551780     0.7057380
  C        0.3025760    -0.4378200    -0.2720190
  C       -0.0927650     0.9034730    -0.0869930
  C        1.7537560    -0.7902540    -0.4711970
  C       -0.6504930    -1.4595100    -0.1921940
  C       -1.4454780     1.1756780     0.1425470
  C        0.9085990     2.0263450    -0.1815640
  C       -1.9974120    -1.1732570     0.0382800
  C       -2.3931980     0.1517110     0.2151080
  H        1.8374090    -1.8385530    -0.7929100
  H        2.2040160    -0.1811574    -1.2318342
  H       -0.3343640    -2.4925800    -0.3335330
  H       -1.7609160     2.2085530     0.2816270
  H        1.7975830     1.8046110     0.4123870
  H        1.2313290     2.1813940    -1.2178320
  H        0.4699250     2.9630620     0.1727880
  H       -2.7264860    -1.9781040     0.0926730
  H       -3.4380290     0.3918270     0.3981780
  H        2.0803190    -1.0071740     1.4349120
units angstrom
no_reorient  #important for SAPT in psi4, default
symmetry c1  #important for SAPT in psi4, default
}

set PROPERTIES_ORIGIN ["COM"]
properties('MP2/aug-cc-pvtz', properties = ['dipole'])
--------------------------------------------------------------------------

    Molecular point group: c1
  Charge       = 0
  Multiplicity = 1
  Basis Set: AUG-CC-PVTZ
    Blend: AUG-CC-PVTZ
  Basis Set: (AUG-CC-PVTZ AUX)
    Blend: AUG-CC-PVTZ-JKFIT

    Orbital Energies [Eh]
    ---------------------

    Doubly Occupied:

       1A    -20.560632     2A    -11.280325     3A    -11.245829
       4A    -11.240018     5A    -11.238702     6A    -11.237989
       7A    -11.235126     8A    -11.233542     9A    -11.219888
      10A     -1.357169    11A     -1.157531    12A     -1.049400
      13A     -1.032769    14A     -0.944119    15A     -0.909838
      16A     -0.818290    17A     -0.792947    18A     -0.701213
      19A     -0.674621    20A     -0.644681    21A     -0.625542
      22A     -0.606244    23A     -0.587029    24A     -0.573179
      25A     -0.568668    26A     -0.543942    27A     -0.526608
      28A     -0.494379    29A     -0.488124    30A     -0.478956
      31A     -0.447293    32A     -0.337518    33A     -0.325652

  @DF-RHF Final Energy:  -383.75967703520297

   => Energetics <=

    Nuclear Repulsion Energy =            427.0058567077192038
    One-Electron Energy =               -1367.1755445193175547
    Two-Electron Energy =                 556.4100107763953247
    Total Energy =                       -383.7596770352030262
  Basis Set: (AUG-CC-PVTZ AUX)
    Blend: AUG-CC-PVTZ-RI
    Molecular point group: c1

    Geometry (in Angstrom), charge = 0, multiplicity = 1:

       Center              X                  Y                   Z               Mass
    ------------   -----------------  -----------------  -----------------  -----------------
         O            2.550968229248    -0.538338114727     0.699166862146    15.994914619570
         C            0.313879229248    -0.420980114727    -0.278590137854    12.000000000000
         C           -0.081461770752     0.920312885273    -0.093564137854    12.000000000000
         C            1.765059229248    -0.773414114727    -0.477768137854    12.000000000000
         C           -0.639189770752    -1.442670114727    -0.198765137854    12.000000000000
         C           -1.434174770752     1.192517885273     0.135975862146    12.000000000000
         C            0.919902229248     2.043184885273    -0.188135137854    12.000000000000
         C           -1.986108770752    -1.156417114727     0.031708862146    12.000000000000
         C           -2.381894770752     0.168550885273     0.208536862146    12.000000000000
         H            1.848712229248    -1.821713114727    -0.799481137854     1.007825032230
         H            2.215319229248    -0.164317514727    -1.238405337854     1.007825032230
         H           -0.323060770752    -2.475740114727    -0.340104137854     1.007825032230
         H           -1.749612770752     2.225392885273     0.275055862146     1.007825032230
         H            1.808886229248     1.821450885273     0.405815862146     1.007825032230
         H            1.242632229248     2.198233885273    -1.224403137854     1.007825032230
         H            0.481228229248     2.979901885273     0.166216862146     1.007825032230
         H           -2.715182770752    -1.961264114727     0.086101862146     1.007825032230
         H           -3.426725770752     0.408666885273     0.391606862146     1.007825032230
         H            2.091622229248    -0.990334114727     1.428340862146     1.007825032230

  Basis Set: AUG-CC-PVTZ
    Blend: AUG-CC-PVTZ
  Basis Set: (AUG-CC-PVTZ AUX)
    Blend: AUG-CC-PVTZ-JKFIT
	 Reference Energy          =    -383.7596770352029694 [Eh]
	 Singles Energy            =      -0.0000000000000000 [Eh]
	 Same-Spin Energy          =      -0.4131479398358757 [Eh]
	 Opposite-Spin Energy      =      -1.3206228533520459 [Eh]
	 Correlation Energy        =      -1.7337707931879216 [Eh]
	 Total Energy              =    -385.4934478283909129 [Eh]

	 ================> DF-SCS-MP2 Energies <==================
	-----------------------------------------------------------
	 SCS Same-Spin Scale       =       0.3333333333333333 [-]
	 SCS Opposite-Spin Scale   =       1.2000000000000000 [-]
	 SCS Same-Spin Energy      =      -0.1377159799452919 [Eh]
	 SCS Opposite-Spin Energy  =      -1.5847474240224551 [Eh]
	 SCS Correlation Energy    =      -1.7224634039677469 [Eh]
	 SCS Total Energy          =    -385.4821404391707347 [Eh]
	-----------------------------------------------------------

  Dipole Moment: [D]
     X:    -1.1962      Y:    -0.3981      Z:    -0.1103     Total:     1.2655

*** Psi4 exiting successfully. Buy a developer a beer!
