                               Psi4 1.4a3.dev225

  ==> Input File <==

--------------------------------------------------------------------------
#psi4
#
memory 32 gb

molecule  {
0 1
  O        2.5396650    -0.5551780     0.7057380
  C        0.2559523    -0.4517043    -0.2644381
  C       -0.0927650     0.9034730    -0.0869930
  C        1.7537560    -0.7902540    -0.4711970
  C       -0.6504930    -1.4595100    -0.1921940
  C       -1.4454780     1.1756780     0.1425470
  C        0.9085990     2.0263450    -0.1815640
  C       -1.9974120    -1.1732570     0.0382800
  C       -2.3931980     0.1517110     0.2151080
  H        1.8374090    -1.8385530    -0.7929100
  H        2.2124050    -0.1698090    -1.2460060
  H       -0.3343640    -2.4925800    -0.3335330
  H       -1.7609160     2.2085530     0.2816270
  H        1.7975830     1.8046110     0.4123870
  H        1.2313290     2.1813940    -1.2178320
  H        0.4699250     2.9630620     0.1727880
  H       -2.7264860    -1.9781040     0.0926730
  H       -3.4380290     0.3918270     0.3981780
  H        2.0803190    -1.0071740     1.4349120
units angstrom
no_reorient  #important for SAPT in psi4, default
symmetry c1  #important for SAPT in psi4, default
}

set PROPERTIES_ORIGIN ["COM"]
properties('MP2/aug-cc-pvtz', properties = ['dipole'])
--------------------------------------------------------------------------

    Molecular point group: c1
  Charge       = 0
  Multiplicity = 1
  Basis Set: AUG-CC-PVTZ
    Blend: AUG-CC-PVTZ
  Basis Set: (AUG-CC-PVTZ AUX)
    Blend: AUG-CC-PVTZ-JKFIT

    Orbital Energies [Eh]
    ---------------------

    Doubly Occupied:

       1A    -20.560928     2A    -11.283992     3A    -11.245409
       4A    -11.237628     5A    -11.236552     6A    -11.235252
       7A    -11.234109     8A    -11.232994     9A    -11.221100
      10A     -1.356286    11A     -1.160987    12A     -1.047562
      13A     -1.033988    14A     -0.941689    15A     -0.907962
      16A     -0.817960    17A     -0.794957    18A     -0.700427
      19A     -0.673292    20A     -0.642622    21A     -0.626605
      22A     -0.604207    23A     -0.584694    24A     -0.573428
      25A     -0.568617    26A     -0.544256    27A     -0.526284
      28A     -0.494311    29A     -0.491434    30A     -0.480784
      31A     -0.440019    32A     -0.342231    33A     -0.324448

  @DF-RHF Final Energy:  -383.75765296008990

   => Energetics <=

    Nuclear Repulsion Energy =            427.0512635695667427
    One-Electron Energy =               -1367.2838068586984264
    Two-Electron Energy =                 556.4748903290417275
    Total Energy =                       -383.7576529600898994
  Basis Set: (AUG-CC-PVTZ AUX)
    Blend: AUG-CC-PVTZ-RI
    Molecular point group: c1

    Geometry (in Angstrom), charge = 0, multiplicity = 1:

       Center              X                  Y                   Z               Mass
    ------------   -----------------  -----------------  -----------------  -----------------
         O            2.555482159530    -0.537066955759     0.698538647867    15.994914619570
         C            0.271769459530    -0.433593255759    -0.271637452133    12.000000000000
         C           -0.076947840470     0.921584044241    -0.094192352133    12.000000000000
         C            1.769573159530    -0.772142955759    -0.478396352133    12.000000000000
         C           -0.634675840470    -1.441398955759    -0.199393352133    12.000000000000
         C           -1.429660840470     1.193789044241     0.135347647867    12.000000000000
         C            0.924416159530     2.044456044241    -0.188763352133    12.000000000000
         C           -1.981594840470    -1.155145955759     0.031080647867    12.000000000000
         C           -2.377380840470     0.169822044241     0.207908647867    12.000000000000
         H            1.853226159530    -1.820441955759    -0.800109352133     1.007825032230
         H            2.228222159530    -0.151697955759    -1.253205352133     1.007825032230
         H           -0.318546840470    -2.474468955759    -0.340732352133     1.007825032230
         H           -1.745098840470     2.226664044241     0.274427647867     1.007825032230
         H            1.813400159530     1.822722044241     0.405187647867     1.007825032230
         H            1.247146159530     2.199505044241    -1.225031352133     1.007825032230
         H            0.485742159530     2.981173044241     0.165588647867     1.007825032230
         H           -2.710668840470    -1.959992955759     0.085473647867     1.007825032230
         H           -3.422211840470     0.409938044241     0.390978647867     1.007825032230
         H            2.096136159530    -0.989062955759     1.427712647867     1.007825032230

  Basis Set: AUG-CC-PVTZ
    Blend: AUG-CC-PVTZ
  Basis Set: (AUG-CC-PVTZ AUX)
    Blend: AUG-CC-PVTZ-JKFIT
	 Reference Energy          =    -383.7576529600898994 [Eh]
	 Singles Energy            =      -0.0000000000000000 [Eh]
	 Same-Spin Energy          =      -0.4128205234089357 [Eh]
	 Opposite-Spin Energy      =      -1.3203743534797345 [Eh]
	 Correlation Energy        =      -1.7331948768886702 [Eh]
	 Total Energy              =    -385.4908478369785598 [Eh]

	 ================> DF-SCS-MP2 Energies <==================
	-----------------------------------------------------------
	 SCS Same-Spin Scale       =       0.3333333333333333 [-]
	 SCS Opposite-Spin Scale   =       1.2000000000000000 [-]
	 SCS Same-Spin Energy      =      -0.1376068411363119 [Eh]
	 SCS Opposite-Spin Energy  =      -1.5844492241756813 [Eh]
	 SCS Correlation Energy    =      -1.7220560653119932 [Eh]
	 SCS Total Energy          =    -385.4797090254019167 [Eh]
	-----------------------------------------------------------

  Dipole Moment: [D]
     X:    -1.1825      Y:    -0.3897      Z:    -0.0966     Total:     1.2488

*** Psi4 exiting successfully. Buy a developer a beer!
