                               Psi4 1.4a3.dev225

  ==> Input File <==

--------------------------------------------------------------------------
#psi4
#
memory 32 gb

molecule  {
0 1
  O        2.5396650    -0.5551780     0.7057380
  C        0.4393330    -0.3864397    -0.2933735
  C       -0.0927650     0.9034730    -0.0869930
  C        1.7537560    -0.7902540    -0.4711970
  C       -0.6504930    -1.4595100    -0.1921940
  C       -1.4454780     1.1756780     0.1425470
  C        0.9085990     2.0263450    -0.1815640
  C       -1.9974120    -1.1732570     0.0382800
  C       -2.3931980     0.1517110     0.2151080
  H        1.8374090    -1.8385530    -0.7929100
  H        2.2124050    -0.1698090    -1.2460060
  H       -0.3343640    -2.4925800    -0.3335330
  H       -1.7609160     2.2085530     0.2816270
  H        1.7975830     1.8046110     0.4123870
  H        1.2313290     2.1813940    -1.2178320
  H        0.4699250     2.9630620     0.1727880
  H       -2.7264860    -1.9781040     0.0926730
  H       -3.4380290     0.3918270     0.3981780
  H        2.0803190    -1.0071740     1.4349120
units angstrom
no_reorient  #important for SAPT in psi4, default
symmetry c1  #important for SAPT in psi4, default
}

set PROPERTIES_ORIGIN ["COM"]
properties('MP2/aug-cc-pvtz', properties = ['dipole'])
--------------------------------------------------------------------------

    Molecular point group: c1
  Charge       = 0
  Multiplicity = 1
  Basis Set: AUG-CC-PVTZ
    Blend: AUG-CC-PVTZ
  Basis Set: (AUG-CC-PVTZ AUX)
    Blend: AUG-CC-PVTZ-JKFIT

    Orbital Energies [Eh]
    ---------------------

    Doubly Occupied:

       1A    -20.560919     2A    -11.277707     3A    -11.252570
       4A    -11.248549     5A    -11.244639     6A    -11.242213
       7A    -11.236292     8A    -11.235633     9A    -11.216293
      10A     -1.361076    11A     -1.151033    12A     -1.060188
      13A     -1.031206    14A     -0.950921    15A     -0.906536
      16A     -0.821077    17A     -0.783529    18A     -0.704538
      19A     -0.679777    20A     -0.656182    21A     -0.624785
      22A     -0.603518    23A     -0.592502    24A     -0.572801
      25A     -0.568259    26A     -0.541403    27A     -0.525398
      28A     -0.503273    29A     -0.480542    30A     -0.463030
      31A     -0.452635    32A     -0.331484    33A     -0.322293

  @DF-RHF Final Energy:  -383.72921322102007

   => Energetics <=

    Nuclear Repulsion Energy =            426.7312861891082321
    One-Electron Energy =               -1366.5153992858588481
    Two-Electron Energy =                 556.0548998757305981
    Total Energy =                       -383.7292132210200180
  Basis Set: (AUG-CC-PVTZ AUX)
    Blend: AUG-CC-PVTZ-RI
    Molecular point group: c1

    Geometry (in Angstrom), charge = 0, multiplicity = 1:

       Center              X                  Y                   Z               Mass
    ------------   -----------------  -----------------  -----------------  -----------------
         O            2.537455524429    -0.543482577082     0.701383046963    15.994914619570
         C            0.437123524429    -0.374744277082    -0.297728453037    12.000000000000
         C           -0.094974475571     0.915168422918    -0.091347953037    12.000000000000
         C            1.751546524429    -0.778558577082    -0.475551953037    12.000000000000
         C           -0.652702475571    -1.447814577082    -0.196548953037    12.000000000000
         C           -1.447687475571     1.187373422918     0.138192046963    12.000000000000
         C            0.906389524429     2.038040422918    -0.185918953037    12.000000000000
         C           -1.999621475571    -1.161561577082     0.033925046963    12.000000000000
         C           -2.395407475571     0.163406422918     0.210753046963    12.000000000000
         H            1.835199524429    -1.826857577082    -0.797264953037     1.007825032230
         H            2.210195524429    -0.158113577082    -1.250360953037     1.007825032230
         H           -0.336573475571    -2.480884577082    -0.337887953037     1.007825032230
         H           -1.763125475571     2.220248422918     0.277272046963     1.007825032230
         H            1.795373524429     1.816306422918     0.408032046963     1.007825032230
         H            1.229119524429     2.193089422918    -1.222186953037     1.007825032230
         H            0.467715524429     2.974757422918     0.168433046963     1.007825032230
         H           -2.728695475571    -1.966408577082     0.088318046963     1.007825032230
         H           -3.440238475571     0.403522422918     0.393823046963     1.007825032230
         H            2.078109524429    -0.995478577082     1.430557046963     1.007825032230

  Basis Set: AUG-CC-PVTZ
    Blend: AUG-CC-PVTZ
  Basis Set: (AUG-CC-PVTZ AUX)
    Blend: AUG-CC-PVTZ-JKFIT
	 Reference Energy          =    -383.7292132210200748 [Eh]
	 Singles Energy            =      -0.0000000000000000 [Eh]
	 Same-Spin Energy          =      -0.4153018269621647 [Eh]
	 Opposite-Spin Energy      =      -1.3244108737943789 [Eh]
	 Correlation Energy        =      -1.7397127007565436 [Eh]
	 Total Energy              =    -385.4689259217766448 [Eh]

	 ================> DF-SCS-MP2 Energies <==================
	-----------------------------------------------------------
	 SCS Same-Spin Scale       =       0.3333333333333333 [-]
	 SCS Opposite-Spin Scale   =       1.2000000000000000 [-]
	 SCS Same-Spin Energy      =      -0.1384339423207215 [Eh]
	 SCS Opposite-Spin Energy  =      -1.5892930485532546 [Eh]
	 SCS Correlation Energy    =      -1.7277269908739761 [Eh]
	 SCS Total Energy          =    -385.4569402118940502 [Eh]
	-----------------------------------------------------------

  Dipole Moment: [D]
     X:    -1.2413      Y:    -0.4265      Z:    -0.1167     Total:     1.3177

*** Psi4 exiting successfully. Buy a developer a beer!
