                               Psi4 1.4a3.dev225

  ==> Input File <==

--------------------------------------------------------------------------
#psi4
#
memory 32 gb

molecule  {
0 1
  O        2.5396650    -0.5551780     0.7057380
  C        0.3025760    -0.4378200    -0.2720190
  C       -0.0927650     0.9034730    -0.0869930
  C        1.7537560    -0.7902540    -0.4711970
  C       -0.6454296    -1.4357113    -0.1908732
  C       -1.4454780     1.1756780     0.1425470
  C        0.9085990     2.0263450    -0.1815640
  C       -1.9974120    -1.1732570     0.0382800
  C       -2.3931980     0.1517110     0.2151080
  H        1.8374090    -1.8385530    -0.7929100
  H        2.2124050    -0.1698090    -1.2460060
  H       -0.3343640    -2.4925800    -0.3335330
  H       -1.7609160     2.2085530     0.2816270
  H        1.7975830     1.8046110     0.4123870
  H        1.2313290     2.1813940    -1.2178320
  H        0.4699250     2.9630620     0.1727880
  H       -2.7264860    -1.9781040     0.0926730
  H       -3.4380290     0.3918270     0.3981780
  H        2.0803190    -1.0071740     1.4349120
units angstrom
no_reorient  #important for SAPT in psi4, default
symmetry c1  #important for SAPT in psi4, default
}

set PROPERTIES_ORIGIN ["COM"]
properties('MP2/aug-cc-pvtz', properties = ['dipole'])
--------------------------------------------------------------------------

    Molecular point group: c1
  Charge       = 0
  Multiplicity = 1
  Basis Set: AUG-CC-PVTZ
    Blend: AUG-CC-PVTZ
  Basis Set: (AUG-CC-PVTZ AUX)
    Blend: AUG-CC-PVTZ-JKFIT

    Orbital Energies [Eh]
    ---------------------

    Doubly Occupied:

       1A    -20.561123     2A    -11.283004     3A    -11.246013
       4A    -11.239629     5A    -11.238720     6A    -11.235986
       7A    -11.234862     8A    -11.232947     9A    -11.219803
      10A     -1.357526    11A     -1.159705    12A     -1.049434
      13A     -1.033929    14A     -0.943221    15A     -0.909713
      16A     -0.816286    17A     -0.793989    18A     -0.701901
      19A     -0.673801    20A     -0.644229    21A     -0.625264
      22A     -0.605789    23A     -0.585543    24A     -0.572636
      25A     -0.568748    26A     -0.543268    27A     -0.526552
      28A     -0.490659    29A     -0.489538    30A     -0.480538
      31A     -0.447394    32A     -0.339560    33A     -0.325317

  @DF-RHF Final Energy:  -383.75906783028904

   => Energetics <=

    Nuclear Repulsion Energy =            427.3369583414139470
    One-Electron Energy =               -1367.8387965018066552
    Two-Electron Energy =                 556.7427703301036672
    Total Energy =                       -383.7590678302890410
  Basis Set: (AUG-CC-PVTZ AUX)
    Blend: AUG-CC-PVTZ-RI
    Molecular point group: c1

    Geometry (in Angstrom), charge = 0, multiplicity = 1:

       Center              X                  Y                   Z               Mass
    ------------   -----------------  -----------------  -----------------  -----------------
         O            2.550401229578    -0.540771258832     0.699154026358    15.994914619570
         C            0.313312229578    -0.423413258832    -0.278602973642    12.000000000000
         C           -0.082028770422     0.917879741168    -0.093576973642    12.000000000000
         C            1.764492229578    -0.775847258832    -0.477780973642    12.000000000000
         C           -0.634693370422    -1.421304558832    -0.197457173642    12.000000000000
         C           -1.434741770422     1.190084741168     0.135963026358    12.000000000000
         C            0.919335229578     2.040751741168    -0.188147973642    12.000000000000
         C           -1.986675770422    -1.158850258832     0.031696026358    12.000000000000
         C           -2.382461770422     0.166117741168     0.208524026358    12.000000000000
         H            1.848145229578    -1.824146258832    -0.799493973642     1.007825032230
         H            2.223141229578    -0.155402258832    -1.252589973642     1.007825032230
         H           -0.323627770422    -2.478173258832    -0.340116973642     1.007825032230
         H           -1.750179770422     2.222959741168     0.275043026358     1.007825032230
         H            1.808319229578     1.819017741168     0.405803026358     1.007825032230
         H            1.242065229578     2.195800741168    -1.224415973642     1.007825032230
         H            0.480661229578     2.977468741168     0.166204026358     1.007825032230
         H           -2.715749770422    -1.963697258832     0.086089026358     1.007825032230
         H           -3.427292770422     0.406233741168     0.391594026358     1.007825032230
         H            2.091055229578    -0.992767258832     1.428328026358     1.007825032230

  Basis Set: AUG-CC-PVTZ
    Blend: AUG-CC-PVTZ
  Basis Set: (AUG-CC-PVTZ AUX)
    Blend: AUG-CC-PVTZ-JKFIT
	 Reference Energy          =    -383.7590678302890410 [Eh]
	 Singles Energy            =      -0.0000000000000000 [Eh]
	 Same-Spin Energy          =      -0.4131643671397411 [Eh]
	 Opposite-Spin Energy      =      -1.3207040833502912 [Eh]
	 Correlation Energy        =      -1.7338684504900324 [Eh]
	 Total Energy              =    -385.4929362807790767 [Eh]

	 ================> DF-SCS-MP2 Energies <==================
	-----------------------------------------------------------
	 SCS Same-Spin Scale       =       0.3333333333333333 [-]
	 SCS Opposite-Spin Scale   =       1.2000000000000000 [-]
	 SCS Same-Spin Energy      =      -0.1377214557132470 [Eh]
	 SCS Opposite-Spin Energy  =      -1.5848449000203495 [Eh]
	 SCS Correlation Energy    =      -1.7225663557335966 [Eh]
	 SCS Total Energy          =    -385.4816341860226316 [Eh]
	-----------------------------------------------------------

  Dipole Moment: [D]
     X:    -1.2040      Y:    -0.3968      Z:    -0.0999     Total:     1.2716

*** Psi4 exiting successfully. Buy a developer a beer!
