                               Psi4 1.4a3.dev225

  ==> Input File <==

--------------------------------------------------------------------------
#psi4
#
memory 32 gb

molecule  {
0 1
  O        2.5396650    -0.5551780     0.7057380
  C        0.3025760    -0.4378200    -0.2720190
  C       -0.0927650     0.9034730    -0.0869930
  C        1.6441914    -0.8230262    -0.6352750
  C       -0.6504930    -1.4595100    -0.1921940
  C       -1.4454780     1.1756780     0.1425470
  C        0.9085990     2.0263450    -0.1815640
  C       -1.9974120    -1.1732570     0.0382800
  C       -2.3931980     0.1517110     0.2151080
  H        1.8374090    -1.8385530    -0.7929100
  H        2.2124050    -0.1698090    -1.2460060
  H       -0.3343640    -2.4925800    -0.3335330
  H       -1.7609160     2.2085530     0.2816270
  H        1.7975830     1.8046110     0.4123870
  H        1.2313290     2.1813940    -1.2178320
  H        0.4699250     2.9630620     0.1727880
  H       -2.7264860    -1.9781040     0.0926730
  H       -3.4380290     0.3918270     0.3981780
  H        2.0803190    -1.0071740     1.4349120
units angstrom
no_reorient  #important for SAPT in psi4, default
symmetry c1  #important for SAPT in psi4, default
}

set PROPERTIES_ORIGIN ["COM"]
properties('MP2/aug-cc-pvtz', properties = ['dipole'])
--------------------------------------------------------------------------

    Molecular point group: c1
  Charge       = 0
  Multiplicity = 1
  Basis Set: AUG-CC-PVTZ
    Blend: AUG-CC-PVTZ
  Basis Set: (AUG-CC-PVTZ AUX)
    Blend: AUG-CC-PVTZ-JKFIT

    Orbital Energies [Eh]
    ---------------------

    Doubly Occupied:

       1A    -20.537801     2A    -11.285951     3A    -11.251262
       4A    -11.244357     5A    -11.242934     6A    -11.241737
       7A    -11.238090     8A    -11.236999     9A    -11.220498
      10A     -1.293564    11A     -1.163887    12A     -1.056853
      13A     -1.043333    14A     -0.951367    15A     -0.914880
      16A     -0.824407    17A     -0.795316    18A     -0.695393
      19A     -0.676332    20A     -0.644987    21A     -0.616880
      22A     -0.590792    23A     -0.585297    24A     -0.575768
      25A     -0.556860    26A     -0.544737    27A     -0.521902
      28A     -0.500137    29A     -0.488850    30A     -0.473323
      31A     -0.451718    32A     -0.339186    33A     -0.326917

  @DF-RHF Final Energy:  -383.73075906093868

   => Energetics <=

    Nuclear Repulsion Energy =            425.9905565872067541
    One-Electron Energy =               -1365.1780016917878129
    Two-Electron Energy =                 555.4566860436423212
    Total Energy =                       -383.7307590609386807
  Basis Set: (AUG-CC-PVTZ AUX)
    Blend: AUG-CC-PVTZ-RI
    Molecular point group: c1

    Geometry (in Angstrom), charge = 0, multiplicity = 1:

       Center              X                  Y                   Z               Mass
    ------------   -----------------  -----------------  -----------------  -----------------
         O            2.561669357186    -0.535210243024     0.715413010066    15.994914619570
         C            0.324580357186    -0.417852243024    -0.262343989934    12.000000000000
         C           -0.070760642814     0.923440756976    -0.077317989934    12.000000000000
         C            1.666195757186    -0.803058443024    -0.625599989934    12.000000000000
         C           -0.628488642814    -1.439542243024    -0.182518989934    12.000000000000
         C           -1.423473642814     1.195645756976     0.152222010066    12.000000000000
         C            0.930603357186     2.046312756976    -0.171888989934    12.000000000000
         C           -1.975407642814    -1.153289243024     0.047955010066    12.000000000000
         C           -2.371193642814     0.171678756976     0.224783010066    12.000000000000
         H            1.859413357186    -1.818585243024    -0.783234989934     1.007825032230
         H            2.234409357186    -0.149841243024    -1.236330989934     1.007825032230
         H           -0.312359642814    -2.472612243024    -0.323857989934     1.007825032230
         H           -1.738911642814     2.228520756976     0.291302010066     1.007825032230
         H            1.819587357186     1.824578756976     0.422062010066     1.007825032230
         H            1.253333357186     2.201361756976    -1.208156989934     1.007825032230
         H            0.491929357186     2.983029756976     0.182463010066     1.007825032230
         H           -2.704481642814    -1.958136243024     0.102348010066     1.007825032230
         H           -3.416024642814     0.411794756976     0.407853010066     1.007825032230
         H            2.102323357186    -0.987206243024     1.444587010066     1.007825032230

  Basis Set: AUG-CC-PVTZ
    Blend: AUG-CC-PVTZ
  Basis Set: (AUG-CC-PVTZ AUX)
    Blend: AUG-CC-PVTZ-JKFIT
	 Reference Energy          =    -383.7307590609386807 [Eh]
	 Singles Energy            =      -0.0000000000000000 [Eh]
	 Same-Spin Energy          =      -0.4150061135869312 [Eh]
	 Opposite-Spin Energy      =      -1.3260748071721289 [Eh]
	 Correlation Energy        =      -1.7410809207590601 [Eh]
	 Total Energy              =    -385.4718399816977126 [Eh]

	 ================> DF-SCS-MP2 Energies <==================
	-----------------------------------------------------------
	 SCS Same-Spin Scale       =       0.3333333333333333 [-]
	 SCS Opposite-Spin Scale   =       1.2000000000000000 [-]
	 SCS Same-Spin Energy      =      -0.1383353711956437 [Eh]
	 SCS Opposite-Spin Energy  =      -1.5912897686065546 [Eh]
	 SCS Correlation Energy    =      -1.7296251398021982 [Eh]
	 SCS Total Energy          =    -385.4603842007408616 [Eh]
	-----------------------------------------------------------

  Dipole Moment: [D]
     X:    -1.6795      Y:    -0.4177      Z:    -0.5780     Total:     1.8246

*** Psi4 exiting successfully. Buy a developer a beer!
