                               Psi4 1.4a3.dev225

  ==> Input File <==

--------------------------------------------------------------------------
#psi4
#
memory 32 gb

molecule  {
0 1
  O        2.5396650    -0.5551780     0.7057380
  C        0.3025760    -0.4378200    -0.2720190
  C       -0.0927650     0.9034730    -0.0869930
  C        1.7537560    -0.7902540    -0.4711970
  C       -0.6504930    -1.4595100    -0.1921940
  C       -1.4454780     1.1756780     0.1425470
  C        0.9085990     2.0263450    -0.1815640
  C       -1.9974120    -1.1732570     0.0382800
  C       -2.3931980     0.1517110     0.2151080
  H        1.8374090    -1.8385530    -0.7929100
  H        2.2124050    -0.1698090    -1.2460060
  H       -0.3343640    -2.4925800    -0.3335330
  H       -1.7609160     2.2085530     0.2816270
  H        1.8002105     1.7887126     0.4022134
  H        1.2313290     2.1813940    -1.2178320
  H        0.4699250     2.9630620     0.1727880
  H       -2.7264860    -1.9781040     0.0926730
  H       -3.4380290     0.3918270     0.3981780
  H        2.0803190    -1.0071740     1.4349120
units angstrom
no_reorient  #important for SAPT in psi4, default
symmetry c1  #important for SAPT in psi4, default
}

set PROPERTIES_ORIGIN ["COM"]
properties('MP2/aug-cc-pvtz', properties = ['dipole'])
--------------------------------------------------------------------------

    Molecular point group: c1
  Charge       = 0
  Multiplicity = 1
  Basis Set: AUG-CC-PVTZ
    Blend: AUG-CC-PVTZ
  Basis Set: (AUG-CC-PVTZ AUX)
    Blend: AUG-CC-PVTZ-JKFIT

    Orbital Energies [Eh]
    ---------------------

    Doubly Occupied:

       1A    -20.561061     2A    -11.282848     3A    -11.245806
       4A    -11.240146     5A    -11.238748     6A    -11.238124
       7A    -11.235128     8A    -11.233494     9A    -11.219817
      10A     -1.357486    11A     -1.157571    12A     -1.049388
      13A     -1.032658    14A     -0.943641    15A     -0.908630
      16A     -0.818237    17A     -0.792370    18A     -0.701089
      19A     -0.674802    20A     -0.644791    21A     -0.625292
      22A     -0.605303    23A     -0.586783    24A     -0.573028
      25A     -0.567730    26A     -0.544346    27A     -0.526721
      28A     -0.494211    29A     -0.487948    30A     -0.478192
      31A     -0.447558    32A     -0.337549    33A     -0.325521

  @DF-RHF Final Energy:  -383.75949473255707

   => Energetics <=

    Nuclear Repulsion Energy =            426.9425329954797803
    One-Electron Energy =               -1367.0520142491591287
    Two-Electron Energy =                 556.3499865211223323
    Total Energy =                       -383.7594947325570729
  Basis Set: (AUG-CC-PVTZ AUX)
    Blend: AUG-CC-PVTZ-RI
    Molecular point group: c1

    Geometry (in Angstrom), charge = 0, multiplicity = 1:

       Center              X                  Y                   Z               Mass
    ------------   -----------------  -----------------  -----------------  -----------------
         O            2.550877278018    -0.538300550338     0.699367855571    15.994914619570
         C            0.313788278018    -0.420942550338    -0.278389144429    12.000000000000
         C           -0.081552721982     0.920350449662    -0.093363144429    12.000000000000
         C            1.764968278018    -0.773376550338    -0.477567144429    12.000000000000
         C           -0.639280721982    -1.442632550338    -0.198564144429    12.000000000000
         C           -1.434265721982     1.192555449662     0.136176855571    12.000000000000
         C            0.919811278018     2.043222449662    -0.187934144429    12.000000000000
         C           -1.986199721982    -1.156379550338     0.031909855571    12.000000000000
         C           -2.381985721982     0.168588449662     0.208737855571    12.000000000000
         H            1.848621278018    -1.821675550338    -0.799280144429     1.007825032230
         H            2.223617278018    -0.152931550338    -1.252376144429     1.007825032230
         H           -0.323151721982    -2.475702550338    -0.339903144429     1.007825032230
         H           -1.749703721982     2.225430449662     0.275256855571     1.007825032230
         H            1.811422778018     1.805590049662     0.395843255571     1.007825032230
         H            1.242541278018     2.198271449662    -1.224202144429     1.007825032230
         H            0.481137278018     2.979939449662     0.166417855571     1.007825032230
         H           -2.715273721982    -1.961226550338     0.086302855571     1.007825032230
         H           -3.426816721982     0.408704449662     0.391807855571     1.007825032230
         H            2.091531278018    -0.990296550338     1.428541855571     1.007825032230

  Basis Set: AUG-CC-PVTZ
    Blend: AUG-CC-PVTZ
  Basis Set: (AUG-CC-PVTZ AUX)
    Blend: AUG-CC-PVTZ-JKFIT
	 Reference Energy          =    -383.7594947325570729 [Eh]
	 Singles Energy            =      -0.0000000000000000 [Eh]
	 Same-Spin Energy          =      -0.4132069392005905 [Eh]
	 Opposite-Spin Energy      =      -1.3207982144904673 [Eh]
	 Correlation Energy        =      -1.7340051536910579 [Eh]
	 Total Energy              =    -385.4934998862481166 [Eh]

	 ================> DF-SCS-MP2 Energies <==================
	-----------------------------------------------------------
	 SCS Same-Spin Scale       =       0.3333333333333333 [-]
	 SCS Opposite-Spin Scale   =       1.2000000000000000 [-]
	 SCS Same-Spin Energy      =      -0.1377356464001968 [Eh]
	 SCS Opposite-Spin Energy  =      -1.5849578573885608 [Eh]
	 SCS Correlation Energy    =      -1.7226935037887576 [Eh]
	 SCS Total Energy          =    -385.4821882363458485 [Eh]
	-----------------------------------------------------------

  Dipole Moment: [D]
     X:    -1.1980      Y:    -0.4050      Z:    -0.1064     Total:     1.2691

*** Psi4 exiting successfully. Buy a developer a beer!
