                               Psi4 1.4a3.dev225

  ==> Input File <==

--------------------------------------------------------------------------
#psi4
#
memory 32 gb

molecule  {
0 1
  O        2.5396650    -0.5551780     0.7057380
  C        0.3025760    -0.4378200    -0.2720190
  C       -0.0927650     0.9034730    -0.0869930
  C        1.7537560    -0.7902540    -0.4711970
  C       -0.6504930    -1.4595100    -0.1921940
  C       -1.4454780     1.1756780     0.1425470
  C        0.9085990     2.0263450    -0.1815640
  C       -1.9974120    -1.1732570     0.0382800
  C       -2.3931980     0.1517110     0.2151080
  H        1.8374090    -1.8385530    -0.7929100
  H        2.2124050    -0.1698090    -1.2460060
  H       -0.3923926    -2.3029499    -0.3075888
  H       -1.7609160     2.2085530     0.2816270
  H        1.7975830     1.8046110     0.4123870
  H        1.2313290     2.1813940    -1.2178320
  H        0.4699250     2.9630620     0.1727880
  H       -2.7264860    -1.9781040     0.0926730
  H       -3.4380290     0.3918270     0.3981780
  H        2.0803190    -1.0071740     1.4349120
units angstrom
no_reorient  #important for SAPT in psi4, default
symmetry c1  #important for SAPT in psi4, default
}

set PROPERTIES_ORIGIN ["COM"]
properties('MP2/aug-cc-pvtz', properties = ['dipole'])
--------------------------------------------------------------------------

    Molecular point group: c1
  Charge       = 0
  Multiplicity = 1
  Basis Set: AUG-CC-PVTZ
    Blend: AUG-CC-PVTZ
  Basis Set: (AUG-CC-PVTZ AUX)
    Blend: AUG-CC-PVTZ-JKFIT

    Orbital Energies [Eh]
    ---------------------

    Doubly Occupied:

       1A    -20.561107     2A    -11.283064     3A    -11.244568
       4A    -11.237581     5A    -11.236966     6A    -11.233918
       7A    -11.233048     8A    -11.219199     9A    -11.215579
      10A     -1.357518    11A     -1.158633    12A     -1.049966
      13A     -1.039197    14A     -0.946013    15A     -0.909776
      16A     -0.836990    17A     -0.792230    18A     -0.702407
      19A     -0.687131    20A     -0.652600    21A     -0.630484
      22A     -0.607532    23A     -0.592120    24A     -0.573751
      25A     -0.568191    26A     -0.542999    27A     -0.525778
      28A     -0.501151    29A     -0.487183    30A     -0.477581
      31A     -0.447394    32A     -0.336985    33A     -0.324657

  @DF-RHF Final Energy:  -383.72561628997852

   => Energetics <=

    Nuclear Repulsion Energy =            428.0608255730925293
    One-Electron Energy =               -1369.1462901988263638
    Two-Electron Energy =                 557.3598483357552595
    Total Energy =                       -383.7256162899785750
  Basis Set: (AUG-CC-PVTZ AUX)
    Blend: AUG-CC-PVTZ-RI
    Molecular point group: c1

    Geometry (in Angstrom), charge = 0, multiplicity = 1:

       Center              X                  Y                   Z               Mass
    ------------   -----------------  -----------------  -----------------  -----------------
         O            2.551378049306    -0.539997375084     0.699069670274    15.994914619570
         C            0.314289049306    -0.422639375084    -0.278687329726    12.000000000000
         C           -0.081051950694     0.918653624916    -0.093661329726    12.000000000000
         C            1.765469049306    -0.775073375084    -0.477865329726    12.000000000000
         C           -0.638779950694    -1.444329375084    -0.198862329726    12.000000000000
         C           -1.433764950694     1.190858624916     0.135878670274    12.000000000000
         C            0.920312049306     2.041525624916    -0.188232329726    12.000000000000
         C           -1.985698950694    -1.158076375084     0.031611670274    12.000000000000
         C           -2.381484950694     0.166891624916     0.208439670274    12.000000000000
         H            1.849122049306    -1.823372375084    -0.799578329726     1.007825032230
         H            2.224118049306    -0.154628375084    -1.252674329726     1.007825032230
         H           -0.380679550694    -2.287769275084    -0.314257129726     1.007825032230
         H           -1.749202950694     2.223733624916     0.274958670274     1.007825032230
         H            1.809296049306     1.819791624916     0.405718670274     1.007825032230
         H            1.243042049306     2.196574624916    -1.224500329726     1.007825032230
         H            0.481638049306     2.978242624916     0.166119670274     1.007825032230
         H           -2.714772950694    -1.962923375084     0.086004670274     1.007825032230
         H           -3.426315950694     0.407007624916     0.391509670274     1.007825032230
         H            2.092032049306    -0.991993375084     1.428243670274     1.007825032230

  Basis Set: AUG-CC-PVTZ
    Blend: AUG-CC-PVTZ
  Basis Set: (AUG-CC-PVTZ AUX)
    Blend: AUG-CC-PVTZ-JKFIT
	 Reference Energy          =    -383.7256162899785181 [Eh]
	 Singles Energy            =      -0.0000000000000000 [Eh]
	 Same-Spin Energy          =      -0.4128948436975262 [Eh]
	 Opposite-Spin Energy      =      -1.3201618428351121 [Eh]
	 Correlation Energy        =      -1.7330566865326382 [Eh]
	 Total Energy              =    -385.4586729765111386 [Eh]

	 ================> DF-SCS-MP2 Energies <==================
	-----------------------------------------------------------
	 SCS Same-Spin Scale       =       0.3333333333333333 [-]
	 SCS Opposite-Spin Scale   =       1.2000000000000000 [-]
	 SCS Same-Spin Energy      =      -0.1376316145658421 [Eh]
	 SCS Opposite-Spin Energy  =      -1.5841942114021343 [Eh]
	 SCS Correlation Energy    =      -1.7218258259679764 [Eh]
	 SCS Total Energy          =    -385.4474421159465010 [Eh]
	-----------------------------------------------------------

  Dipole Moment: [D]
     X:    -1.1813      Y:    -0.4576      Z:    -0.1087     Total:     1.2715

*** Psi4 exiting successfully. Buy a developer a beer!
