                               Psi4 1.4a3.dev225

  ==> Input File <==

--------------------------------------------------------------------------
#psi4
#
memory 32 gb

molecule  {
0 1
  O        2.5396650    -0.5551780     0.7057380
  C        0.3025760    -0.4378200    -0.2720190
  C       -0.0927650     0.9034730    -0.0869930
  C        1.7537560    -0.7902540    -0.4711970
  C       -0.6504930    -1.4595100    -0.1921940
  C       -1.4454780     1.1756780     0.1425470
  C        0.9085990     2.0263450    -0.1815640
  C       -1.9974120    -1.1732570     0.0382800
  C       -2.3931980     0.1517110     0.2151080
  H        1.8374090    -1.8385530    -0.7929100
  H        2.2124050    -0.1698090    -1.2460060
  H       -0.3343640    -2.4925800    -0.3335330
  H       -1.7609160     2.2085530     0.2816270
  H        1.7975830     1.8046110     0.4123870
  H        1.2313290     2.1813940    -1.2178320
  H        0.3896818     3.1344083     0.2376068
  H       -2.7264860    -1.9781040     0.0926730
  H       -3.4380290     0.3918270     0.3981780
  H        2.0803190    -1.0071740     1.4349120
units angstrom
no_reorient  #important for SAPT in psi4, default
symmetry c1  #important for SAPT in psi4, default
}

set PROPERTIES_ORIGIN ["COM"]
properties('MP2/aug-cc-pvtz', properties = ['dipole'])
--------------------------------------------------------------------------

    Molecular point group: c1
  Charge       = 0
  Multiplicity = 1
  Basis Set: AUG-CC-PVTZ
    Blend: AUG-CC-PVTZ
  Basis Set: (AUG-CC-PVTZ AUX)
    Blend: AUG-CC-PVTZ-JKFIT

    Orbital Energies [Eh]
    ---------------------

    Doubly Occupied:

       1A    -20.562231     2A    -11.284243     3A    -11.248036
       4A    -11.242814     5A    -11.241304     6A    -11.239926
       7A    -11.239232     8A    -11.236111     9A    -11.234103
      10A     -1.358667    11A     -1.158467    12A     -1.048719
      13A     -1.032465    14A     -0.938474    15A     -0.906749
      16A     -0.816919    17A     -0.791746    18A     -0.702189
      19A     -0.673411    20A     -0.645888    21A     -0.622989
      22A     -0.606685    23A     -0.587896    24A     -0.574699
      25A     -0.571654    26A     -0.533736    27A     -0.507099
      28A     -0.489991    29A     -0.486787    30A     -0.479578
      31A     -0.448047    32A     -0.338241    33A     -0.326922

  @DF-RHF Final Energy:  -383.73919995092331

   => Energetics <=

    Nuclear Repulsion Energy =            426.0859663644857847
    One-Electron Energy =               -1365.2982974680760435
    Two-Electron Energy =                 555.4731311526669515
    Total Energy =                       -383.7391999509233074
  Basis Set: (AUG-CC-PVTZ AUX)
    Blend: AUG-CC-PVTZ-RI
    Molecular point group: c1

    Geometry (in Angstrom), charge = 0, multiplicity = 1:

       Center              X                  Y                   Z               Mass
    ------------   -----------------  -----------------  -----------------  -----------------
         O            2.551561451038    -0.539846425682     0.698748725085    15.994914619570
         C            0.314472451038    -0.422488425682    -0.279008274915    12.000000000000
         C           -0.080868548962     0.918804574318    -0.093982274915    12.000000000000
         C            1.765652451038    -0.774922425682    -0.478186274915    12.000000000000
         C           -0.638596548962    -1.444178425682    -0.199183274915    12.000000000000
         C           -1.433581548962     1.191009574318     0.135557725085    12.000000000000
         C            0.920495451038     2.041676574318    -0.188553274915    12.000000000000
         C           -1.985515548962    -1.157925425682     0.031290725085    12.000000000000
         C           -2.381301548962     0.167042574318     0.208118725085    12.000000000000
         H            1.849305451038    -1.823221425682    -0.799899274915     1.007825032230
         H            2.224301451038    -0.154477425682    -1.252995274915     1.007825032230
         H           -0.322467548962    -2.477248425682    -0.340522274915     1.007825032230
         H           -1.749019548962     2.223884574318     0.274637725085     1.007825032230
         H            1.809479451038     1.819942574318     0.405397725085     1.007825032230
         H            1.243225451038     2.196725574318    -1.224821274915     1.007825032230
         H            0.401578251038     3.149739874318     0.230617525085     1.007825032230
         H           -2.714589548962    -1.962772425682     0.085683725085     1.007825032230
         H           -3.426132548962     0.407158574318     0.391188725085     1.007825032230
         H            2.092215451038    -0.991842425682     1.427922725085     1.007825032230

  Basis Set: AUG-CC-PVTZ
    Blend: AUG-CC-PVTZ
  Basis Set: (AUG-CC-PVTZ AUX)
    Blend: AUG-CC-PVTZ-JKFIT
	 Reference Energy          =    -383.7391999509233074 [Eh]
	 Singles Energy            =      -0.0000000000000000 [Eh]
	 Same-Spin Energy          =      -0.4132640742295711 [Eh]
	 Opposite-Spin Energy      =      -1.3225635804749718 [Eh]
	 Correlation Energy        =      -1.7358276547045430 [Eh]
	 Total Energy              =    -385.4750276056278722 [Eh]

	 ================> DF-SCS-MP2 Energies <==================
	-----------------------------------------------------------
	 SCS Same-Spin Scale       =       0.3333333333333333 [-]
	 SCS Opposite-Spin Scale   =       1.2000000000000000 [-]
	 SCS Same-Spin Energy      =      -0.1377546914098570 [Eh]
	 SCS Opposite-Spin Energy  =      -1.5870762965699661 [Eh]
	 SCS Correlation Energy    =      -1.7248309879798231 [Eh]
	 SCS Total Energy          =    -385.4640309389031358 [Eh]
	-----------------------------------------------------------

  Dipole Moment: [D]
     X:    -1.1938      Y:    -0.5545      Z:    -0.1316     Total:     1.3228

*** Psi4 exiting successfully. Buy a developer a beer!
