                               Psi4 1.4a3.dev225

  ==> Input File <==

--------------------------------------------------------------------------
#psi4
#
memory 32 gb

molecule  {
0 1
  O        2.5396650    -0.5551780     0.7057380
  C        0.3025760    -0.4378200    -0.2720190
  C       -0.0927650     0.9034730    -0.0869930
  C        1.8500783    -0.8136469    -0.4844175
  C       -0.6504930    -1.4595100    -0.1921940
  C       -1.4454780     1.1756780     0.1425470
  C        0.9085990     2.0263450    -0.1815640
  C       -1.9974120    -1.1732570     0.0382800
  C       -2.3931980     0.1517110     0.2151080
  H        1.8374090    -1.8385530    -0.7929100
  H        2.2124050    -0.1698090    -1.2460060
  H       -0.3343640    -2.4925800    -0.3335330
  H       -1.7609160     2.2085530     0.2816270
  H        1.7975830     1.8046110     0.4123870
  H        1.2313290     2.1813940    -1.2178320
  H        0.4699250     2.9630620     0.1727880
  H       -2.7264860    -1.9781040     0.0926730
  H       -3.4380290     0.3918270     0.3981780
  H        2.0803190    -1.0071740     1.4349120
units angstrom
no_reorient  #important for SAPT in psi4, default
symmetry c1  #important for SAPT in psi4, default
}

set PROPERTIES_ORIGIN ["COM"]
properties('MP2/aug-cc-pvtz', properties = ['dipole'])
--------------------------------------------------------------------------

    Molecular point group: c1
  Charge       = 0
  Multiplicity = 1
  Basis Set: AUG-CC-PVTZ
    Blend: AUG-CC-PVTZ
  Basis Set: (AUG-CC-PVTZ AUX)
    Blend: AUG-CC-PVTZ-JKFIT

    Orbital Energies [Eh]
    ---------------------

    Doubly Occupied:

       1A    -20.564509     2A    -11.284440     3A    -11.243055
       4A    -11.239720     5A    -11.236934     6A    -11.235760
       7A    -11.233339     8A    -11.231718     9A    -11.218787
      10A     -1.370729    11A     -1.152782    12A     -1.045014
      13A     -1.023799    14A     -0.940531    15A     -0.911316
      16A     -0.815570    17A     -0.791392    18A     -0.704970
      19A     -0.676455    20A     -0.643071    21A     -0.626858
      22A     -0.613470    23A     -0.590321    24A     -0.571402
      25A     -0.569383    26A     -0.543678    27A     -0.522830
      28A     -0.493813    29A     -0.486885    30A     -0.481164
      31A     -0.432667    32A     -0.335236    33A     -0.323379

  @DF-RHF Final Energy:  -383.75320048644255

   => Energetics <=

    Nuclear Repulsion Energy =            425.6726355520880247
    One-Electron Energy =               -1364.5417195957445529
    Two-Electron Energy =                 555.1158835572140333
    Total Energy =                       -383.7532004864425517
  Basis Set: (AUG-CC-PVTZ AUX)
    Blend: AUG-CC-PVTZ-RI
    Molecular point group: c1

    Geometry (in Angstrom), charge = 0, multiplicity = 1:

       Center              X                  Y                   Z               Mass
    ------------   -----------------  -----------------  -----------------  -----------------
         O            2.541430324298    -0.536132244186     0.700583460911    15.994914619570
         C            0.304341324298    -0.418774244186    -0.277173539089    12.000000000000
         C           -0.090999675702     0.922518755814    -0.092147539089    12.000000000000
         C            1.851843624298    -0.794601144186    -0.489572039089    12.000000000000
         C           -0.648727675702    -1.440464244186    -0.197348539089    12.000000000000
         C           -1.443712675702     1.194723755814     0.137392460911    12.000000000000
         C            0.910364324298     2.045390755814    -0.186718539089    12.000000000000
         C           -1.995646675702    -1.154211244186     0.033125460911    12.000000000000
         C           -2.391432675702     0.170756755814     0.209953460911    12.000000000000
         H            1.839174324298    -1.819507244186    -0.798064539089     1.007825032230
         H            2.214170324298    -0.150763244186    -1.251160539089     1.007825032230
         H           -0.332598675702    -2.473534244186    -0.338687539089     1.007825032230
         H           -1.759150675702     2.227598755814     0.276472460911     1.007825032230
         H            1.799348324298     1.823656755814     0.407232460911     1.007825032230
         H            1.233094324298     2.200439755814    -1.222986539089     1.007825032230
         H            0.471690324298     2.982107755814     0.167633460911     1.007825032230
         H           -2.724720675702    -1.959058244186     0.087518460911     1.007825032230
         H           -3.436263675702     0.410872755814     0.393023460911     1.007825032230
         H            2.082084324298    -0.988128244186     1.429757460911     1.007825032230

  Basis Set: AUG-CC-PVTZ
    Blend: AUG-CC-PVTZ
  Basis Set: (AUG-CC-PVTZ AUX)
    Blend: AUG-CC-PVTZ-JKFIT
	 Reference Energy          =    -383.7532004864425517 [Eh]
	 Singles Energy            =      -0.0000000000000000 [Eh]
	 Same-Spin Energy          =      -0.4125799946167176 [Eh]
	 Opposite-Spin Energy      =      -1.3198402623570007 [Eh]
	 Correlation Energy        =      -1.7324202569737182 [Eh]
	 Total Energy              =    -385.4856207434162911 [Eh]

	 ================> DF-SCS-MP2 Energies <==================
	-----------------------------------------------------------
	 SCS Same-Spin Scale       =       0.3333333333333333 [-]
	 SCS Opposite-Spin Scale   =       1.2000000000000000 [-]
	 SCS Same-Spin Energy      =      -0.1375266648722392 [Eh]
	 SCS Opposite-Spin Energy  =      -1.5838083148284008 [Eh]
	 SCS Correlation Energy    =      -1.7213349797006399 [Eh]
	 SCS Total Energy          =    -385.4745354661432089 [Eh]
	-----------------------------------------------------------

  Dipole Moment: [D]
     X:    -0.9186      Y:    -0.4712      Z:    -0.0626     Total:     1.0343

*** Psi4 exiting successfully. Buy a developer a beer!
