                               Psi4 1.4a3.dev225

  ==> Input File <==

--------------------------------------------------------------------------
#psi4
#
memory 32 gb

molecule  {
0 1
  O        2.5396650    -0.5551780     0.7057380
  C        0.3025760    -0.4378200    -0.2720190
  C       -0.0927650     0.9034730    -0.0869930
  C        1.7537560    -0.7902540    -0.4711970
  C       -0.6407781    -1.4118327    -0.1894827
  C       -1.4454780     1.1756780     0.1425470
  C        0.9085990     2.0263450    -0.1815640
  C       -1.9974120    -1.1732570     0.0382800
  C       -2.3931980     0.1517110     0.2151080
  H        1.8374090    -1.8385530    -0.7929100
  H        2.2124050    -0.1698090    -1.2460060
  H       -0.3343640    -2.4925800    -0.3335330
  H       -1.7609160     2.2085530     0.2816270
  H        1.7975830     1.8046110     0.4123870
  H        1.2313290     2.1813940    -1.2178320
  H        0.4699250     2.9630620     0.1727880
  H       -2.7264860    -1.9781040     0.0926730
  H       -3.4380290     0.3918270     0.3981780
  H        2.0803190    -1.0071740     1.4349120
units angstrom
no_reorient  #important for SAPT in psi4, default
symmetry c1  #important for SAPT in psi4, default
}

set PROPERTIES_ORIGIN ["COM"]
properties('MP2/aug-cc-pvtz', properties = ['dipole'])
--------------------------------------------------------------------------

    Molecular point group: c1
  Charge       = 0
  Multiplicity = 1
  Basis Set: AUG-CC-PVTZ
    Blend: AUG-CC-PVTZ
  Basis Set: (AUG-CC-PVTZ AUX)
    Blend: AUG-CC-PVTZ-JKFIT

    Orbital Energies [Eh]
    ---------------------

    Doubly Occupied:

       1A    -20.561359     2A    -11.283278     3A    -11.246192
       4A    -11.239213     5A    -11.238715     6A    -11.234643
       7A    -11.233720     8A    -11.232346     9A    -11.219781
      10A     -1.357763    11A     -1.162009    12A     -1.049668
      13A     -1.035190    14A     -0.942817    15A     -0.910970
      16A     -0.814392    17A     -0.795598    18A     -0.702824
      19A     -0.672994    20A     -0.644659    21A     -0.624721
      22A     -0.606355    23A     -0.584711    24A     -0.571842
      25A     -0.568835    26A     -0.543116    27A     -0.526896
      28A     -0.491040    29A     -0.486766    30A     -0.482673
      31A     -0.447173    32A     -0.341741    33A     -0.324900

  @DF-RHF Final Energy:  -383.75697667898436

   => Energetics <=

    Nuclear Repulsion Energy =            427.7715332098242129
    One-Electron Energy =               -1368.6992196372405033
    Two-Electron Energy =                 557.1707097484319320
    Total Energy =                       -383.7569766789844152
  Basis Set: (AUG-CC-PVTZ AUX)
    Blend: AUG-CC-PVTZ-RI
    Molecular point group: c1

    Geometry (in Angstrom), charge = 0, multiplicity = 1:

       Center              X                  Y                   Z               Mass
    ------------   -----------------  -----------------  -----------------  -----------------
         O            2.549943979207    -0.543118565876     0.699017337840    15.994914619570
         C            0.312854979207    -0.425760565876    -0.278739662160    12.000000000000
         C           -0.082486020793     0.915532434124    -0.093713662160    12.000000000000
         C            1.764034979207    -0.778194565876    -0.477917662160    12.000000000000
         C           -0.630499120793    -1.399773265876    -0.196203362160    12.000000000000
         C           -1.435199020793     1.187737434124     0.135826337840    12.000000000000
         C            0.918877979207     2.038404434124    -0.188284662160    12.000000000000
         C           -1.987133020793    -1.161197565876     0.031559337840    12.000000000000
         C           -2.382919020793     0.163770434124     0.208387337840    12.000000000000
         H            1.847687979207    -1.826493565876    -0.799630662160     1.007825032230
         H            2.222683979207    -0.157749565876    -1.252726662160     1.007825032230
         H           -0.324085020793    -2.480520565876    -0.340253662160     1.007825032230
         H           -1.750637020793     2.220612434124     0.274906337840     1.007825032230
         H            1.807861979207     1.816670434124     0.405666337840     1.007825032230
         H            1.241607979207     2.193453434124    -1.224552662160     1.007825032230
         H            0.480203979207     2.975121434124     0.166067337840     1.007825032230
         H           -2.716207020793    -1.966044565876     0.085952337840     1.007825032230
         H           -3.427750020793     0.403886434124     0.391457337840     1.007825032230
         H            2.090597979207    -0.995114565876     1.428191337840     1.007825032230

  Basis Set: AUG-CC-PVTZ
    Blend: AUG-CC-PVTZ
  Basis Set: (AUG-CC-PVTZ AUX)
    Blend: AUG-CC-PVTZ-JKFIT
	 Reference Energy          =    -383.7569766789843584 [Eh]
	 Singles Energy            =      -0.0000000000000000 [Eh]
	 Same-Spin Energy          =      -0.4131664959328779 [Eh]
	 Opposite-Spin Energy      =      -1.3207140150963717 [Eh]
	 Correlation Energy        =      -1.7338805110292497 [Eh]
	 Total Energy              =    -385.4908571900136280 [Eh]

	 ================> DF-SCS-MP2 Energies <==================
	-----------------------------------------------------------
	 SCS Same-Spin Scale       =       0.3333333333333333 [-]
	 SCS Opposite-Spin Scale   =       1.2000000000000000 [-]
	 SCS Same-Spin Energy      =      -0.1377221653109593 [Eh]
	 SCS Opposite-Spin Energy  =      -1.5848568181156459 [Eh]
	 SCS Correlation Energy    =      -1.7225789834266052 [Eh]
	 SCS Total Energy          =    -385.4795556624109736 [Eh]
	-----------------------------------------------------------

  Dipole Moment: [D]
     X:    -1.2069      Y:    -0.3895      Z:    -0.0972     Total:     1.2719

*** Psi4 exiting successfully. Buy a developer a beer!
