                               Psi4 1.4a3.dev225

  ==> Input File <==

--------------------------------------------------------------------------
#psi4
#
memory 32 gb

molecule  {
0 1
  O        2.5396650    -0.5551780     0.7057380
  C        0.3025760    -0.4378200    -0.2720190
  C       -0.0836518     0.9513949    -0.0849242
  C        1.7537560    -0.7902540    -0.4711970
  C       -0.6504930    -1.4595100    -0.1921940
  C       -1.4454780     1.1756780     0.1425470
  C        0.9085990     2.0263450    -0.1815640
  C       -1.9974120    -1.1732570     0.0382800
  C       -2.3931980     0.1517110     0.2151080
  H        1.8374090    -1.8385530    -0.7929100
  H        2.2124050    -0.1698090    -1.2460060
  H       -0.3343640    -2.4925800    -0.3335330
  H       -1.7609160     2.2085530     0.2816270
  H        1.7975830     1.8046110     0.4123870
  H        1.2313290     2.1813940    -1.2178320
  H        0.4699250     2.9630620     0.1727880
  H       -2.7264860    -1.9781040     0.0926730
  H       -3.4380290     0.3918270     0.3981780
  H        2.0803190    -1.0071740     1.4349120
units angstrom
no_reorient  #important for SAPT in psi4, default
symmetry c1  #important for SAPT in psi4, default
}

set PROPERTIES_ORIGIN ["COM"]
properties('MP2/aug-cc-pvtz', properties = ['dipole'])
--------------------------------------------------------------------------

    Molecular point group: c1
  Charge       = 0
  Multiplicity = 1
  Basis Set: AUG-CC-PVTZ
    Blend: AUG-CC-PVTZ
  Basis Set: (AUG-CC-PVTZ AUX)
    Blend: AUG-CC-PVTZ-JKFIT

    Orbital Energies [Eh]
    ---------------------

    Doubly Occupied:

       1A    -20.560766     2A    -11.282337     3A    -11.248827
       4A    -11.242585     5A    -11.239632     6A    -11.238847
       7A    -11.235347     8A    -11.233442     9A    -11.219154
      10A     -1.357127    11A     -1.154276    12A     -1.053020
      13A     -1.032735    14A     -0.947445    15A     -0.907279
      16A     -0.811798    17A     -0.793580    18A     -0.701030
      19A     -0.673136    20A     -0.646298    21A     -0.626482
      22A     -0.605230    23A     -0.583517    24A     -0.576971
      25A     -0.572115    26A     -0.545254    27A     -0.529062
      28A     -0.490011    29A     -0.485742    30A     -0.482840
      31A     -0.444956    32A     -0.338227    33A     -0.320789

  @DF-RHF Final Energy:  -383.75564881768156

   => Energetics <=

    Nuclear Repulsion Energy =            426.4651122099054419
    One-Electron Energy =               -1366.0818085512419202
    Two-Electron Energy =                 555.8610475236549746
    Total Energy =                       -383.7556488176815037
  Basis Set: (AUG-CC-PVTZ AUX)
    Blend: AUG-CC-PVTZ-RI
    Molecular point group: c1

    Geometry (in Angstrom), charge = 0, multiplicity = 1:

       Center              X                  Y                   Z               Mass
    ------------   -----------------  -----------------  -----------------  -----------------
         O            2.550003127342    -0.543142610473     0.699080496684    15.994914619570
         C            0.312914127342    -0.425784610473    -0.278676503316    12.000000000000
         C           -0.073313672658     0.963430289527    -0.091581703316    12.000000000000
         C            1.764094127342    -0.778218610473    -0.477854503316    12.000000000000
         C           -0.640154872658    -1.447474610473    -0.198851503316    12.000000000000
         C           -1.435139872658     1.187713389527     0.135889496684    12.000000000000
         C            0.918937127342     2.038380389527    -0.188221503316    12.000000000000
         C           -1.987073872658    -1.161221610473     0.031622496684    12.000000000000
         C           -2.382859872658     0.163746389527     0.208450496684    12.000000000000
         H            1.847747127342    -1.826517610473    -0.799567503316     1.007825032230
         H            2.222743127342    -0.157773610473    -1.252663503316     1.007825032230
         H           -0.324025872658    -2.480544610473    -0.340190503316     1.007825032230
         H           -1.750577872658     2.220588389527     0.274969496684     1.007825032230
         H            1.807921127342     1.816646389527     0.405729496684     1.007825032230
         H            1.241667127342     2.193429389527    -1.224489503316     1.007825032230
         H            0.480263127342     2.975097389527     0.166130496684     1.007825032230
         H           -2.716147872658    -1.966068610473     0.086015496684     1.007825032230
         H           -3.427690872658     0.403862389527     0.391520496684     1.007825032230
         H            2.090657127342    -0.995138610473     1.428254496684     1.007825032230

  Basis Set: AUG-CC-PVTZ
    Blend: AUG-CC-PVTZ
  Basis Set: (AUG-CC-PVTZ AUX)
    Blend: AUG-CC-PVTZ-JKFIT
	 Reference Energy          =    -383.7556488176815606 [Eh]
	 Singles Energy            =      -0.0000000000000000 [Eh]
	 Same-Spin Energy          =      -0.4136028278068935 [Eh]
	 Opposite-Spin Energy      =      -1.3214745062136179 [Eh]
	 Correlation Energy        =      -1.7350773340205115 [Eh]
	 Total Energy              =    -385.4907261517020629 [Eh]

	 ================> DF-SCS-MP2 Energies <==================
	-----------------------------------------------------------
	 SCS Same-Spin Scale       =       0.3333333333333333 [-]
	 SCS Opposite-Spin Scale   =       1.2000000000000000 [-]
	 SCS Same-Spin Energy      =      -0.1378676092689645 [Eh]
	 SCS Opposite-Spin Energy  =      -1.5857694074563415 [Eh]
	 SCS Correlation Energy    =      -1.7236370167253061 [Eh]
	 SCS Total Energy          =    -385.4792858344068804 [Eh]
	-----------------------------------------------------------

  Dipole Moment: [D]
     X:    -1.1558      Y:    -0.3614      Z:    -0.1114     Total:     1.2161

*** Psi4 exiting successfully. Buy a developer a beer!
