                               Psi4 1.4a3.dev225

  ==> Input File <==

--------------------------------------------------------------------------
#psi4
#
memory 32 gb

molecule  {
0 1
  O        2.5396650    -0.5551780     0.7057380
  C        0.3025760    -0.4378200    -0.2720190
  C       -0.0927650     0.9034730    -0.0869930
  C        1.7537560    -0.7902540    -0.4711970
  C       -0.6504930    -1.4595100    -0.1921940
  C       -1.4454780     1.1756780     0.1425470
  C        0.9085990     2.0263450    -0.1815640
  C       -1.9974120    -1.1732570     0.0382800
  C       -2.3931980     0.1517110     0.2151080
  H        1.8374090    -1.8385530    -0.7929100
  H        2.2124050    -0.1698090    -1.2460060
  H       -0.3401669    -2.4736170    -0.3309386
  H       -1.7609160     2.2085530     0.2816270
  H        1.7975830     1.8046110     0.4123870
  H        1.2313290     2.1813940    -1.2178320
  H        0.4699250     2.9630620     0.1727880
  H       -2.7264860    -1.9781040     0.0926730
  H       -3.4380290     0.3918270     0.3981780
  H        2.0803190    -1.0071740     1.4349120
units angstrom
no_reorient  #important for SAPT in psi4, default
symmetry c1  #important for SAPT in psi4, default
}

set PROPERTIES_ORIGIN ["COM"]
properties('MP2/aug-cc-pvtz', properties = ['dipole'])
--------------------------------------------------------------------------

    Molecular point group: c1
  Charge       = 0
  Multiplicity = 1
  Basis Set: AUG-CC-PVTZ
    Blend: AUG-CC-PVTZ
  Basis Set: (AUG-CC-PVTZ AUX)
    Blend: AUG-CC-PVTZ-JKFIT

    Orbital Energies [Eh]
    ---------------------

    Doubly Occupied:

       1A    -20.560925     2A    -11.282785     3A    -11.245715
       4A    -11.238636     5A    -11.238516     6A    -11.237243
       7A    -11.234933     8A    -11.233494     9A    -11.219761
      10A     -1.357328    11A     -1.157576    12A     -1.049260
      13A     -1.033127    14A     -0.943767    15A     -0.908614
      16A     -0.819665    17A     -0.792392    18A     -0.701042
      19A     -0.675495    20A     -0.645388    21A     -0.625986
      22A     -0.605496    23A     -0.587481    24A     -0.573263
      25A     -0.568570    26A     -0.543387    27A     -0.526176
      28A     -0.495078    29A     -0.488027    30A     -0.478151
      31A     -0.447459    32A     -0.337457    33A     -0.325544

  @DF-RHF Final Energy:  -383.75974095178185

   => Energetics <=

    Nuclear Repulsion Energy =            427.0105121081793413
    One-Electron Energy =               -1367.1850341926854071
    Two-Electron Energy =                 556.4147811327242152
    Total Energy =                       -383.7597409517818505
  Basis Set: (AUG-CC-PVTZ AUX)
    Blend: AUG-CC-PVTZ-RI
    Molecular point group: c1

    Geometry (in Angstrom), charge = 0, multiplicity = 1:

       Center              X                  Y                   Z               Mass
    ------------   -----------------  -----------------  -----------------  -----------------
         O            2.550946878640    -0.538588362910     0.699262444115    15.994914619570
         C            0.313857878640    -0.421230362910    -0.278494555885    12.000000000000
         C           -0.081483121360     0.920062637090    -0.093468555885    12.000000000000
         C            1.765037878640    -0.773664362910    -0.477672555885    12.000000000000
         C           -0.639211121360    -1.442920362910    -0.198669555885    12.000000000000
         C           -1.434196121360     1.192267637090     0.136071444115    12.000000000000
         C            0.919880878640     2.042934637090    -0.188039555885    12.000000000000
         C           -1.986130121360    -1.156667362910     0.031804444115    12.000000000000
         C           -2.381916121360     0.168300637090     0.208632444115    12.000000000000
         H            1.848690878640    -1.821963362910    -0.799385555885     1.007825032230
         H            2.223686878640    -0.153219362910    -1.252481555885     1.007825032230
         H           -0.328885021360    -2.457027362910    -0.337414155885     1.007825032230
         H           -1.749634121360     2.225142637090     0.275151444115     1.007825032230
         H            1.808864878640     1.821200637090     0.405911444115     1.007825032230
         H            1.242610878640     2.197983637090    -1.224307555885     1.007825032230
         H            0.481206878640     2.979651637090     0.166312444115     1.007825032230
         H           -2.715204121360    -1.961514362910     0.086197444115     1.007825032230
         H           -3.426747121360     0.408416637090     0.391702444115     1.007825032230
         H            2.091600878640    -0.990584362910     1.428436444115     1.007825032230

  Basis Set: AUG-CC-PVTZ
    Blend: AUG-CC-PVTZ
  Basis Set: (AUG-CC-PVTZ AUX)
    Blend: AUG-CC-PVTZ-JKFIT
	 Reference Energy          =    -383.7597409517818505 [Eh]
	 Singles Energy            =      -0.0000000000000000 [Eh]
	 Same-Spin Energy          =      -0.4131328978176173 [Eh]
	 Opposite-Spin Energy      =      -1.3206294584002742 [Eh]
	 Correlation Energy        =      -1.7337623562178917 [Eh]
	 Total Energy              =    -385.4935033079997311 [Eh]

	 ================> DF-SCS-MP2 Energies <==================
	-----------------------------------------------------------
	 SCS Same-Spin Scale       =       0.3333333333333333 [-]
	 SCS Opposite-Spin Scale   =       1.2000000000000000 [-]
	 SCS Same-Spin Energy      =      -0.1377109659392058 [Eh]
	 SCS Opposite-Spin Energy  =      -1.5847553500803291 [Eh]
	 SCS Correlation Energy    =      -1.7224663160195348 [Eh]
	 SCS Total Energy          =    -385.4822072678014138 [Eh]
	-----------------------------------------------------------

  Dipole Moment: [D]
     X:    -1.1989      Y:    -0.4092      Z:    -0.1032     Total:     1.2710

*** Psi4 exiting successfully. Buy a developer a beer!
