                               Psi4 1.4a3.dev225

  ==> Input File <==

--------------------------------------------------------------------------
#psi4
#
memory 32 gb

molecule  {
0 1
  O        2.5396650    -0.5551780     0.7057380
  C        0.3025760    -0.4378200    -0.2720190
  C       -0.0927650     0.9034730    -0.0869930
  C        1.7537560    -0.7902540    -0.4711970
  C       -0.6504930    -1.4595100    -0.1921940
  C       -1.3971251     1.1659480     0.1343421
  C        0.9085990     2.0263450    -0.1815640
  C       -1.9974120    -1.1732570     0.0382800
  C       -2.3931980     0.1517110     0.2151080
  H        1.8374090    -1.8385530    -0.7929100
  H        2.2124050    -0.1698090    -1.2460060
  H       -0.3343640    -2.4925800    -0.3335330
  H       -1.7609160     2.2085530     0.2816270
  H        1.7975830     1.8046110     0.4123870
  H        1.2313290     2.1813940    -1.2178320
  H        0.4699250     2.9630620     0.1727880
  H       -2.7264860    -1.9781040     0.0926730
  H       -3.4380290     0.3918270     0.3981780
  H        2.0803190    -1.0071740     1.4349120
units angstrom
no_reorient  #important for SAPT in psi4, default
symmetry c1  #important for SAPT in psi4, default
}

set PROPERTIES_ORIGIN ["COM"]
properties('MP2/aug-cc-pvtz', properties = ['dipole'])
--------------------------------------------------------------------------

    Molecular point group: c1
  Charge       = 0
  Multiplicity = 1
  Basis Set: AUG-CC-PVTZ
    Blend: AUG-CC-PVTZ
  Basis Set: (AUG-CC-PVTZ AUX)
    Blend: AUG-CC-PVTZ-JKFIT

    Orbital Energies [Eh]
    ---------------------

    Doubly Occupied:

       1A    -20.561071     2A    -11.282856     3A    -11.241291
       4A    -11.240299     5A    -11.239570     6A    -11.238645
       7A    -11.235553     8A    -11.232613     9A    -11.219030
      10A     -1.357464    11A     -1.160905    12A     -1.050947
      13A     -1.032245    14A     -0.941842    15A     -0.911181
      16A     -0.816577    17A     -0.794842    18A     -0.700900
      19A     -0.674178    20A     -0.646471    21A     -0.622658
      22A     -0.603736    23A     -0.586314    24A     -0.573554
      25A     -0.569126    26A     -0.544020    27A     -0.527325
      28A     -0.492215    29A     -0.488863    30A     -0.474910
      31A     -0.448652    32A     -0.338424    33A     -0.327927

  @DF-RHF Final Energy:  -383.75664576541703

   => Energetics <=

    Nuclear Repulsion Energy =            427.5785250261279202
    One-Electron Energy =               -1368.3179268317755941
    Two-Electron Energy =                 556.9827560402306972
    Total Energy =                       -383.7566457654170335
  Basis Set: (AUG-CC-PVTZ AUX)
    Blend: AUG-CC-PVTZ-RI
    Molecular point group: c1

    Geometry (in Angstrom), charge = 0, multiplicity = 1:

       Center              X                  Y                   Z               Mass
    ------------   -----------------  -----------------  -----------------  -----------------
         O            2.546145798008    -0.537475330524     0.700090418890    15.994914619570
         C            0.309056798008    -0.420117330524    -0.277666581110    12.000000000000
         C           -0.086284201992     0.921175669476    -0.092640581110    12.000000000000
         C            1.760236798008    -0.772551330524    -0.476844581110    12.000000000000
         C           -0.644012201992    -1.441807330524    -0.197841581110    12.000000000000
         C           -1.390644301992     1.183650669476     0.128694518890    12.000000000000
         C            0.915079798008     2.044047669476    -0.187211581110    12.000000000000
         C           -1.990931201992    -1.155554330524     0.032632418890    12.000000000000
         C           -2.386717201992     0.169413669476     0.209460418890    12.000000000000
         H            1.843889798008    -1.820850330524    -0.798557581110     1.007825032230
         H            2.218885798008    -0.152106330524    -1.251653581110     1.007825032230
         H           -0.327883201992    -2.474877330524    -0.339180581110     1.007825032230
         H           -1.754435201992     2.226255669476     0.275979418890     1.007825032230
         H            1.804063798008     1.822313669476     0.406739418890     1.007825032230
         H            1.237809798008     2.199096669476    -1.223479581110     1.007825032230
         H            0.476405798008     2.980764669476     0.167140418890     1.007825032230
         H           -2.720005201992    -1.960401330524     0.087025418890     1.007825032230
         H           -3.431548201992     0.409529669476     0.392530418890     1.007825032230
         H            2.086799798008    -0.989471330524     1.429264418890     1.007825032230

  Basis Set: AUG-CC-PVTZ
    Blend: AUG-CC-PVTZ
  Basis Set: (AUG-CC-PVTZ AUX)
    Blend: AUG-CC-PVTZ-JKFIT
	 Reference Energy          =    -383.7566457654170335 [Eh]
	 Singles Energy            =      -0.0000000000000000 [Eh]
	 Same-Spin Energy          =      -0.4130789418603787 [Eh]
	 Opposite-Spin Energy      =      -1.3208684827047217 [Eh]
	 Correlation Energy        =      -1.7339474245651003 [Eh]
	 Total Energy              =    -385.4905931899821212 [Eh]

	 ================> DF-SCS-MP2 Energies <==================
	-----------------------------------------------------------
	 SCS Same-Spin Scale       =       0.3333333333333333 [-]
	 SCS Opposite-Spin Scale   =       1.2000000000000000 [-]
	 SCS Same-Spin Energy      =      -0.1376929806201262 [Eh]
	 SCS Opposite-Spin Energy  =      -1.5850421792456659 [Eh]
	 SCS Correlation Energy    =      -1.7227351598657921 [Eh]
	 SCS Total Energy          =    -385.4793809252828396 [Eh]
	-----------------------------------------------------------

  Dipole Moment: [D]
     X:    -1.2245      Y:    -0.4365      Z:    -0.1015     Total:     1.3040

*** Psi4 exiting successfully. Buy a developer a beer!
