                               Psi4 1.4a3.dev225

  ==> Input File <==

--------------------------------------------------------------------------
#psi4
#
memory 32 gb

molecule  {
0 1
  O        2.5396650    -0.5551780     0.7057380
  C        0.3025760    -0.4378200    -0.2720190
  C       -0.0927650     0.9034730    -0.0869930
  C        1.7537560    -0.7902540    -0.4711970
  C       -0.6559667    -1.4832215    -0.1934445
  C       -1.4454780     1.1756780     0.1425470
  C        0.9085990     2.0263450    -0.1815640
  C       -1.9974120    -1.1732570     0.0382800
  C       -2.3931980     0.1517110     0.2151080
  H        1.8374090    -1.8385530    -0.7929100
  H        2.2124050    -0.1698090    -1.2460060
  H       -0.3343640    -2.4925800    -0.3335330
  H       -1.7609160     2.2085530     0.2816270
  H        1.7975830     1.8046110     0.4123870
  H        1.2313290     2.1813940    -1.2178320
  H        0.4699250     2.9630620     0.1727880
  H       -2.7264860    -1.9781040     0.0926730
  H       -3.4380290     0.3918270     0.3981780
  H        2.0803190    -1.0071740     1.4349120
units angstrom
no_reorient  #important for SAPT in psi4, default
symmetry c1  #important for SAPT in psi4, default
}

set PROPERTIES_ORIGIN ["COM"]
properties('MP2/aug-cc-pvtz', properties = ['dipole'])
--------------------------------------------------------------------------

    Molecular point group: c1
  Charge       = 0
  Multiplicity = 1
  Basis Set: AUG-CC-PVTZ
    Blend: AUG-CC-PVTZ
  Basis Set: (AUG-CC-PVTZ AUX)
    Blend: AUG-CC-PVTZ-JKFIT

    Orbital Energies [Eh]
    ---------------------

    Doubly Occupied:

       1A    -20.560720     2A    -11.282539     3A    -11.245780
       4A    -11.241027     5A    -11.239950     6A    -11.238828
       7A    -11.235608     8A    -11.234237     9A    -11.219901
      10A     -1.357115    11A     -1.155615    12A     -1.049305
      13A     -1.031436    14A     -0.944103    15A     -0.907541
      16A     -0.820353    17A     -0.790951    18A     -0.700133
      19A     -0.675688    20A     -0.646160    21A     -0.624721
      22A     -0.604661    23A     -0.588118    24A     -0.573178
      25A     -0.568467    26A     -0.543656    27A     -0.525948
      28A     -0.497313    29A     -0.486886    30A     -0.475751
      31A     -0.447441    32A     -0.335829    33A     -0.325880

  @DF-RHF Final Energy:  -383.75855036131884

   => Energetics <=

    Nuclear Repulsion Energy =            426.4844412119964545
    One-Electron Energy =               -1366.1363052974322727
    Two-Electron Energy =                 555.8933137241169788
    Total Energy =                       -383.7585503613188394
  Basis Set: (AUG-CC-PVTZ AUX)
    Blend: AUG-CC-PVTZ-RI
    Molecular point group: c1

    Geometry (in Angstrom), charge = 0, multiplicity = 1:

       Center              X                  Y                   Z               Mass
    ------------   -----------------  -----------------  -----------------  -----------------
         O            2.551437044453    -0.536100925264     0.699406789527    15.994914619570
         C            0.314348044453    -0.418742925264    -0.278350210473    12.000000000000
         C           -0.080992955547     0.922550074736    -0.093324210473    12.000000000000
         C            1.765528044453    -0.771176925264    -0.477528210473    12.000000000000
         C           -0.644194655547    -1.464144425264    -0.199775710473    12.000000000000
         C           -1.433705955547     1.194755074736     0.136215789527    12.000000000000
         C            0.920371044453     2.045422074736    -0.187895210473    12.000000000000
         C           -1.985639955547    -1.154179925264     0.031948789527    12.000000000000
         C           -2.381425955547     0.170788074736     0.208776789527    12.000000000000
         H            1.849181044453    -1.819475925264    -0.799241210473     1.007825032230
         H            2.224177044453    -0.150731925264    -1.252337210473     1.007825032230
         H           -0.322591955547    -2.473502925264    -0.339864210473     1.007825032230
         H           -1.749143955547     2.227630074736     0.275295789527     1.007825032230
         H            1.809355044453     1.823688074736     0.406055789527     1.007825032230
         H            1.243101044453     2.200471074736    -1.224163210473     1.007825032230
         H            0.481697044453     2.982139074736     0.166456789527     1.007825032230
         H           -2.714713955547    -1.959026925264     0.086341789527     1.007825032230
         H           -3.426256955547     0.410904074736     0.391846789527     1.007825032230
         H            2.092091044453    -0.988096925264     1.428580789527     1.007825032230

  Basis Set: AUG-CC-PVTZ
    Blend: AUG-CC-PVTZ
  Basis Set: (AUG-CC-PVTZ AUX)
    Blend: AUG-CC-PVTZ-JKFIT
	 Reference Energy          =    -383.7585503613188394 [Eh]
	 Singles Energy            =      -0.0000000000000000 [Eh]
	 Same-Spin Energy          =      -0.4132123293768315 [Eh]
	 Opposite-Spin Energy      =      -1.3209241623821257 [Eh]
	 Correlation Energy        =      -1.7341364917589572 [Eh]
	 Total Energy              =    -385.4926868530777710 [Eh]

	 ================> DF-SCS-MP2 Energies <==================
	-----------------------------------------------------------
	 SCS Same-Spin Scale       =       0.3333333333333333 [-]
	 SCS Opposite-Spin Scale   =       1.2000000000000000 [-]
	 SCS Same-Spin Energy      =      -0.1377374431256105 [Eh]
	 SCS Opposite-Spin Energy  =      -1.5851089948585508 [Eh]
	 SCS Correlation Energy    =      -1.7228464379841613 [Eh]
	 SCS Total Energy          =    -385.4813967993030133 [Eh]
	-----------------------------------------------------------

  Dipole Moment: [D]
     X:    -1.1995      Y:    -0.4014      Z:    -0.1039     Total:     1.2691

*** Psi4 exiting successfully. Buy a developer a beer!
