                               Psi4 1.4a3.dev225

  ==> Input File <==

--------------------------------------------------------------------------
#psi4
#
memory 32 gb

molecule  {
0 1
  O        2.5396650    -0.5551780     0.7057380
  C        0.3025760    -0.4378200    -0.2720190
  C       -0.1067789     0.9510187    -0.0804343
  C        1.7537560    -0.7902540    -0.4711970
  C       -0.6504930    -1.4595100    -0.1921940
  C       -1.4454780     1.1756780     0.1425470
  C        0.9085990     2.0263450    -0.1815640
  C       -1.9974120    -1.1732570     0.0382800
  C       -2.3931980     0.1517110     0.2151080
  H        1.8374090    -1.8385530    -0.7929100
  H        2.2124050    -0.1698090    -1.2460060
  H       -0.3343640    -2.4925800    -0.3335330
  H       -1.7609160     2.2085530     0.2816270
  H        1.7975830     1.8046110     0.4123870
  H        1.2313290     2.1813940    -1.2178320
  H        0.4699250     2.9630620     0.1727880
  H       -2.7264860    -1.9781040     0.0926730
  H       -3.4380290     0.3918270     0.3981780
  H        2.0803190    -1.0071740     1.4349120
units angstrom
no_reorient  #important for SAPT in psi4, default
symmetry c1  #important for SAPT in psi4, default
}

set PROPERTIES_ORIGIN ["COM"]
properties('MP2/aug-cc-pvtz', properties = ['dipole'])
--------------------------------------------------------------------------

    Molecular point group: c1
  Charge       = 0
  Multiplicity = 1
  Basis Set: AUG-CC-PVTZ
    Blend: AUG-CC-PVTZ
  Basis Set: (AUG-CC-PVTZ AUX)
    Blend: AUG-CC-PVTZ-JKFIT

    Orbital Energies [Eh]
    ---------------------

    Doubly Occupied:

       1A    -20.560906     2A    -11.282979     3A    -11.247310
       4A    -11.243177     5A    -11.239565     6A    -11.238955
       7A    -11.235333     8A    -11.230920     9A    -11.219463
      10A     -1.357248    11A     -1.155431    12A     -1.050794
      13A     -1.033946    14A     -0.946554    15A     -0.908265
      16A     -0.810930    17A     -0.795333    18A     -0.701510
      19A     -0.673131    20A     -0.645958    21A     -0.625754
      22A     -0.604861    23A     -0.584467    24A     -0.577012
      25A     -0.570788    26A     -0.543450    27A     -0.529969
      28A     -0.489282    29A     -0.486899    30A     -0.480656
      31A     -0.446321    32A     -0.340175    33A     -0.321254

  @DF-RHF Final Energy:  -383.75620095456225

   => Energetics <=

    Nuclear Repulsion Energy =            426.4992894558287730
    One-Electron Energy =               -1366.1537901144415628
    Two-Electron Energy =                 555.8982997040504870
    Total Energy =                       -383.7562009545622459
  Basis Set: (AUG-CC-PVTZ AUX)
    Blend: AUG-CC-PVTZ-RI
    Molecular point group: c1

    Geometry (in Angstrom), charge = 0, multiplicity = 1:

       Center              X                  Y                   Z               Mass
    ------------   -----------------  -----------------  -----------------  -----------------
         O            2.552276560656    -0.543105629372     0.698639131868    15.994914619570
         C            0.315187560656    -0.425747629372    -0.279117868132    12.000000000000
         C           -0.094167339344     0.963091070628    -0.087533168132    12.000000000000
         C            1.766367560656    -0.778181629372    -0.478295868132    12.000000000000
         C           -0.637881439344    -1.447437629372    -0.199292868132    12.000000000000
         C           -1.432866439344     1.187750370628     0.135448131868    12.000000000000
         C            0.921210560656     2.038417370628    -0.188662868132    12.000000000000
         C           -1.984800439344    -1.161184629372     0.031181131868    12.000000000000
         C           -2.380586439344     0.163783370628     0.208009131868    12.000000000000
         H            1.850020560656    -1.826480629372    -0.800008868132     1.007825032230
         H            2.225016560656    -0.157736629372    -1.253104868132     1.007825032230
         H           -0.321752439344    -2.480507629372    -0.340631868132     1.007825032230
         H           -1.748304439344     2.220625370628     0.274528131868     1.007825032230
         H            1.810194560656     1.816683370628     0.405288131868     1.007825032230
         H            1.243940560656     2.193466370628    -1.224930868132     1.007825032230
         H            0.482536560656     2.975134370628     0.165689131868     1.007825032230
         H           -2.713874439344    -1.966031629372     0.085574131868     1.007825032230
         H           -3.425417439344     0.403899370628     0.391079131868     1.007825032230
         H            2.092930560656    -0.995101629372     1.427813131868     1.007825032230

  Basis Set: AUG-CC-PVTZ
    Blend: AUG-CC-PVTZ
  Basis Set: (AUG-CC-PVTZ AUX)
    Blend: AUG-CC-PVTZ-JKFIT
	 Reference Energy          =    -383.7562009545622459 [Eh]
	 Singles Energy            =      -0.0000000000000000 [Eh]
	 Same-Spin Energy          =      -0.4133037192287968 [Eh]
	 Opposite-Spin Energy      =      -1.3211774247379731 [Eh]
	 Correlation Energy        =      -1.7344811439667698 [Eh]
	 Total Energy              =    -385.4906820985290210 [Eh]

	 ================> DF-SCS-MP2 Energies <==================
	-----------------------------------------------------------
	 SCS Same-Spin Scale       =       0.3333333333333333 [-]
	 SCS Opposite-Spin Scale   =       1.2000000000000000 [-]
	 SCS Same-Spin Energy      =      -0.1377679064095989 [Eh]
	 SCS Opposite-Spin Energy  =      -1.5854129096855676 [Eh]
	 SCS Correlation Energy    =      -1.7231808160951665 [Eh]
	 SCS Total Energy          =    -385.4793817706574259 [Eh]
	-----------------------------------------------------------

  Dipole Moment: [D]
     X:    -1.1680      Y:    -0.3886      Z:    -0.1106     Total:     1.2359

*** Psi4 exiting successfully. Buy a developer a beer!
