                               Psi4 1.4a3.dev225

  ==> Input File <==

--------------------------------------------------------------------------
#psi4
#
memory 32 gb

molecule  {
0 1
  O        2.5396650    -0.5551780     0.7057380
  C        0.3025760    -0.4378200    -0.2720190
  C       -0.0927650     0.9034730    -0.0869930
  C        1.7537560    -0.7902540    -0.4711970
  C       -0.6504930    -1.4595100    -0.1921940
  C       -1.4454780     1.1756780     0.1425470
  C        0.9085990     2.0263450    -0.1815640
  C       -1.9974120    -1.1732570     0.0382800
  C       -2.3931980     0.1517110     0.2151080
  H        1.8374090    -1.8385530    -0.7929100
  H        2.2124050    -0.1698090    -1.2460060
  H       -0.3343640    -2.4925800    -0.3335330
  H       -1.7609160     2.2085530     0.2816270
  H        1.7975830     1.8046110     0.4123870
  H        1.2313290     2.1813940    -1.2178320
  H        0.4498642     3.0058986     0.1889927
  H       -2.7264860    -1.9781040     0.0926730
  H       -3.4380290     0.3918270     0.3981780
  H        2.0803190    -1.0071740     1.4349120
units angstrom
no_reorient  #important for SAPT in psi4, default
symmetry c1  #important for SAPT in psi4, default
}

set PROPERTIES_ORIGIN ["COM"]
properties('MP2/aug-cc-pvtz', properties = ['dipole'])
--------------------------------------------------------------------------

    Molecular point group: c1
  Charge       = 0
  Multiplicity = 1
  Basis Set: AUG-CC-PVTZ
    Blend: AUG-CC-PVTZ
  Basis Set: (AUG-CC-PVTZ AUX)
    Blend: AUG-CC-PVTZ-JKFIT

    Orbital Energies [Eh]
    ---------------------

    Doubly Occupied:

       1A    -20.561193     2A    -11.283079     3A    -11.246335
       4A    -11.240375     5A    -11.238854     6A    -11.238532
       7A    -11.235379     8A    -11.233668     9A    -11.225863
      10A     -1.357602    11A     -1.157723    12A     -1.048898
      13A     -1.032510    14A     -0.941719    15A     -0.907949
      16A     -0.817780    17A     -0.792126    18A     -0.701245
      19A     -0.674146    20A     -0.644962    21A     -0.624438
      22A     -0.605533    23A     -0.586961    24A     -0.573400
      25A     -0.569172    26A     -0.537914    27A     -0.523342
      28A     -0.493733    29A     -0.488377    30A     -0.478572
      31A     -0.447648    32A     -0.337694    33A     -0.325929

  @DF-RHF Final Energy:  -383.75741302028047

   => Energetics <=

    Nuclear Repulsion Energy =            426.6856607669982964
    One-Electron Energy =               -1366.5408477614380445
    Two-Electron Energy =                 556.0977739741591677
    Total Energy =                       -383.7574130202805236
  Basis Set: (AUG-CC-PVTZ AUX)
    Blend: AUG-CC-PVTZ-RI
    Molecular point group: c1

    Geometry (in Angstrom), charge = 0, multiplicity = 1:

       Center              X                  Y                   Z               Mass
    ------------   -----------------  -----------------  -----------------  -----------------
         O            2.551064590575    -0.538785461197     0.699150078707    15.994914619570
         C            0.313975590576    -0.421427461197    -0.278606921293    12.000000000000
         C           -0.081365409425     0.919865538803    -0.093580921293    12.000000000000
         C            1.765155590576    -0.773861461197    -0.477784921293    12.000000000000
         C           -0.639093409424    -1.443117461197    -0.198781921293    12.000000000000
         C           -1.434078409425     1.192070538803     0.135959078707    12.000000000000
         C            0.919998590576     2.042737538803    -0.188151921293    12.000000000000
         C           -1.986012409424    -1.156864461197     0.031692078707    12.000000000000
         C           -2.381798409424     0.168103538803     0.208520078707    12.000000000000
         H            1.848808590575    -1.822160461197    -0.799497921293     1.007825032230
         H            2.223804590575    -0.153416461197    -1.252593921293     1.007825032230
         H           -0.322964409425    -2.476187461197    -0.340120921293     1.007825032230
         H           -1.749516409424     2.224945538803     0.275039078707     1.007825032230
         H            1.808982590575     1.821003538803     0.405799078707     1.007825032230
         H            1.242728590575     2.197786538803    -1.224419921293     1.007825032230
         H            0.461263790575     3.022291138803     0.182404778707     1.007825032230
         H           -2.715086409424    -1.961711461197     0.086085078707     1.007825032230
         H           -3.426629409424     0.408219538803     0.391590078707     1.007825032230
         H            2.091718590575    -0.990781461197     1.428324078707     1.007825032230

  Basis Set: AUG-CC-PVTZ
    Blend: AUG-CC-PVTZ
  Basis Set: (AUG-CC-PVTZ AUX)
    Blend: AUG-CC-PVTZ-JKFIT
	 Reference Energy          =    -383.7574130202804668 [Eh]
	 Singles Energy            =      -0.0000000000000000 [Eh]
	 Same-Spin Energy          =      -0.4131996863064822 [Eh]
	 Opposite-Spin Energy      =      -1.3211628688354857 [Eh]
	 Correlation Energy        =      -1.7343625551419679 [Eh]
	 Total Energy              =    -385.4917755754224231 [Eh]

	 ================> DF-SCS-MP2 Energies <==================
	-----------------------------------------------------------
	 SCS Same-Spin Scale       =       0.3333333333333333 [-]
	 SCS Opposite-Spin Scale   =       1.2000000000000000 [-]
	 SCS Same-Spin Energy      =      -0.1377332287688274 [Eh]
	 SCS Opposite-Spin Energy  =      -1.5853954426025829 [Eh]
	 SCS Correlation Energy    =      -1.7231286713714102 [Eh]
	 SCS Total Energy          =    -385.4805416916518652 [Eh]
	-----------------------------------------------------------

  Dipole Moment: [D]
     X:    -1.2000      Y:    -0.4337      Z:    -0.1083     Total:     1.2805

*** Psi4 exiting successfully. Buy a developer a beer!
