                               Psi4 1.4a3.dev225

  ==> Input File <==

--------------------------------------------------------------------------
#psi4
#
memory 32 gb

molecule  {
0 1
  O        2.5396650    -0.5551780     0.7057380
  C        0.3025760    -0.4378200    -0.2720190
  C       -0.0927650     0.9034730    -0.0869930
  C        1.7537560    -0.7902540    -0.4711970
  C       -0.6504930    -1.4595100    -0.1921940
  C       -1.4454780     1.1756780     0.1425470
  C        0.9085990     2.0263450    -0.1815640
  C       -1.9974120    -1.1732570     0.0382800
  C       -2.3931980     0.1517110     0.2151080
  H        1.8374090    -1.8385530    -0.7929100
  H        2.2124050    -0.1698090    -1.2460060
  H       -0.3343640    -2.4925800    -0.3335330
  H       -1.7609160     2.2085530     0.2816270
  H        1.8382913     1.7944574     0.4395852
  H        1.2313290     2.1813940    -1.2178320
  H        0.4699250     2.9630620     0.1727880
  H       -2.7264860    -1.9781040     0.0926730
  H       -3.4380290     0.3918270     0.3981780
  H        2.0803190    -1.0071740     1.4349120
units angstrom
no_reorient  #important for SAPT in psi4, default
symmetry c1  #important for SAPT in psi4, default
}

set PROPERTIES_ORIGIN ["COM"]
properties('MP2/aug-cc-pvtz', properties = ['dipole'])
--------------------------------------------------------------------------

    Molecular point group: c1
  Charge       = 0
  Multiplicity = 1
  Basis Set: AUG-CC-PVTZ
    Blend: AUG-CC-PVTZ
  Basis Set: (AUG-CC-PVTZ AUX)
    Blend: AUG-CC-PVTZ-JKFIT

    Orbital Energies [Eh]
    ---------------------

    Doubly Occupied:

       1A    -20.560850     2A    -11.282726     3A    -11.246186
       4A    -11.240225     5A    -11.238901     6A    -11.238248
       7A    -11.235329     8A    -11.233825     9A    -11.225180
      10A     -1.357307    11A     -1.157618    12A     -1.048614
      13A     -1.032625    14A     -0.941564    15A     -0.907427
      16A     -0.818315    17A     -0.791655    18A     -0.700738
      19A     -0.674807    20A     -0.644265    21A     -0.625397
      22A     -0.605043    23A     -0.586869    24A     -0.573126
      25A     -0.563455    26A     -0.542168    27A     -0.524167
      28A     -0.494339    29A     -0.487215    30A     -0.478289
      31A     -0.446800    32A     -0.337680    33A     -0.325536

  @DF-RHF Final Energy:  -383.75734019834238

   => Energetics <=

    Nuclear Repulsion Energy =            426.7232883295529291
    One-Electron Energy =               -1366.6282813077461924
    Two-Electron Energy =                 556.1476527798508869
    Total Energy =                       -383.7573401983423764
  Basis Set: (AUG-CC-PVTZ AUX)
    Blend: AUG-CC-PVTZ-RI
    Molecular point group: c1

    Geometry (in Angstrom), charge = 0, multiplicity = 1:

       Center              X                  Y                   Z               Mass
    ------------   -----------------  -----------------  -----------------  -----------------
         O            2.550562886371    -0.538347978888     0.699059317363    15.994914619570
         C            0.313473886371    -0.420989978888    -0.278697682637    12.000000000000
         C           -0.081867113629     0.920303021112    -0.093671682637    12.000000000000
         C            1.764653886371    -0.773423978888    -0.477875682637    12.000000000000
         C           -0.639595113629    -1.442679978888    -0.198872682637    12.000000000000
         C           -1.434580113629     1.192508021112     0.135868317363    12.000000000000
         C            0.919496886371     2.043175021112    -0.188242682637    12.000000000000
         C           -1.986514113629    -1.156426978888     0.031601317363    12.000000000000
         C           -2.382300113629     0.168541021112     0.208429317363    12.000000000000
         H            1.848306886371    -1.821722978888    -0.799588682637     1.007825032230
         H            2.223302886371    -0.152978978888    -1.252684682637     1.007825032230
         H           -0.323466113629    -2.475749978888    -0.340211682637     1.007825032230
         H           -1.750018113629     2.225383021112     0.274948317363     1.007825032230
         H            1.849189186371     1.811287421112     0.432906517363     1.007825032230
         H            1.242226886371     2.198224021112    -1.224510682637     1.007825032230
         H            0.480822886371     2.979892021112     0.166109317363     1.007825032230
         H           -2.715588113629    -1.961273978888     0.085994317363     1.007825032230
         H           -3.427131113629     0.408657021112     0.391499317363     1.007825032230
         H            2.091216886371    -0.990343978888     1.428233317363     1.007825032230

  Basis Set: AUG-CC-PVTZ
    Blend: AUG-CC-PVTZ
  Basis Set: (AUG-CC-PVTZ AUX)
    Blend: AUG-CC-PVTZ-JKFIT
	 Reference Energy          =    -383.7573401983423764 [Eh]
	 Singles Energy            =      -0.0000000000000000 [Eh]
	 Same-Spin Energy          =      -0.4132675889322285 [Eh]
	 Opposite-Spin Energy      =      -1.3211831916739423 [Eh]
	 Correlation Energy        =      -1.7344507806061706 [Eh]
	 Total Energy              =    -385.4917909789485293 [Eh]

	 ================> DF-SCS-MP2 Energies <==================
	-----------------------------------------------------------
	 SCS Same-Spin Scale       =       0.3333333333333333 [-]
	 SCS Opposite-Spin Scale   =       1.2000000000000000 [-]
	 SCS Same-Spin Energy      =      -0.1377558629774095 [Eh]
	 SCS Opposite-Spin Energy  =      -1.5854198300087308 [Eh]
	 SCS Correlation Energy    =      -1.7231756929861402 [Eh]
	 SCS Total Energy          =    -385.4805158913285368 [Eh]
	-----------------------------------------------------------

  Dipole Moment: [D]
     X:    -1.2116      Y:    -0.4140      Z:    -0.1044     Total:     1.2846

*** Psi4 exiting successfully. Buy a developer a beer!
