                               Psi4 1.4a3.dev225

  ==> Input File <==

--------------------------------------------------------------------------
#psi4
#
memory 32 gb

molecule  {
0 1
  O        2.5396650    -0.5551780     0.7057380
  C        0.3025760    -0.4378200    -0.2720190
  C       -0.0927650     0.9034730    -0.0869930
  C        1.7537560    -0.7902540    -0.4711970
  C       -0.6748321    -1.5537608    -0.1967713
  C       -1.4454780     1.1756780     0.1425470
  C        0.9085990     2.0263450    -0.1815640
  C       -1.9974120    -1.1732570     0.0382800
  C       -2.3931980     0.1517110     0.2151080
  H        1.8374090    -1.8385530    -0.7929100
  H        2.2124050    -0.1698090    -1.2460060
  H       -0.3343640    -2.4925800    -0.3335330
  H       -1.7609160     2.2085530     0.2816270
  H        1.7975830     1.8046110     0.4123870
  H        1.2313290     2.1813940    -1.2178320
  H        0.4699250     2.9630620     0.1727880
  H       -2.7264860    -1.9781040     0.0926730
  H       -3.4380290     0.3918270     0.3981780
  H        2.0803190    -1.0071740     1.4349120
units angstrom
no_reorient  #important for SAPT in psi4, default
symmetry c1  #important for SAPT in psi4, default
}

set PROPERTIES_ORIGIN ["COM"]
properties('MP2/aug-cc-pvtz', properties = ['dipole'])
--------------------------------------------------------------------------

    Molecular point group: c1
  Charge       = 0
  Multiplicity = 1
  Basis Set: AUG-CC-PVTZ
    Blend: AUG-CC-PVTZ
  Basis Set: (AUG-CC-PVTZ AUX)
    Blend: AUG-CC-PVTZ-JKFIT

    Orbital Energies [Eh]
    ---------------------

    Doubly Occupied:

       1A    -20.560267     2A    -11.282014     3A    -11.247167
       4A    -11.245321     5A    -11.242005     6A    -11.239289
       7A    -11.237343     8A    -11.236326     9A    -11.220143
      10A     -1.356626    11A     -1.150650    12A     -1.049657
      13A     -1.028084    14A     -0.945566    15A     -0.905175
      16A     -0.827081    17A     -0.787275    18A     -0.697654
      19A     -0.679552    20A     -0.653981    21A     -0.621158
      22A     -0.602974    23A     -0.592377    24A     -0.572428
      25A     -0.567904    26A     -0.544426    27A     -0.525232
      28A     -0.504556    29A     -0.483655    30A     -0.467292
      31A     -0.446712    32A     -0.333515    33A     -0.324359

  @DF-RHF Final Energy:  -383.74618564504146

   => Energetics <=

    Nuclear Repulsion Energy =            425.2504902703996663
    One-Electron Energy =               -1363.6378228708726965
    Two-Electron Energy =                 554.6411469554315090
    Total Energy =                       -383.7461856450414643
  Basis Set: (AUG-CC-PVTZ AUX)
    Blend: AUG-CC-PVTZ-RI
    Molecular point group: c1

    Geometry (in Angstrom), charge = 0, multiplicity = 1:

       Center              X                  Y                   Z               Mass
    ------------   -----------------  -----------------  -----------------  -----------------
         O            2.553291545400    -0.529166791948     0.699733819632    15.994914619570
         C            0.316202545400    -0.411808791948    -0.278023180368    12.000000000000
         C           -0.079138454600     0.929484208052    -0.092997180368    12.000000000000
         C            1.767382545400    -0.764242791948    -0.477201180368    12.000000000000
         C           -0.661205554600    -1.527749591948    -0.202775480368    12.000000000000
         C           -1.431851454600     1.201689208052     0.136542819632    12.000000000000
         C            0.922225545400     2.052356208052    -0.187568180368    12.000000000000
         C           -1.983785454600    -1.147245791948     0.032275819632    12.000000000000
         C           -2.379571454600     0.177722208052     0.209103819632    12.000000000000
         H            1.851035545400    -1.812541791948    -0.798914180368     1.007825032230
         H            2.226031545400    -0.143797791948    -1.252010180368     1.007825032230
         H           -0.320737454600    -2.466568791948    -0.339537180368     1.007825032230
         H           -1.747289454600     2.234564208052     0.275622819632     1.007825032230
         H            1.811209545400     1.830622208052     0.406382819632     1.007825032230
         H            1.244955545400     2.207405208052    -1.223836180368     1.007825032230
         H            0.483551545400     2.989073208052     0.166783819632     1.007825032230
         H           -2.712859454600    -1.952092791948     0.086668819632     1.007825032230
         H           -3.424402454600     0.417838208052     0.392173819632     1.007825032230
         H            2.093945545400    -0.981162791948     1.428907819632     1.007825032230

  Basis Set: AUG-CC-PVTZ
    Blend: AUG-CC-PVTZ
  Basis Set: (AUG-CC-PVTZ AUX)
    Blend: AUG-CC-PVTZ-JKFIT
	 Reference Energy          =    -383.7461856450414643 [Eh]
	 Singles Energy            =      -0.0000000000000000 [Eh]
	 Same-Spin Energy          =      -0.4134080287974657 [Eh]
	 Opposite-Spin Energy      =      -1.3218903284718926 [Eh]
	 Correlation Energy        =      -1.7352983572693583 [Eh]
	 Total Energy              =    -385.4814840023108218 [Eh]

	 ================> DF-SCS-MP2 Energies <==================
	-----------------------------------------------------------
	 SCS Same-Spin Scale       =       0.3333333333333333 [-]
	 SCS Opposite-Spin Scale   =       1.2000000000000000 [-]
	 SCS Same-Spin Energy      =      -0.1378026762658219 [Eh]
	 SCS Opposite-Spin Energy  =      -1.5862683941662710 [Eh]
	 SCS Correlation Energy    =      -1.7240710704320930 [Eh]
	 SCS Total Energy          =    -385.4702567154735675 [Eh]
	-----------------------------------------------------------

  Dipole Moment: [D]
     X:    -1.1968      Y:    -0.3887      Z:    -0.1066     Total:     1.2629

*** Psi4 exiting successfully. Buy a developer a beer!
