                               Psi4 1.4a3.dev225

  ==> Input File <==

--------------------------------------------------------------------------
#psi4
#
memory 32 gb

molecule  {
0 1
  O        2.5396650    -0.5551780     0.7057380
  C        0.4015365    -0.5426626    -0.2979666
  C       -0.0927650     0.9034730    -0.0869930
  C        1.7537560    -0.7902540    -0.4711970
  C       -0.6504930    -1.4595100    -0.1921940
  C       -1.4454780     1.1756780     0.1425470
  C        0.9085990     2.0263450    -0.1815640
  C       -1.9974120    -1.1732570     0.0382800
  C       -2.3931980     0.1517110     0.2151080
  H        1.8374090    -1.8385530    -0.7929100
  H        2.2124050    -0.1698090    -1.2460060
  H       -0.3343640    -2.4925800    -0.3335330
  H       -1.7609160     2.2085530     0.2816270
  H        1.7975830     1.8046110     0.4123870
  H        1.2313290     2.1813940    -1.2178320
  H        0.4699250     2.9630620     0.1727880
  H       -2.7264860    -1.9781040     0.0926730
  H       -3.4380290     0.3918270     0.3981780
  H        2.0803190    -1.0071740     1.4349120
units angstrom
no_reorient  #important for SAPT in psi4, default
symmetry c1  #important for SAPT in psi4, default
}

set PROPERTIES_ORIGIN ["COM"]
properties('MP2/aug-cc-pvtz', properties = ['dipole'])
--------------------------------------------------------------------------

    Molecular point group: c1
  Charge       = 0
  Multiplicity = 1
  Basis Set: AUG-CC-PVTZ
    Blend: AUG-CC-PVTZ
  Basis Set: (AUG-CC-PVTZ AUX)
    Blend: AUG-CC-PVTZ-JKFIT

    Orbital Energies [Eh]
    ---------------------

    Doubly Occupied:

       1A    -20.562245     2A    -11.277541     3A    -11.259546
       4A    -11.244906     5A    -11.243516     6A    -11.242968
       7A    -11.235357     8A    -11.232536     9A    -11.219706
      10A     -1.361124    11A     -1.149669    12A     -1.055434
      13A     -1.039661    14A     -0.953842    15A     -0.909192
      16A     -0.801134    17A     -0.796591    18A     -0.710541
      19A     -0.673872    20A     -0.657487    21A     -0.623340
      22A     -0.608906    23A     -0.585465    24A     -0.571774
      25A     -0.567271    26A     -0.543585    27A     -0.530336
      28A     -0.499733    29A     -0.483040    30A     -0.475665
      31A     -0.441414    32A     -0.342666    33A     -0.313694

  @DF-RHF Final Energy:  -383.73122866026154

   => Energetics <=

    Nuclear Repulsion Energy =            426.1428158251117111
    One-Electron Energy =               -1365.3205741254712393
    Two-Electron Energy =                 555.4465296400979923
    Total Energy =                       -383.7312286602615359
  Basis Set: (AUG-CC-PVTZ AUX)
    Blend: AUG-CC-PVTZ-RI
    Molecular point group: c1

    Geometry (in Angstrom), charge = 0, multiplicity = 1:

       Center              X                  Y                   Z               Mass
    ------------   -----------------  -----------------  -----------------  -----------------
         O            2.541170984745    -0.528125599970     0.701834556515    15.994914619570
         C            0.403042484745    -0.515610199970    -0.301870043485    12.000000000000
         C           -0.091259015255     0.930525400030    -0.090896443485    12.000000000000
         C            1.755261984745    -0.763201599970    -0.475100443485    12.000000000000
         C           -0.648987015255    -1.432457599970    -0.196097443485    12.000000000000
         C           -1.443972015255     1.202730400030     0.138643556515    12.000000000000
         C            0.910104984745     2.053397400030    -0.185467443485    12.000000000000
         C           -1.995906015255    -1.146204599970     0.034376556515    12.000000000000
         C           -2.391692015255     0.178763400030     0.211204556515    12.000000000000
         H            1.838914984745    -1.811500599970    -0.796813443485     1.007825032230
         H            2.213910984745    -0.142756599970    -1.249909443485     1.007825032230
         H           -0.332858015255    -2.465527599970    -0.337436443485     1.007825032230
         H           -1.759410015255     2.235605400030     0.277723556515     1.007825032230
         H            1.799088984745     1.831663400030     0.408483556515     1.007825032230
         H            1.232834984745     2.208446400030    -1.221735443485     1.007825032230
         H            0.471430984745     2.990114400030     0.168884556515     1.007825032230
         H           -2.724980015255    -1.951051599970     0.088769556515     1.007825032230
         H           -3.436523015255     0.418879400030     0.394274556515     1.007825032230
         H            2.081824984745    -0.980121599970     1.431008556515     1.007825032230

  Basis Set: AUG-CC-PVTZ
    Blend: AUG-CC-PVTZ
  Basis Set: (AUG-CC-PVTZ AUX)
    Blend: AUG-CC-PVTZ-JKFIT
	 Reference Energy          =    -383.7312286602615359 [Eh]
	 Singles Energy            =      -0.0000000000000000 [Eh]
	 Same-Spin Energy          =      -0.4147613627464346 [Eh]
	 Opposite-Spin Energy      =      -1.3238329557668673 [Eh]
	 Correlation Energy        =      -1.7385943185133019 [Eh]
	 Total Energy              =    -385.4698229787748573 [Eh]

	 ================> DF-SCS-MP2 Energies <==================
	-----------------------------------------------------------
	 SCS Same-Spin Scale       =       0.3333333333333333 [-]
	 SCS Opposite-Spin Scale   =       1.2000000000000000 [-]
	 SCS Same-Spin Energy      =      -0.1382537875821448 [Eh]
	 SCS Opposite-Spin Energy  =      -1.5885995469202407 [Eh]
	 SCS Correlation Energy    =      -1.7268533345023855 [Eh]
	 SCS Total Energy          =    -385.4580819947639156 [Eh]
	-----------------------------------------------------------

  Dipole Moment: [D]
     X:    -1.2361      Y:    -0.3486      Z:    -0.0984     Total:     1.2880

*** Psi4 exiting successfully. Buy a developer a beer!
