                               Psi4 1.4a3.dev225

  ==> Input File <==

--------------------------------------------------------------------------
#psi4
#
memory 32 gb

molecule  {
0 1
  O        2.5396650    -0.5551780     0.7057380
  C        0.3487181    -0.4223015    -0.2793744
  C       -0.0927650     0.9034730    -0.0869930
  C        1.7537560    -0.7902540    -0.4711970
  C       -0.6504930    -1.4595100    -0.1921940
  C       -1.4454780     1.1756780     0.1425470
  C        0.9085990     2.0263450    -0.1815640
  C       -1.9974120    -1.1732570     0.0382800
  C       -2.3931980     0.1517110     0.2151080
  H        1.8374090    -1.8385530    -0.7929100
  H        2.2124050    -0.1698090    -1.2460060
  H       -0.3343640    -2.4925800    -0.3335330
  H       -1.7609160     2.2085530     0.2816270
  H        1.7975830     1.8046110     0.4123870
  H        1.2313290     2.1813940    -1.2178320
  H        0.4699250     2.9630620     0.1727880
  H       -2.7264860    -1.9781040     0.0926730
  H       -3.4380290     0.3918270     0.3981780
  H        2.0803190    -1.0071740     1.4349120
units angstrom
no_reorient  #important for SAPT in psi4, default
symmetry c1  #important for SAPT in psi4, default
}

set PROPERTIES_ORIGIN ["COM"]
properties('MP2/aug-cc-pvtz', properties = ['dipole'])
--------------------------------------------------------------------------

    Molecular point group: c1
  Charge       = 0
  Multiplicity = 1
  Basis Set: AUG-CC-PVTZ
    Blend: AUG-CC-PVTZ
  Basis Set: (AUG-CC-PVTZ AUX)
    Blend: AUG-CC-PVTZ-JKFIT

    Orbital Energies [Eh]
    ---------------------

    Doubly Occupied:

       1A    -20.560877     2A    -11.281220     3A    -11.246564
       4A    -11.244687     5A    -11.240428     6A    -11.239930
       7A    -11.235613     8A    -11.234233     9A    -11.218616
      10A     -1.358418    11A     -1.154820    12A     -1.052184
      13A     -1.031558    14A     -0.945968    15A     -0.908472
      16A     -0.819018    17A     -0.789530    18A     -0.701903
      19A     -0.676224    20A     -0.647915    21A     -0.624111
      22A     -0.605491    23A     -0.588883    24A     -0.572887
      25A     -0.568534    26A     -0.542698    27A     -0.526056
      28A     -0.496643    29A     -0.485281    30A     -0.472095
      31A     -0.453323    32A     -0.333351    33A     -0.326592

  @DF-RHF Final Energy:  -383.75534316356868

   => Energetics <=

    Nuclear Repulsion Energy =            426.8078056295915417
    One-Electron Energy =               -1366.7580500718042913
    Two-Electron Energy =                 556.1949012786441244
    Total Energy =                       -383.7553431635686820
  Basis Set: (AUG-CC-PVTZ AUX)
    Blend: AUG-CC-PVTZ-RI
    Molecular point group: c1

    Geometry (in Angstrom), charge = 0, multiplicity = 1:

       Center              X                  Y                   Z               Mass
    ------------   -----------------  -----------------  -----------------  -----------------
         O            2.546363123413    -0.539957301071     0.700006911593    15.994914619570
         C            0.355416223413    -0.407080801071    -0.285105488407    12.000000000000
         C           -0.086066876587     0.918693698929    -0.092724088407    12.000000000000
         C            1.760454123413    -0.775033301071    -0.476928088407    12.000000000000
         C           -0.643794876587    -1.444289301071    -0.197925088407    12.000000000000
         C           -1.438779876587     1.190898698929     0.136815911593    12.000000000000
         C            0.915297123413     2.041565698929    -0.187295088407    12.000000000000
         C           -1.990713876587    -1.158036301071     0.032548911593    12.000000000000
         C           -2.386499876587     0.166931698929     0.209376911593    12.000000000000
         H            1.844107123413    -1.823332301071    -0.798641088407     1.007825032230
         H            2.219103123413    -0.154588301071    -1.251737088407     1.007825032230
         H           -0.327665876587    -2.477359301071    -0.339264088407     1.007825032230
         H           -1.754217876587     2.223773698929     0.275895911593     1.007825032230
         H            1.804281123413     1.819831698929     0.406655911593     1.007825032230
         H            1.238027123413     2.196614698929    -1.223563088407     1.007825032230
         H            0.476623123413     2.978282698929     0.167056911593     1.007825032230
         H           -2.719787876587    -1.962883301071     0.086941911593     1.007825032230
         H           -3.431330876587     0.407047698929     0.392446911593     1.007825032230
         H            2.087017123413    -0.991953301071     1.429180911593     1.007825032230

  Basis Set: AUG-CC-PVTZ
    Blend: AUG-CC-PVTZ
  Basis Set: (AUG-CC-PVTZ AUX)
    Blend: AUG-CC-PVTZ-JKFIT
	 Reference Energy          =    -383.7553431635686820 [Eh]
	 Singles Energy            =      -0.0000000000000000 [Eh]
	 Same-Spin Energy          =      -0.4137161013094186 [Eh]
	 Opposite-Spin Energy      =      -1.3215852120586320 [Eh]
	 Correlation Energy        =      -1.7353013133680506 [Eh]
	 Total Energy              =    -385.4906444769367226 [Eh]

	 ================> DF-SCS-MP2 Energies <==================
	-----------------------------------------------------------
	 SCS Same-Spin Scale       =       0.3333333333333333 [-]
	 SCS Opposite-Spin Scale   =       1.2000000000000000 [-]
	 SCS Same-Spin Energy      =      -0.1379053671031395 [Eh]
	 SCS Opposite-Spin Energy  =      -1.5859022544703583 [Eh]
	 SCS Correlation Energy    =      -1.7238076215734979 [Eh]
	 SCS Total Energy          =    -385.4791507851421670 [Eh]
	-----------------------------------------------------------

  Dipole Moment: [D]
     X:    -1.2194      Y:    -0.4103      Z:    -0.1071     Total:     1.2910

*** Psi4 exiting successfully. Buy a developer a beer!
