                               Psi4 1.4a3.dev225

  ==> Input File <==

--------------------------------------------------------------------------
#psi4
#
memory 32 gb

molecule  {
0 1
  O        2.5396650    -0.5551780     0.7057380
  C        0.3025760    -0.4378200    -0.2720190
  C       -0.0927650     0.9034730    -0.0869930
  C        1.7537560    -0.7902540    -0.4711970
  C       -0.6618490    -1.5068386    -0.1946245
  C       -1.4454780     1.1756780     0.1425470
  C        0.9085990     2.0263450    -0.1815640
  C       -1.9974120    -1.1732570     0.0382800
  C       -2.3931980     0.1517110     0.2151080
  H        1.8374090    -1.8385530    -0.7929100
  H        2.2124050    -0.1698090    -1.2460060
  H       -0.3343640    -2.4925800    -0.3335330
  H       -1.7609160     2.2085530     0.2816270
  H        1.7975830     1.8046110     0.4123870
  H        1.2313290     2.1813940    -1.2178320
  H        0.4699250     2.9630620     0.1727880
  H       -2.7264860    -1.9781040     0.0926730
  H       -3.4380290     0.3918270     0.3981780
  H        2.0803190    -1.0071740     1.4349120
units angstrom
no_reorient  #important for SAPT in psi4, default
symmetry c1  #important for SAPT in psi4, default
}

set PROPERTIES_ORIGIN ["COM"]
properties('MP2/aug-cc-pvtz', properties = ['dipole'])
--------------------------------------------------------------------------

    Molecular point group: c1
  Charge       = 0
  Multiplicity = 1
  Basis Set: AUG-CC-PVTZ
    Blend: AUG-CC-PVTZ
  Basis Set: (AUG-CC-PVTZ AUX)
    Blend: AUG-CC-PVTZ-JKFIT

    Orbital Energies [Eh]
    ---------------------

    Doubly Occupied:

       1A    -20.560551     2A    -11.282344     3A    -11.245739
       4A    -11.242809     5A    -11.240799     6A    -11.238941
       7A    -11.236108     8A    -11.234918     9A    -11.219972
      10A     -1.356936    11A     -1.153813    12A     -1.049365
      13A     -1.030251    14A     -0.944574    15A     -0.906631
      16A     -0.822516    17A     -0.789580    18A     -0.699284
      19A     -0.676808    20A     -0.648347    21A     -0.623738
      22A     -0.604097    23A     -0.589599    24A     -0.573051
      25A     -0.568303    26A     -0.543888    27A     -0.525686
      28A     -0.500075    29A     -0.485714    30A     -0.473092
      31A     -0.447311    32A     -0.334501    33A     -0.325807

  @DF-RHF Final Energy:  -383.75595993772339

   => Energetics <=

    Nuclear Repulsion Energy =            426.0669823353256334
    One-Electron Energy =               -1365.2955910948185192
    Two-Electron Energy =                 555.4726488217695533
    Total Energy =                       -383.7559599377233326
  Basis Set: (AUG-CC-PVTZ AUX)
    Blend: AUG-CC-PVTZ-RI
    Molecular point group: c1

    Geometry (in Angstrom), charge = 0, multiplicity = 1:

       Center              X                  Y                   Z               Mass
    ------------   -----------------  -----------------  -----------------  -----------------
         O            2.552015284560    -0.533779324115     0.699522785536    15.994914619570
         C            0.314926284560    -0.416421324115    -0.278234214464    12.000000000000
         C           -0.080414715440     0.924871675885    -0.093208214464    12.000000000000
         C            1.766106284560    -0.768855324115    -0.477412214464    12.000000000000
         C           -0.649498715440    -1.485439924115    -0.200839714464    12.000000000000
         C           -1.433127715440     1.197076675885     0.136331785536    12.000000000000
         C            0.920949284560     2.047743675885    -0.187779214464    12.000000000000
         C           -1.985061715440    -1.151858324115     0.032064785536    12.000000000000
         C           -2.380847715440     0.173109675885     0.208892785536    12.000000000000
         H            1.849759284560    -1.817154324115    -0.799125214464     1.007825032230
         H            2.224755284560    -0.148410324115    -1.252221214464     1.007825032230
         H           -0.322013715440    -2.471181324115    -0.339748214464     1.007825032230
         H           -1.748565715440     2.229951675885     0.275411785536     1.007825032230
         H            1.809933284560     1.826009675885     0.406171785536     1.007825032230
         H            1.243679284560     2.202792675885    -1.224047214464     1.007825032230
         H            0.482275284560     2.984460675885     0.166572785536     1.007825032230
         H           -2.714135715440    -1.956705324115     0.086457785536     1.007825032230
         H           -3.425678715440     0.413225675885     0.391962785536     1.007825032230
         H            2.092669284560    -0.985775324115     1.428696785536     1.007825032230

  Basis Set: AUG-CC-PVTZ
    Blend: AUG-CC-PVTZ
  Basis Set: (AUG-CC-PVTZ AUX)
    Blend: AUG-CC-PVTZ-JKFIT
	 Reference Energy          =    -383.7559599377233894 [Eh]
	 Singles Energy            =      -0.0000000000000000 [Eh]
	 Same-Spin Energy          =      -0.4132613037416125 [Eh]
	 Opposite-Spin Energy      =      -1.3211594313391752 [Eh]
	 Correlation Energy        =      -1.7344207350807879 [Eh]
	 Total Energy              =    -385.4903806728041786 [Eh]

	 ================> DF-SCS-MP2 Energies <==================
	-----------------------------------------------------------
	 SCS Same-Spin Scale       =       0.3333333333333333 [-]
	 SCS Opposite-Spin Scale   =       1.2000000000000000 [-]
	 SCS Same-Spin Energy      =      -0.1377537679138708 [Eh]
	 SCS Opposite-Spin Energy  =      -1.5853913176070102 [Eh]
	 SCS Correlation Energy    =      -1.7231450855208810 [Eh]
	 SCS Total Energy          =    -385.4791050232442444 [Eh]
	-----------------------------------------------------------

  Dipole Moment: [D]
     X:    -1.1981      Y:    -0.3994      Z:    -0.1052     Total:     1.2673

*** Psi4 exiting successfully. Buy a developer a beer!
