                               Psi4 1.4a3.dev225

  ==> Input File <==

--------------------------------------------------------------------------
#psi4
#
memory 32 gb

molecule  {
0 1
  O        2.5396650    -0.5551780     0.7057380
  C        0.3025760    -0.4378200    -0.2720190
  C       -0.0927650     0.9034730    -0.0869930
  C        1.7537560    -0.7902540    -0.4711970
  C       -0.6504930    -1.4595100    -0.1921940
  C       -1.4454780     1.1756780     0.1425470
  C        0.9085990     2.0263450    -0.1815640
  C       -1.8044651    -1.2142629     0.0052645
  C       -2.3931980     0.1517110     0.2151080
  H        1.8374090    -1.8385530    -0.7929100
  H        2.2124050    -0.1698090    -1.2460060
  H       -0.3343640    -2.4925800    -0.3335330
  H       -1.7609160     2.2085530     0.2816270
  H        1.7975830     1.8046110     0.4123870
  H        1.2313290     2.1813940    -1.2178320
  H        0.4699250     2.9630620     0.1727880
  H       -2.7264860    -1.9781040     0.0926730
  H       -3.4380290     0.3918270     0.3981780
  H        2.0803190    -1.0071740     1.4349120
units angstrom
no_reorient  #important for SAPT in psi4, default
symmetry c1  #important for SAPT in psi4, default
}

set PROPERTIES_ORIGIN ["COM"]
properties('MP2/aug-cc-pvtz', properties = ['dipole'])
--------------------------------------------------------------------------

    Molecular point group: c1
  Charge       = 0
  Multiplicity = 1
  Basis Set: AUG-CC-PVTZ
    Blend: AUG-CC-PVTZ
  Basis Set: (AUG-CC-PVTZ AUX)
    Blend: AUG-CC-PVTZ-JKFIT

    Orbital Energies [Eh]
    ---------------------

    Doubly Occupied:

       1A    -20.560492     2A    -11.281849     3A    -11.247980
       4A    -11.244513     5A    -11.236492     6A    -11.234893
       7A    -11.230119     8A    -11.219602     9A    -11.211762
      10A     -1.356819    11A     -1.172801    12A     -1.065100
      13A     -1.029812    14A     -0.956567    15A     -0.898236
      16A     -0.816183    17A     -0.790871    18A     -0.696014
      19A     -0.676954    20A     -0.649034    21A     -0.625154
      22A     -0.604148    23A     -0.599596    24A     -0.570435
      25A     -0.560688    26A     -0.539178    27A     -0.526763
      28A     -0.502614    29A     -0.493737    30A     -0.448506
      31A     -0.446424    32A     -0.362260    33A     -0.313870

  @DF-RHF Final Energy:  -383.69609666107777

   => Energetics <=

    Nuclear Repulsion Energy =            429.4880107922874117
    One-Electron Energy =               -1372.0292839168237151
    Two-Electron Energy =                 558.8451764634585288
    Total Energy =                       -383.6960966610777177
  Basis Set: (AUG-CC-PVTZ AUX)
    Blend: AUG-CC-PVTZ-RI
    Molecular point group: c1

    Geometry (in Angstrom), charge = 0, multiplicity = 1:

       Center              X                  Y                   Z               Mass
    ------------   -----------------  -----------------  -----------------  -----------------
         O            2.531931961570    -0.534400856292     0.702529343121    15.994914619570
         C            0.294842961570    -0.417042856292    -0.275227656879    12.000000000000
         C           -0.100498038430     0.924250143708    -0.090201656879    12.000000000000
         C            1.746022961570    -0.769476856292    -0.474405656879    12.000000000000
         C           -0.658226038430    -1.438732856292    -0.195402656879    12.000000000000
         C           -1.453211038430     1.196455143708     0.139338343121    12.000000000000
         C            0.900865961570     2.047122143708    -0.184772656879    12.000000000000
         C           -1.812198138430    -1.193485756292     0.002055843121    12.000000000000
         C           -2.400931038430     0.172488143708     0.211899343121    12.000000000000
         H            1.829675961570    -1.817775856292    -0.796118656879     1.007825032230
         H            2.204671961570    -0.149031856292    -1.249214656879     1.007825032230
         H           -0.342097038430    -2.471802856292    -0.336741656879     1.007825032230
         H           -1.768649038430     2.229330143708     0.278418343121     1.007825032230
         H            1.789849961570     1.825388143708     0.409178343121     1.007825032230
         H            1.223595961570     2.202171143708    -1.221040656879     1.007825032230
         H            0.462191961570     2.983839143708     0.169579343121     1.007825032230
         H           -2.734219038430    -1.957326856292     0.089464343121     1.007825032230
         H           -3.445762038430     0.412604143708     0.394969343121     1.007825032230
         H            2.072585961570    -0.986396856292     1.431703343121     1.007825032230

  Basis Set: AUG-CC-PVTZ
    Blend: AUG-CC-PVTZ
  Basis Set: (AUG-CC-PVTZ AUX)
    Blend: AUG-CC-PVTZ-JKFIT
	 Reference Energy          =    -383.6960966610777746 [Eh]
	 Singles Energy            =      -0.0000000000000000 [Eh]
	 Same-Spin Energy          =      -0.4132876311808361 [Eh]
	 Opposite-Spin Energy      =      -1.3228240803067284 [Eh]
	 Correlation Energy        =      -1.7361117114875646 [Eh]
	 Total Energy              =    -385.4322083725653556 [Eh]

	 ================> DF-SCS-MP2 Energies <==================
	-----------------------------------------------------------
	 SCS Same-Spin Scale       =       0.3333333333333333 [-]
	 SCS Opposite-Spin Scale   =       1.2000000000000000 [-]
	 SCS Same-Spin Energy      =      -0.1377625437269454 [Eh]
	 SCS Opposite-Spin Energy  =      -1.5873888963680740 [Eh]
	 SCS Correlation Energy    =      -1.7251514400950194 [Eh]
	 SCS Total Energy          =    -385.4212481011728073 [Eh]
	-----------------------------------------------------------

  Dipole Moment: [D]
     X:    -1.1887      Y:    -0.3122      Z:    -0.0973     Total:     1.2329

*** Psi4 exiting successfully. Buy a developer a beer!
