                               Psi4 1.4a3.dev225

  ==> Input File <==

--------------------------------------------------------------------------
#psi4
#
memory 32 gb

molecule  {
0 1
  O        2.5396650    -0.5551780     0.7057380
  C        0.3025760    -0.4378200    -0.2720190
  C       -0.0927650     0.9034730    -0.0869930
  C        1.7263649    -0.7984471    -0.5122165
  C       -0.6504930    -1.4595100    -0.1921940
  C       -1.4454780     1.1756780     0.1425470
  C        0.9085990     2.0263450    -0.1815640
  C       -1.9974120    -1.1732570     0.0382800
  C       -2.3931980     0.1517110     0.2151080
  H        1.8374090    -1.8385530    -0.7929100
  H        2.2124050    -0.1698090    -1.2460060
  H       -0.3343640    -2.4925800    -0.3335330
  H       -1.7609160     2.2085530     0.2816270
  H        1.7975830     1.8046110     0.4123870
  H        1.2313290     2.1813940    -1.2178320
  H        0.4699250     2.9630620     0.1727880
  H       -2.7264860    -1.9781040     0.0926730
  H       -3.4380290     0.3918270     0.3981780
  H        2.0803190    -1.0071740     1.4349120
units angstrom
no_reorient  #important for SAPT in psi4, default
symmetry c1  #important for SAPT in psi4, default
}

set PROPERTIES_ORIGIN ["COM"]
properties('MP2/aug-cc-pvtz', properties = ['dipole'])
--------------------------------------------------------------------------

    Molecular point group: c1
  Charge       = 0
  Multiplicity = 1
  Basis Set: AUG-CC-PVTZ
    Blend: AUG-CC-PVTZ
  Basis Set: (AUG-CC-PVTZ AUX)
    Blend: AUG-CC-PVTZ-JKFIT

    Orbital Energies [Eh]
    ---------------------

    Doubly Occupied:

       1A    -20.555542     2A    -11.282275     3A    -11.247119
       4A    -11.241078     5A    -11.239684     6A    -11.238912
       7A    -11.235858     8A    -11.234370     9A    -11.219972
      10A     -1.338679    11A     -1.159049    12A     -1.050791
      13A     -1.035647    14A     -0.945636    15A     -0.910334
      16A     -0.819672    17A     -0.792605    18A     -0.697233
      19A     -0.674515    20A     -0.643669    21A     -0.623868
      22A     -0.597728    23A     -0.584309    24A     -0.573819
      25A     -0.566570    26A     -0.544624    27A     -0.526746
      28A     -0.495593    29A     -0.487734    30A     -0.480422
      31A     -0.451580    32A     -0.338120    33A     -0.326170

  @DF-RHF Final Energy:  -383.75680155771784

   => Energetics <=

    Nuclear Repulsion Energy =            426.6646961007956520
    One-Electron Energy =               -1366.5231433352785189
    Two-Electron Energy =                 556.1016456767649743
    Total Energy =                       -383.7568015577178357
  Basis Set: (AUG-CC-PVTZ AUX)
    Blend: AUG-CC-PVTZ-RI
    Molecular point group: c1

    Geometry (in Angstrom), charge = 0, multiplicity = 1:

       Center              X                  Y                   Z               Mass
    ------------   -----------------  -----------------  -----------------  -----------------
         O            2.553591562197    -0.537626410411     0.703316149952    15.994914619570
         C            0.316502562197    -0.420268410411    -0.274440850048    12.000000000000
         C           -0.078838437803     0.921024589589    -0.089414850048    12.000000000000
         C            1.740291462197    -0.780895510411    -0.514638350048    12.000000000000
         C           -0.636566437803    -1.441958410411    -0.194615850048    12.000000000000
         C           -1.431551437803     1.193229589589     0.140125149952    12.000000000000
         C            0.922525562197     2.043896589589    -0.183985850048    12.000000000000
         C           -1.983485437803    -1.155705410411     0.035858149952    12.000000000000
         C           -2.379271437803     0.169262589589     0.212686149952    12.000000000000
         H            1.851335562197    -1.821001410411    -0.795331850048     1.007825032230
         H            2.226331562197    -0.152257410411    -1.248427850048     1.007825032230
         H           -0.320437437803    -2.475028410411    -0.335954850048     1.007825032230
         H           -1.746989437803     2.226104589589     0.279205149952     1.007825032230
         H            1.811509562197     1.822162589589     0.409965149952     1.007825032230
         H            1.245255562197     2.198945589589    -1.220253850048     1.007825032230
         H            0.483851562197     2.980613589589     0.170366149952     1.007825032230
         H           -2.712559437803    -1.960552410411     0.090251149952     1.007825032230
         H           -3.424102437803     0.409378589589     0.395756149952     1.007825032230
         H            2.094245562197    -0.989622410411     1.432490149952     1.007825032230

  Basis Set: AUG-CC-PVTZ
    Blend: AUG-CC-PVTZ
  Basis Set: (AUG-CC-PVTZ AUX)
    Blend: AUG-CC-PVTZ-JKFIT
	 Reference Energy          =    -383.7568015577178357 [Eh]
	 Singles Energy            =      -0.0000000000000000 [Eh]
	 Same-Spin Energy          =      -0.4134304774152240 [Eh]
	 Opposite-Spin Energy      =      -1.3217597795995897 [Eh]
	 Correlation Energy        =      -1.7351902570148137 [Eh]
	 Total Energy              =    -385.4919918147326712 [Eh]

	 ================> DF-SCS-MP2 Energies <==================
	-----------------------------------------------------------
	 SCS Same-Spin Scale       =       0.3333333333333333 [-]
	 SCS Opposite-Spin Scale   =       1.2000000000000000 [-]
	 SCS Same-Spin Energy      =      -0.1378101591384080 [Eh]
	 SCS Opposite-Spin Energy  =      -1.5861117355195076 [Eh]
	 SCS Correlation Energy    =      -1.7239218946579156 [Eh]
	 SCS Total Energy          =    -385.4807234523757415 [Eh]
	-----------------------------------------------------------

  Dipole Moment: [D]
     X:    -1.3240      Y:    -0.4122      Z:    -0.2383     Total:     1.4070

*** Psi4 exiting successfully. Buy a developer a beer!
