                               Psi4 1.4a3.dev225

  ==> Input File <==

--------------------------------------------------------------------------
#psi4
#
memory 32 gb

molecule  {
0 1
  O        2.5396650    -0.5551780     0.7057380
  C        0.3025760    -0.4378200    -0.2720190
  C       -0.0927650     0.9034730    -0.0869930
  C        1.7537560    -0.7902540    -0.4711970
  C       -0.6504930    -1.4595100    -0.1921940
  C       -1.4454780     1.1756780     0.1425470
  C        0.9085990     2.0263450    -0.1815640
  C       -1.9974120    -1.1732570     0.0382800
  C       -2.3931980     0.1517110     0.2151080
  H        1.8374090    -1.8385530    -0.7929100
  H        2.2124050    -0.1698090    -1.2460060
  H       -0.3343640    -2.4925800    -0.3335330
  H       -1.7609160     2.2085530     0.2816270
  H        1.7975830     1.8046110     0.4123870
  H        1.2313290     2.1813940    -1.2178320
  H        0.5100466     2.8773889     0.1403786
  H       -2.7264860    -1.9781040     0.0926730
  H       -3.4380290     0.3918270     0.3981780
  H        2.0803190    -1.0071740     1.4349120
units angstrom
no_reorient  #important for SAPT in psi4, default
symmetry c1  #important for SAPT in psi4, default
}

set PROPERTIES_ORIGIN ["COM"]
properties('MP2/aug-cc-pvtz', properties = ['dipole'])
--------------------------------------------------------------------------

    Molecular point group: c1
  Charge       = 0
  Multiplicity = 1
  Basis Set: AUG-CC-PVTZ
    Blend: AUG-CC-PVTZ
  Basis Set: (AUG-CC-PVTZ AUX)
    Blend: AUG-CC-PVTZ-JKFIT

    Orbital Energies [Eh]
    ---------------------

    Doubly Occupied:

       1A    -20.560442     2A    -11.282223     3A    -11.245122
       4A    -11.239762     5A    -11.238643     6A    -11.237513
       7A    -11.234904     8A    -11.233476     9A    -11.207432
      10A     -1.356827    11A     -1.157455    12A     -1.051028
      13A     -1.033185    14A     -0.949221    15A     -0.909987
      16A     -0.819596    17A     -0.793269    18A     -0.700642
      19A     -0.676395    20A     -0.644375    21A     -0.627634
      22A     -0.604719    23A     -0.586333    24A     -0.572572
      25A     -0.568412    26A     -0.557693    27A     -0.527895
      28A     -0.494531    29A     -0.487805    30A     -0.477672
      31A     -0.447157    32A     -0.337359    33A     -0.325269

  @DF-RHF Final Energy:  -383.75366913280595

   => Energetics <=

    Nuclear Repulsion Energy =            427.3945296992472436
    One-Electron Energy =               -1367.9233055400316061
    Two-Electron Energy =                 556.7751067079784661
    Total Energy =                       -383.7536691328059533
  Basis Set: (AUG-CC-PVTZ AUX)
    Blend: AUG-CC-PVTZ-RI
    Molecular point group: c1

    Geometry (in Angstrom), charge = 0, multiplicity = 1:

       Center              X                  Y                   Z               Mass
    ------------   -----------------  -----------------  -----------------  -----------------
         O            2.550567730113    -0.537724496712     0.699551432329    15.994914619570
         C            0.313478730113    -0.420366496712    -0.278205567671    12.000000000000
         C           -0.081862269887     0.920926503288    -0.093179567671    12.000000000000
         C            1.764658730113    -0.772800496712    -0.477383567671    12.000000000000
         C           -0.639590269887    -1.442056496712    -0.198380567671    12.000000000000
         C           -1.434575269887     1.193131503288     0.136360432329    12.000000000000
         C            0.919501730113     2.043798503288    -0.187750567671    12.000000000000
         C           -1.986509269887    -1.155803496712     0.032093432329    12.000000000000
         C           -2.382295269887     0.169164503288     0.208921432329    12.000000000000
         H            1.848311730113    -1.821099496712    -0.799096567671     1.007825032230
         H            2.223307730113    -0.152355496712    -1.252192567671     1.007825032230
         H           -0.323461269887    -2.475126496712    -0.339719567671     1.007825032230
         H           -1.750013269887     2.226006503288     0.275440432329     1.007825032230
         H            1.808485730113     1.822064503288     0.406200432329     1.007825032230
         H            1.242231730113     2.198847503288    -1.224018567671     1.007825032230
         H            0.520949330113     2.894842403288     0.134192032329     1.007825032230
         H           -2.715583269887    -1.960650496712     0.086486432329     1.007825032230
         H           -3.427126269887     0.409280503288     0.391991432329     1.007825032230
         H            2.091221730113    -0.989720496712     1.428725432329     1.007825032230

  Basis Set: AUG-CC-PVTZ
    Blend: AUG-CC-PVTZ
  Basis Set: (AUG-CC-PVTZ AUX)
    Blend: AUG-CC-PVTZ-JKFIT
	 Reference Energy          =    -383.7536691328059533 [Eh]
	 Singles Energy            =      -0.0000000000000000 [Eh]
	 Same-Spin Energy          =      -0.4131651958180536 [Eh]
	 Opposite-Spin Energy      =      -1.3201849097292029 [Eh]
	 Correlation Energy        =      -1.7333501055472564 [Eh]
	 Total Energy              =    -385.4870192383531844 [Eh]

	 ================> DF-SCS-MP2 Energies <==================
	-----------------------------------------------------------
	 SCS Same-Spin Scale       =       0.3333333333333333 [-]
	 SCS Opposite-Spin Scale   =       1.2000000000000000 [-]
	 SCS Same-Spin Energy      =      -0.1377217319393512 [Eh]
	 SCS Opposite-Spin Energy  =      -1.5842218916750435 [Eh]
	 SCS Correlation Energy    =      -1.7219436236143946 [Eh]
	 SCS Total Energy          =    -385.4756127564203325 [Eh]
	-----------------------------------------------------------

  Dipole Moment: [D]
     X:    -1.2036      Y:    -0.3460      Z:    -0.0928     Total:     1.2558

*** Psi4 exiting successfully. Buy a developer a beer!
