                               Psi4 1.4a3.dev225

  ==> Input File <==

--------------------------------------------------------------------------
#psi4
#
memory 32 gb

molecule  {
0 1
  O        2.5396650    -0.5551780     0.7057380
  C        0.3025760    -0.4378200    -0.2720190
  C       -0.1299385     0.7619287    -0.0915130
  C        1.7537560    -0.7902540    -0.4711970
  C       -0.6504930    -1.4595100    -0.1921940
  C       -1.4454780     1.1756780     0.1425470
  C        0.9085990     2.0263450    -0.1815640
  C       -1.9974120    -1.1732570     0.0382800
  C       -2.3931980     0.1517110     0.2151080
  H        1.8374090    -1.8385530    -0.7929100
  H        2.2124050    -0.1698090    -1.2460060
  H       -0.3343640    -2.4925800    -0.3335330
  H       -1.7609160     2.2085530     0.2816270
  H        1.7975830     1.8046110     0.4123870
  H        1.2313290     2.1813940    -1.2178320
  H        0.4699250     2.9630620     0.1727880
  H       -2.7264860    -1.9781040     0.0926730
  H       -3.4380290     0.3918270     0.3981780
  H        2.0803190    -1.0071740     1.4349120
units angstrom
no_reorient  #important for SAPT in psi4, default
symmetry c1  #important for SAPT in psi4, default
}

set PROPERTIES_ORIGIN ["COM"]
properties('MP2/aug-cc-pvtz', properties = ['dipole'])
--------------------------------------------------------------------------

    Molecular point group: c1
  Charge       = 0
  Multiplicity = 1
  Basis Set: AUG-CC-PVTZ
    Blend: AUG-CC-PVTZ
  Basis Set: (AUG-CC-PVTZ AUX)
    Blend: AUG-CC-PVTZ-JKFIT

    Orbital Energies [Eh]
    ---------------------

    Doubly Occupied:

       1A    -20.561715     2A    -11.284560     3A    -11.240860
       4A    -11.238906     5A    -11.237525     6A    -11.235036
       7A    -11.234719     8A    -11.224491     9A    -11.220399
      10A     -1.358134    11A     -1.171741    12A     -1.051782
      13A     -1.025345    14A     -0.932449    15A     -0.912889
      16A     -0.836162    17A     -0.788960    18A     -0.701943
      19A     -0.680669    20A     -0.640725    21A     -0.623451
      22A     -0.607797    23A     -0.599181    24A     -0.564322
      25A     -0.558923    26A     -0.536918    27A     -0.525131
      28A     -0.501093    29A     -0.496640    30A     -0.462032
      31A     -0.438160    32A     -0.345565    33A     -0.332052

  @DF-RHF Final Energy:  -383.73593254509768

   => Energetics <=

    Nuclear Repulsion Energy =            428.3961027570481974
    One-Electron Energy =               -1369.9235218208987135
    Two-Electron Energy =                 557.7914865187528903
    Total Energy =                       -383.7359325450976257
  Basis Set: (AUG-CC-PVTZ AUX)
    Blend: AUG-CC-PVTZ-RI
    Molecular point group: c1

    Geometry (in Angstrom), charge = 0, multiplicity = 1:

       Center              X                  Y                   Z               Mass
    ------------   -----------------  -----------------  -----------------  -----------------
         O            2.554553188776    -0.524517760359     0.699728186945    15.994914619570
         C            0.317464188776    -0.407159760359    -0.278028813055    12.000000000000
         C           -0.115050311224     0.792588939641    -0.097522813055    12.000000000000
         C            1.768644188776    -0.759593760359    -0.477206813055    12.000000000000
         C           -0.635604811224    -1.428849760359    -0.198203813055    12.000000000000
         C           -1.430589811224     1.206338239641     0.136537186945    12.000000000000
         C            0.923487188776     2.057005239641    -0.187573813055    12.000000000000
         C           -1.982523811224    -1.142596760359     0.032270186945    12.000000000000
         C           -2.378309811224     0.182371239641     0.209098186945    12.000000000000
         H            1.852297188776    -1.807892760359    -0.798919813055     1.007825032230
         H            2.227293188776    -0.139148760359    -1.252015813055     1.007825032230
         H           -0.319475811224    -2.461919760359    -0.339542813055     1.007825032230
         H           -1.746027811224     2.239213239641     0.275617186945     1.007825032230
         H            1.812471188776     1.835271239641     0.406377186945     1.007825032230
         H            1.246217188776     2.212054239641    -1.223841813055     1.007825032230
         H            0.484813188776     2.993722239641     0.166778186945     1.007825032230
         H           -2.711597811224    -1.947443760359     0.086663186945     1.007825032230
         H           -3.423140811224     0.422487239641     0.392168186945     1.007825032230
         H            2.095207188776    -0.976513760359     1.428902186945     1.007825032230

  Basis Set: AUG-CC-PVTZ
    Blend: AUG-CC-PVTZ
  Basis Set: (AUG-CC-PVTZ AUX)
    Blend: AUG-CC-PVTZ-JKFIT
	 Reference Energy          =    -383.7359325450976826 [Eh]
	 Singles Energy            =      -0.0000000000000000 [Eh]
	 Same-Spin Energy          =      -0.4127109866504972 [Eh]
	 Opposite-Spin Energy      =      -1.3208075008835207 [Eh]
	 Correlation Energy        =      -1.7335184875340179 [Eh]
	 Total Energy              =    -385.4694510326316959 [Eh]

	 ================> DF-SCS-MP2 Energies <==================
	-----------------------------------------------------------
	 SCS Same-Spin Scale       =       0.3333333333333333 [-]
	 SCS Opposite-Spin Scale   =       1.2000000000000000 [-]
	 SCS Same-Spin Energy      =      -0.1375703288834990 [Eh]
	 SCS Opposite-Spin Energy  =      -1.5849690010602249 [Eh]
	 SCS Correlation Energy    =      -1.7225393299437239 [Eh]
	 SCS Total Energy          =    -385.4584718750414254 [Eh]
	-----------------------------------------------------------

  Dipole Moment: [D]
     X:    -1.3338      Y:    -0.5326      Z:    -0.0755     Total:     1.4382

*** Psi4 exiting successfully. Buy a developer a beer!
