                               Psi4 1.4a3.dev225

  ==> Input File <==

--------------------------------------------------------------------------
#psi4
#
memory 32 gb

molecule  {
0 1
  O        2.5396650    -0.5551780     0.7057380
  C        0.3025760    -0.4378200    -0.2720190
  C       -0.0787511     0.8559273    -0.0935517
  C        1.7537560    -0.7902540    -0.4711970
  C       -0.6504930    -1.4595100    -0.1921940
  C       -1.4454780     1.1756780     0.1425470
  C        0.9085990     2.0263450    -0.1815640
  C       -1.9974120    -1.1732570     0.0382800
  C       -2.3931980     0.1517110     0.2151080
  H        1.8374090    -1.8385530    -0.7929100
  H        2.2124050    -0.1698090    -1.2460060
  H       -0.3343640    -2.4925800    -0.3335330
  H       -1.7609160     2.2085530     0.2816270
  H        1.7975830     1.8046110     0.4123870
  H        1.2313290     2.1813940    -1.2178320
  H        0.4699250     2.9630620     0.1727880
  H       -2.7264860    -1.9781040     0.0926730
  H       -3.4380290     0.3918270     0.3981780
  H        2.0803190    -1.0071740     1.4349120
units angstrom
no_reorient  #important for SAPT in psi4, default
symmetry c1  #important for SAPT in psi4, default
}

set PROPERTIES_ORIGIN ["COM"]
properties('MP2/aug-cc-pvtz', properties = ['dipole'])
--------------------------------------------------------------------------

    Molecular point group: c1
  Charge       = 0
  Multiplicity = 1
  Basis Set: AUG-CC-PVTZ
    Blend: AUG-CC-PVTZ
  Basis Set: (AUG-CC-PVTZ AUX)
    Blend: AUG-CC-PVTZ-JKFIT

    Orbital Energies [Eh]
    ---------------------

    Doubly Occupied:

       1A    -20.560944     2A    -11.282523     3A    -11.244012
       4A    -11.240227     5A    -11.238600     6A    -11.236247
       7A    -11.235167     8A    -11.232742     9A    -11.220323
      10A     -1.357398    11A     -1.160460    12A     -1.050321
      13A     -1.029380    14A     -0.940846    15A     -0.909345
      16A     -0.825697    17A     -0.789111    18A     -0.700593
      19A     -0.676228    20A     -0.643352    21A     -0.624908
      22A     -0.605836    23A     -0.589636    24A     -0.569486
      25A     -0.566439    26A     -0.543210    27A     -0.523447
      28A     -0.498853    29A     -0.489647    30A     -0.474333
      31A     -0.446407    32A     -0.338334    33A     -0.327725

  @DF-RHF Final Energy:  -383.75706163335042

   => Energetics <=

    Nuclear Repulsion Energy =            427.3475647550835674
    One-Electron Energy =               -1367.8656950266272361
    Two-Electron Energy =                 556.7610686381932510
    Total Energy =                       -383.7570616333504177
  Basis Set: (AUG-CC-PVTZ AUX)
    Blend: AUG-CC-PVTZ-RI
    Molecular point group: c1

    Geometry (in Angstrom), charge = 0, multiplicity = 1:

       Center              X                  Y                   Z               Mass
    ------------   -----------------  -----------------  -----------------  -----------------
         O            2.549521380186    -0.533757982815     0.699928594626    15.994914619570
         C            0.312432380186    -0.416399982815    -0.277828405374    12.000000000000
         C           -0.068894719814     0.877347317185    -0.099361105374    12.000000000000
         C            1.763612380186    -0.768833982815    -0.477006405374    12.000000000000
         C           -0.640636619814    -1.438089982815    -0.198003405374    12.000000000000
         C           -1.435621619814     1.197098017185     0.136737594626    12.000000000000
         C            0.918455380186     2.047765017185    -0.187373405374    12.000000000000
         C           -1.987555619814    -1.151836982815     0.032470594626    12.000000000000
         C           -2.383341619814     0.173131017185     0.209298594626    12.000000000000
         H            1.847265380186    -1.817132982815    -0.798719405374     1.007825032230
         H            2.222261380186    -0.148388982815    -1.251815405374     1.007825032230
         H           -0.324507619814    -2.471159982815    -0.339342405374     1.007825032230
         H           -1.751059619814     2.229973017185     0.275817594626     1.007825032230
         H            1.807439380186     1.826031017185     0.406577594626     1.007825032230
         H            1.241185380186     2.202814017185    -1.223641405374     1.007825032230
         H            0.479781380186     2.984482017185     0.166978594626     1.007825032230
         H           -2.716629619814    -1.956683982815     0.086863594626     1.007825032230
         H           -3.428172619814     0.413247017185     0.392368594626     1.007825032230
         H            2.090175380186    -0.985753982815     1.429102594626     1.007825032230

  Basis Set: AUG-CC-PVTZ
    Blend: AUG-CC-PVTZ
  Basis Set: (AUG-CC-PVTZ AUX)
    Blend: AUG-CC-PVTZ-JKFIT
	 Reference Energy          =    -383.7570616333504177 [Eh]
	 Singles Energy            =      -0.0000000000000000 [Eh]
	 Same-Spin Energy          =      -0.4129937413772149 [Eh]
	 Opposite-Spin Energy      =      -1.3206369596221121 [Eh]
	 Correlation Energy        =      -1.7336307009993270 [Eh]
	 Total Energy              =    -385.4906923343497169 [Eh]

	 ================> DF-SCS-MP2 Energies <==================
	-----------------------------------------------------------
	 SCS Same-Spin Scale       =       0.3333333333333333 [-]
	 SCS Opposite-Spin Scale   =       1.2000000000000000 [-]
	 SCS Same-Spin Energy      =      -0.1376645804590716 [Eh]
	 SCS Opposite-Spin Energy  =      -1.5847643515465346 [Eh]
	 SCS Correlation Energy    =      -1.7224289320056063 [Eh]
	 SCS Total Energy          =    -385.4794905653560022 [Eh]
	-----------------------------------------------------------

  Dipole Moment: [D]
     X:    -1.2349      Y:    -0.4131      Z:    -0.0937     Total:     1.3055

*** Psi4 exiting successfully. Buy a developer a beer!
