                               Psi4 1.4a3.dev225

  ==> Input File <==

--------------------------------------------------------------------------
#psi4
#
memory 32 gb

molecule  {
0 1
  O        2.5396650    -0.5551780     0.7057380
  C        0.3025760    -0.4378200    -0.2720190
  C       -0.0927650     0.9034730    -0.0869930
  C        1.7537560    -0.7902540    -0.4711970
  C       -0.6504930    -1.4595100    -0.1921940
  C       -1.4261368     1.1717860     0.1392650
  C        0.9085990     2.0263450    -0.1815640
  C       -1.9974120    -1.1732570     0.0382800
  C       -2.3931980     0.1517110     0.2151080
  H        1.8374090    -1.8385530    -0.7929100
  H        2.2124050    -0.1698090    -1.2460060
  H       -0.3343640    -2.4925800    -0.3335330
  H       -1.7609160     2.2085530     0.2816270
  H        1.7975830     1.8046110     0.4123870
  H        1.2313290     2.1813940    -1.2178320
  H        0.4699250     2.9630620     0.1727880
  H       -2.7264860    -1.9781040     0.0926730
  H       -3.4380290     0.3918270     0.3981780
  H        2.0803190    -1.0071740     1.4349120
units angstrom
no_reorient  #important for SAPT in psi4, default
symmetry c1  #important for SAPT in psi4, default
}

set PROPERTIES_ORIGIN ["COM"]
properties('MP2/aug-cc-pvtz', properties = ['dipole'])
--------------------------------------------------------------------------

    Molecular point group: c1
  Charge       = 0
  Multiplicity = 1
  Basis Set: AUG-CC-PVTZ
    Blend: AUG-CC-PVTZ
  Basis Set: (AUG-CC-PVTZ AUX)
    Blend: AUG-CC-PVTZ-JKFIT

    Orbital Energies [Eh]
    ---------------------

    Doubly Occupied:

       1A    -20.560974     2A    -11.282797     3A    -11.243447
       4A    -11.240082     5A    -11.239756     6A    -11.238457
       7A    -11.235338     8A    -11.233251     9A    -11.219517
      10A     -1.357371    11A     -1.158815    12A     -1.049773
      13A     -1.032602    14A     -0.942902    15A     -0.909619
      16A     -0.817520    17A     -0.793486    18A     -0.700912
      19A     -0.674520    20A     -0.645448    21A     -0.624082
      22A     -0.604628    23A     -0.586597    24A     -0.573234
      25A     -0.568800    26A     -0.543506    27A     -0.526832
      28A     -0.493274    29A     -0.488412    30A     -0.477339
      31A     -0.448015    32A     -0.337171    33A     -0.327165

  @DF-RHF Final Energy:  -383.75920906816600

   => Energetics <=

    Nuclear Repulsion Energy =            427.1712303307731418
    One-Electron Energy =               -1367.5095899382924927
    Two-Electron Energy =                 556.5791505393533498
    Total Energy =                       -383.7592090681660011
  Basis Set: (AUG-CC-PVTZ AUX)
    Blend: AUG-CC-PVTZ-RI
    Molecular point group: c1

    Geometry (in Angstrom), charge = 0, multiplicity = 1:

       Center              X                  Y                   Z               Mass
    ------------   -----------------  -----------------  -----------------  -----------------
         O            2.548997697524    -0.538049215866     0.699606489436    15.994914619570
         C            0.311908697524    -0.420691215866    -0.278150510564    12.000000000000
         C           -0.083432302476     0.920601784134    -0.093124510564    12.000000000000
         C            1.763088697524    -0.773125215866    -0.477328510564    12.000000000000
         C           -0.641160302476    -1.442381215866    -0.198325510564    12.000000000000
         C           -1.416804102476     1.188914784134     0.133133489436    12.000000000000
         C            0.917931697524     2.043473784134    -0.187695510564    12.000000000000
         C           -1.988079302476    -1.156128215866     0.032148489436    12.000000000000
         C           -2.383865302476     0.168839784134     0.208976489436    12.000000000000
         H            1.846741697524    -1.821424215866    -0.799041510564     1.007825032230
         H            2.221737697524    -0.152680215866    -1.252137510564     1.007825032230
         H           -0.325031302476    -2.475451215866    -0.339664510564     1.007825032230
         H           -1.751583302476     2.225681784134     0.275495489436     1.007825032230
         H            1.806915697524     1.821739784134     0.406255489436     1.007825032230
         H            1.240661697524     2.198522784134    -1.223963510564     1.007825032230
         H            0.479257697524     2.980190784134     0.166656489436     1.007825032230
         H           -2.717153302476    -1.960975215866     0.086541489436     1.007825032230
         H           -3.428696302476     0.408955784134     0.392046489436     1.007825032230
         H            2.089651697524    -0.990045215866     1.428780489436     1.007825032230

  Basis Set: AUG-CC-PVTZ
    Blend: AUG-CC-PVTZ
  Basis Set: (AUG-CC-PVTZ AUX)
    Blend: AUG-CC-PVTZ-JKFIT
	 Reference Energy          =    -383.7592090681660011 [Eh]
	 Singles Energy            =      -0.0000000000000000 [Eh]
	 Same-Spin Energy          =      -0.4131499979182481 [Eh]
	 Opposite-Spin Energy      =      -1.3207823545873272 [Eh]
	 Correlation Energy        =      -1.7339323525055752 [Eh]
	 Total Energy              =    -385.4931414206715772 [Eh]

	 ================> DF-SCS-MP2 Energies <==================
	-----------------------------------------------------------
	 SCS Same-Spin Scale       =       0.3333333333333333 [-]
	 SCS Opposite-Spin Scale   =       1.2000000000000000 [-]
	 SCS Same-Spin Energy      =      -0.1377166659727493 [Eh]
	 SCS Opposite-Spin Energy  =      -1.5849388255047925 [Eh]
	 SCS Correlation Energy    =      -1.7226554914775418 [Eh]
	 SCS Total Energy          =    -385.4818645596435545 [Eh]
	-----------------------------------------------------------

  Dipole Moment: [D]
     X:    -1.2107      Y:    -0.4141      Z:    -0.1019     Total:     1.2836

*** Psi4 exiting successfully. Buy a developer a beer!
