                               Psi4 1.4a3.dev225

  ==> Input File <==

--------------------------------------------------------------------------
#psi4
#
memory 32 gb

molecule  {
0 1
  O        2.5396650    -0.5551780     0.7057380
  C        0.3025760    -0.4378200    -0.2720190
  C       -0.0927650     0.9034730    -0.0869930
  C        1.7537560    -0.7902540    -0.4711970
  C       -0.6504930    -1.4595100    -0.1921940
  C       -1.4454780     1.1756780     0.1425470
  C        0.9085990     2.0263450    -0.1815640
  C       -1.9974120    -1.1732570     0.0382800
  C       -2.3931980     0.1517110     0.2151080
  H        1.8374090    -1.8385530    -0.7929100
  H        2.2333775    -0.1414381    -1.2814355
  H       -0.3343640    -2.4925800    -0.3335330
  H       -1.7609160     2.2085530     0.2816270
  H        1.7975830     1.8046110     0.4123870
  H        1.2313290     2.1813940    -1.2178320
  H        0.4699250     2.9630620     0.1727880
  H       -2.7264860    -1.9781040     0.0926730
  H       -3.4380290     0.3918270     0.3981780
  H        2.0803190    -1.0071740     1.4349120
units angstrom
no_reorient  #important for SAPT in psi4, default
symmetry c1  #important for SAPT in psi4, default
}

set PROPERTIES_ORIGIN ["COM"]
properties('MP2/aug-cc-pvtz', properties = ['dipole'])
--------------------------------------------------------------------------

    Molecular point group: c1
  Charge       = 0
  Multiplicity = 1
  Basis Set: AUG-CC-PVTZ
    Blend: AUG-CC-PVTZ
  Basis Set: (AUG-CC-PVTZ AUX)
    Blend: AUG-CC-PVTZ-JKFIT

    Orbital Energies [Eh]
    ---------------------

    Doubly Occupied:

       1A    -20.561668     2A    -11.288728     3A    -11.246018
       4A    -11.240480     5A    -11.238940     6A    -11.238595
       7A    -11.235383     8A    -11.233688     9A    -11.219730
      10A     -1.357750    11A     -1.157724    12A     -1.049190
      13A     -1.032515    14A     -0.942752    15A     -0.905675
      16A     -0.818291    17A     -0.791251    18A     -0.700580
      19A     -0.674917    20A     -0.644897    21A     -0.624835
      22A     -0.603020    23A     -0.585893    24A     -0.572778
      25A     -0.568471    26A     -0.542237    27A     -0.525188
      28A     -0.493701    29A     -0.488274    30A     -0.476015
      31A     -0.447973    32A     -0.337682    33A     -0.325741

  @DF-RHF Final Energy:  -383.75733835499165

   => Energetics <=

    Nuclear Repulsion Energy =            426.6719021711897426
    One-Electron Energy =               -1366.5173248567807605
    Two-Electron Energy =                 556.0880843305993722
    Total Energy =                       -383.7573383549917025
  Basis Set: (AUG-CC-PVTZ AUX)
    Blend: AUG-CC-PVTZ-RI
    Molecular point group: c1

    Geometry (in Angstrom), charge = 0, multiplicity = 1:

       Center              X                  Y                   Z               Mass
    ------------   -----------------  -----------------  -----------------  -----------------
         O            2.550725823354    -0.538666033683     0.699576366002    15.994914619570
         C            0.313636823354    -0.421308033683    -0.278180633998    12.000000000000
         C           -0.081704176646     0.919984966317    -0.093154633998    12.000000000000
         C            1.764816823354    -0.773742033683    -0.477358633998    12.000000000000
         C           -0.639432176646    -1.442998033683    -0.198355633998    12.000000000000
         C           -1.434417176646     1.192189966317     0.136385366002    12.000000000000
         C            0.919659823354     2.042856966317    -0.187725633998    12.000000000000
         C           -1.986351176646    -1.156745033683     0.032118366002    12.000000000000
         C           -2.382137176646     0.168222966317     0.208946366002    12.000000000000
         H            1.848469823354    -1.822041033683    -0.799071633998     1.007825032230
         H            2.244438323354    -0.124926133683    -1.287597133998     1.007825032230
         H           -0.323303176646    -2.476068033683    -0.339694633998     1.007825032230
         H           -1.749855176646     2.225064966317     0.275465366002     1.007825032230
         H            1.808643823354     1.821122966317     0.406225366002     1.007825032230
         H            1.242389823354     2.197905966317    -1.223993633998     1.007825032230
         H            0.480985823354     2.979573966317     0.166626366002     1.007825032230
         H           -2.715425176646    -1.961592033683     0.086511366002     1.007825032230
         H           -3.426968176646     0.408338966317     0.392016366002     1.007825032230
         H            2.091379823354    -0.990662033683     1.428750366002     1.007825032230

  Basis Set: AUG-CC-PVTZ
    Blend: AUG-CC-PVTZ
  Basis Set: (AUG-CC-PVTZ AUX)
    Blend: AUG-CC-PVTZ-JKFIT
	 Reference Energy          =    -383.7573383549916457 [Eh]
	 Singles Energy            =      -0.0000000000000000 [Eh]
	 Same-Spin Energy          =      -0.4132670405865265 [Eh]
	 Opposite-Spin Energy      =      -1.3211934833780321 [Eh]
	 Correlation Energy        =      -1.7344605239645587 [Eh]
	 Total Energy              =    -385.4917988789562173 [Eh]

	 ================> DF-SCS-MP2 Energies <==================
	-----------------------------------------------------------
	 SCS Same-Spin Scale       =       0.3333333333333333 [-]
	 SCS Opposite-Spin Scale   =       1.2000000000000000 [-]
	 SCS Same-Spin Energy      =      -0.1377556801955088 [Eh]
	 SCS Opposite-Spin Energy  =      -1.5854321800536384 [Eh]
	 SCS Correlation Energy    =      -1.7231878602491473 [Eh]
	 SCS Total Energy          =    -385.4805262152407863 [Eh]
	-----------------------------------------------------------

  Dipole Moment: [D]
     X:    -1.2168      Y:    -0.4078      Z:    -0.0791     Total:     1.2858

*** Psi4 exiting successfully. Buy a developer a beer!
