                               Psi4 1.4a3.dev225

  ==> Input File <==

--------------------------------------------------------------------------
#psi4
#
memory 32 gb

molecule  {
0 1
  O        2.5396650    -0.5551780     0.7057380
  C        0.3025760    -0.4378200    -0.2720190
  C       -0.0927650     0.9034730    -0.0869930
  C        1.7537560    -0.7902540    -0.4711970
  C       -0.6327160    -1.3638646    -0.1864939
  C       -1.4454780     1.1756780     0.1425470
  C        0.9085990     2.0263450    -0.1815640
  C       -1.9974120    -1.1732570     0.0382800
  C       -2.3931980     0.1517110     0.2151080
  H        1.8374090    -1.8385530    -0.7929100
  H        2.2124050    -0.1698090    -1.2460060
  H       -0.3343640    -2.4925800    -0.3335330
  H       -1.7609160     2.2085530     0.2816270
  H        1.7975830     1.8046110     0.4123870
  H        1.2313290     2.1813940    -1.2178320
  H        0.4699250     2.9630620     0.1727880
  H       -2.7264860    -1.9781040     0.0926730
  H       -3.4380290     0.3918270     0.3981780
  H        2.0803190    -1.0071740     1.4349120
units angstrom
no_reorient  #important for SAPT in psi4, default
symmetry c1  #important for SAPT in psi4, default
}

set PROPERTIES_ORIGIN ["COM"]
properties('MP2/aug-cc-pvtz', properties = ['dipole'])
--------------------------------------------------------------------------

    Molecular point group: c1
  Charge       = 0
  Multiplicity = 1
  Basis Set: AUG-CC-PVTZ
    Blend: AUG-CC-PVTZ
  Basis Set: (AUG-CC-PVTZ AUX)
    Blend: AUG-CC-PVTZ-JKFIT

    Orbital Energies [Eh]
    ---------------------

    Doubly Occupied:

       1A    -20.561910     2A    -11.283922     3A    -11.246692
       4A    -11.238872     5A    -11.238525     6A    -11.234440
       7A    -11.231251     8A    -11.229203     9A    -11.219807
      10A     -1.358304    11A     -1.167170    12A     -1.050627
      13A     -1.037579    14A     -0.942095    15A     -0.913807
      16A     -0.810945    17A     -0.798828    18A     -0.704758
      19A     -0.671590    20A     -0.647560    21A     -0.622768
      22A     -0.607488    23A     -0.584163    24A     -0.570221
      25A     -0.568015    26A     -0.542897    27A     -0.527676
      28A     -0.494384    29A     -0.486501    30A     -0.478158
      31A     -0.446002    32A     -0.346459    33A     -0.324062

  @DF-RHF Final Energy:  -383.74807289422910

   => Energetics <=

    Nuclear Repulsion Energy =            428.6557242869665174
    One-Electron Energy =               -1370.4342387057827182
    Two-Electron Energy =                 558.0304415245872178
    Total Energy =                       -383.7480728942290398
  Basis Set: (AUG-CC-PVTZ AUX)
    Blend: AUG-CC-PVTZ-RI
    Molecular point group: c1

    Geometry (in Angstrom), charge = 0, multiplicity = 1:

       Center              X                  Y                   Z               Mass
    ------------   -----------------  -----------------  -----------------  -----------------
         O            2.549151461048    -0.547833911794     0.698723533710    15.994914619570
         C            0.312062461048    -0.430475911794    -0.279033466290    12.000000000000
         C           -0.083278538952     0.910817088206    -0.094007466290    12.000000000000
         C            1.763242461048    -0.782909911794    -0.478211466290    12.000000000000
         C           -0.623229538952    -1.356520511794    -0.193508366290    12.000000000000
         C           -1.435991538952     1.183022088206     0.135532533710    12.000000000000
         C            0.918085461048     2.033689088206    -0.188578466290    12.000000000000
         C           -1.987925538952    -1.165912911794     0.031265533710    12.000000000000
         C           -2.383711538952     0.159055088206     0.208093533710    12.000000000000
         H            1.846895461048    -1.831208911794    -0.799924466290     1.007825032230
         H            2.221891461048    -0.162464911794    -1.253020466290     1.007825032230
         H           -0.324877538952    -2.485235911794    -0.340547466290     1.007825032230
         H           -1.751429538952     2.215897088206     0.274612533710     1.007825032230
         H            1.807069461048     1.811955088206     0.405372533710     1.007825032230
         H            1.240815461048     2.188738088206    -1.224846466290     1.007825032230
         H            0.479411461048     2.970406088206     0.165773533710     1.007825032230
         H           -2.716999538952    -1.970759911794     0.085658533710     1.007825032230
         H           -3.428542538952     0.399171088206     0.391163533710     1.007825032230
         H            2.089805461048    -0.999829911794     1.427897533710     1.007825032230

  Basis Set: AUG-CC-PVTZ
    Blend: AUG-CC-PVTZ
  Basis Set: (AUG-CC-PVTZ AUX)
    Blend: AUG-CC-PVTZ-JKFIT
	 Reference Energy          =    -383.7480728942290966 [Eh]
	 Singles Energy            =      -0.0000000000000000 [Eh]
	 Same-Spin Energy          =      -0.4132272808281160 [Eh]
	 Opposite-Spin Energy      =      -1.3209609938674913 [Eh]
	 Correlation Energy        =      -1.7341882746956072 [Eh]
	 Total Energy              =    -385.4822611689247083 [Eh]

	 ================> DF-SCS-MP2 Energies <==================
	-----------------------------------------------------------
	 SCS Same-Spin Scale       =       0.3333333333333333 [-]
	 SCS Opposite-Spin Scale   =       1.2000000000000000 [-]
	 SCS Same-Spin Energy      =      -0.1377424269427053 [Eh]
	 SCS Opposite-Spin Energy  =      -1.5851531926409896 [Eh]
	 SCS Correlation Energy    =      -1.7228956195836949 [Eh]
	 SCS Total Energy          =    -385.4709685138128066 [Eh]
	-----------------------------------------------------------

  Dipole Moment: [D]
     X:    -1.2141      Y:    -0.3632      Z:    -0.0901     Total:     1.2704

*** Psi4 exiting successfully. Buy a developer a beer!
