                               Psi4 1.4a3.dev225

  ==> Input File <==

--------------------------------------------------------------------------
#psi4
#
memory 32 gb

molecule  {
0 1
  O        2.5396650    -0.5551780     0.7057380
  C        0.3025760    -0.4378200    -0.2720190
  C       -0.0647372     0.8083816    -0.1001105
  C        1.7537560    -0.7902540    -0.4711970
  C       -0.6504930    -1.4595100    -0.1921940
  C       -1.4454780     1.1756780     0.1425470
  C        0.9085990     2.0263450    -0.1815640
  C       -1.9974120    -1.1732570     0.0382800
  C       -2.3931980     0.1517110     0.2151080
  H        1.8374090    -1.8385530    -0.7929100
  H        2.2124050    -0.1698090    -1.2460060
  H       -0.3343640    -2.4925800    -0.3335330
  H       -1.7609160     2.2085530     0.2816270
  H        1.7975830     1.8046110     0.4123870
  H        1.2313290     2.1813940    -1.2178320
  H        0.4699250     2.9630620     0.1727880
  H       -2.7264860    -1.9781040     0.0926730
  H       -3.4380290     0.3918270     0.3981780
  H        2.0803190    -1.0071740     1.4349120
units angstrom
no_reorient  #important for SAPT in psi4, default
symmetry c1  #important for SAPT in psi4, default
}

set PROPERTIES_ORIGIN ["COM"]
properties('MP2/aug-cc-pvtz', properties = ['dipole'])
--------------------------------------------------------------------------

    Molecular point group: c1
  Charge       = 0
  Multiplicity = 1
  Basis Set: AUG-CC-PVTZ
    Blend: AUG-CC-PVTZ
  Basis Set: (AUG-CC-PVTZ AUX)
    Blend: AUG-CC-PVTZ-JKFIT

    Orbital Energies [Eh]
    ---------------------

    Doubly Occupied:

       1A    -20.561032     2A    -11.282316     3A    -11.241653
       4A    -11.240417     5A    -11.239334     6A    -11.237879
       7A    -11.235284     8A    -11.226443     9A    -11.220839
      10A     -1.357535    11A     -1.164228    12A     -1.053070
      13A     -1.024845    14A     -0.938121    15A     -0.910643
      16A     -0.832746    17A     -0.785564    18A     -0.700346
      19A     -0.677668    20A     -0.641780    21A     -0.624642
      22A     -0.606754    23A     -0.592778    24A     -0.566383
      25A     -0.564356    26A     -0.542691    27A     -0.522168
      28A     -0.502250    29A     -0.491407    30A     -0.470343
      31A     -0.442643    32A     -0.343821    33A     -0.326155

  @DF-RHF Final Energy:  -383.74763653758316

   => Energetics <=

    Nuclear Repulsion Energy =            427.8251876801302842
    One-Electron Energy =               -1368.8093827213740497
    Two-Electron Energy =                 557.2365585036606035
    Total Energy =                       -383.7476365375831620
  Basis Set: (AUG-CC-PVTZ AUX)
    Blend: AUG-CC-PVTZ-RI
    Molecular point group: c1

    Geometry (in Angstrom), charge = 0, multiplicity = 1:

       Center              X                  Y                   Z               Mass
    ------------   -----------------  -----------------  -----------------  -----------------
         O            2.548143789951    -0.529084159536     0.700573335836    15.994914619570
         C            0.311054789951    -0.411726159536    -0.277183664164    12.000000000000
         C           -0.056258410049     0.834475440464    -0.105275164164    12.000000000000
         C            1.762234789951    -0.764160159536    -0.476361664164    12.000000000000
         C           -0.642014210049    -1.433416159536    -0.197358664164    12.000000000000
         C           -1.436999210049     1.201771840464     0.137382335836    12.000000000000
         C            0.917077789951     2.052438840464    -0.186728664164    12.000000000000
         C           -1.988933210049    -1.147163159536     0.033115335836    12.000000000000
         C           -2.384719210049     0.177804840464     0.209943335836    12.000000000000
         H            1.845887789951    -1.812459159536    -0.798074664164     1.007825032230
         H            2.220883789951    -0.143715159536    -1.251170664164     1.007825032230
         H           -0.325885210049    -2.466486159536    -0.338697664164     1.007825032230
         H           -1.752437210049     2.234646840464     0.276462335836     1.007825032230
         H            1.806061789951     1.830704840464     0.407222335836     1.007825032230
         H            1.239807789951     2.207487840464    -1.222996664164     1.007825032230
         H            0.478403789951     2.989155840464     0.167623335836     1.007825032230
         H           -2.718007210049    -1.952010159536     0.087508335836     1.007825032230
         H           -3.429550210049     0.417920840464     0.393013335836     1.007825032230
         H            2.088797789951    -0.981080159536     1.429747335836     1.007825032230

  Basis Set: AUG-CC-PVTZ
    Blend: AUG-CC-PVTZ
  Basis Set: (AUG-CC-PVTZ AUX)
    Blend: AUG-CC-PVTZ-JKFIT
	 Reference Energy          =    -383.7476365375831620 [Eh]
	 Singles Energy            =      -0.0000000000000000 [Eh]
	 Same-Spin Energy          =      -0.4127318749582290 [Eh]
	 Opposite-Spin Energy      =      -1.3207551754894000 [Eh]
	 Correlation Energy        =      -1.7334870504476290 [Eh]
	 Total Energy              =    -385.4811235880308118 [Eh]

	 ================> DF-SCS-MP2 Energies <==================
	-----------------------------------------------------------
	 SCS Same-Spin Scale       =       0.3333333333333333 [-]
	 SCS Opposite-Spin Scale   =       1.2000000000000000 [-]
	 SCS Same-Spin Energy      =      -0.1375772916527430 [Eh]
	 SCS Opposite-Spin Energy  =      -1.5849062105872800 [Eh]
	 SCS Correlation Energy    =      -1.7224835022400229 [Eh]
	 SCS Total Energy          =    -385.4701200398232004 [Eh]
	-----------------------------------------------------------

  Dipole Moment: [D]
     X:    -1.2676      Y:    -0.4279      Z:    -0.0853     Total:     1.3405

*** Psi4 exiting successfully. Buy a developer a beer!
