                               Psi4 1.4a3.dev225

  ==> Input File <==

--------------------------------------------------------------------------
#psi4
#
memory 32 gb

molecule  {
0 1
  O        2.5396650    -0.5551780     0.7057380
  C        0.3025760    -0.4378200    -0.2720190
  C       -0.0927650     0.9034730    -0.0869930
  C        1.6574337    -0.7668611    -0.4579765
  C       -0.6504930    -1.4595100    -0.1921940
  C       -1.4454780     1.1756780     0.1425470
  C        0.9085990     2.0263450    -0.1815640
  C       -1.9974120    -1.1732570     0.0382800
  C       -2.3931980     0.1517110     0.2151080
  H        1.8374090    -1.8385530    -0.7929100
  H        2.2124050    -0.1698090    -1.2460060
  H       -0.3343640    -2.4925800    -0.3335330
  H       -1.7609160     2.2085530     0.2816270
  H        1.7975830     1.8046110     0.4123870
  H        1.2313290     2.1813940    -1.2178320
  H        0.4699250     2.9630620     0.1727880
  H       -2.7264860    -1.9781040     0.0926730
  H       -3.4380290     0.3918270     0.3981780
  H        2.0803190    -1.0071740     1.4349120
units angstrom
no_reorient  #important for SAPT in psi4, default
symmetry c1  #important for SAPT in psi4, default
}

set PROPERTIES_ORIGIN ["COM"]
properties('MP2/aug-cc-pvtz', properties = ['dipole'])
--------------------------------------------------------------------------

    Molecular point group: c1
  Charge       = 0
  Multiplicity = 1
  Basis Set: AUG-CC-PVTZ
    Blend: AUG-CC-PVTZ
  Basis Set: (AUG-CC-PVTZ AUX)
    Blend: AUG-CC-PVTZ-JKFIT

    Orbital Energies [Eh]
    ---------------------

    Doubly Occupied:

       1A    -20.557398     2A    -11.283202     3A    -11.249063
       4A    -11.243155     5A    -11.242168     6A    -11.236985
       7A    -11.235435     8A    -11.234330     9A    -11.220881
      10A     -1.343455    11A     -1.163826    12A     -1.057474
      13A     -1.041134    14A     -0.947820    15A     -0.907019
      16A     -0.820805    17A     -0.791907    18A     -0.702966
      19A     -0.671924    20A     -0.650143    21A     -0.621527
      22A     -0.600273    23A     -0.583009    24A     -0.574361
      25A     -0.565207    26A     -0.543236    27A     -0.527017
      28A     -0.497251    29A     -0.488491    30A     -0.478727
      31A     -0.447578    32A     -0.339494    33A     -0.327690

  @DF-RHF Final Energy:  -383.74587953029919

   => Energetics <=

    Nuclear Repulsion Energy =            428.2168818427203973
    One-Electron Energy =               -1369.5356219252166738
    Two-Electron Energy =                 557.5728605521971986
    Total Energy =                       -383.7458795302991348
  Basis Set: (AUG-CC-PVTZ AUX)
    Blend: AUG-CC-PVTZ-RI
    Molecular point group: c1

    Geometry (in Angstrom), charge = 0, multiplicity = 1:

       Center              X                  Y                   Z               Mass
    ------------   -----------------  -----------------  -----------------  -----------------
         O            2.560367616545    -0.540731368001     0.697984265583    15.994914619570
         C            0.323278616545    -0.423373368001    -0.279772734417    12.000000000000
         C           -0.072062383455     0.917919631999    -0.094746734417    12.000000000000
         C            1.678136316545    -0.752414468001    -0.465730234417    12.000000000000
         C           -0.629790383455    -1.445063368001    -0.199947734417    12.000000000000
         C           -1.424775383455     1.190124631999     0.134793265583    12.000000000000
         C            0.929301616545     2.040791631999    -0.189317734417    12.000000000000
         C           -1.976709383455    -1.158810368001     0.030526265583    12.000000000000
         C           -2.372495383455     0.166157631999     0.207354265583    12.000000000000
         H            1.858111616545    -1.824106368001    -0.800663734417     1.007825032230
         H            2.233107616545    -0.155362368001    -1.253759734417     1.007825032230
         H           -0.313661383455    -2.478133368001    -0.341286734417     1.007825032230
         H           -1.740213383455     2.222999631999     0.273873265583     1.007825032230
         H            1.818285616545     1.819057631999     0.404633265583     1.007825032230
         H            1.252031616545     2.195840631999    -1.225585734417     1.007825032230
         H            0.490627616545     2.977508631999     0.165034265583     1.007825032230
         H           -2.705783383455    -1.963657368001     0.084919265583     1.007825032230
         H           -3.417326383455     0.406273631999     0.390424265583     1.007825032230
         H            2.101021616545    -0.992727368001     1.427158265583     1.007825032230

  Basis Set: AUG-CC-PVTZ
    Blend: AUG-CC-PVTZ
  Basis Set: (AUG-CC-PVTZ AUX)
    Blend: AUG-CC-PVTZ-JKFIT
	 Reference Energy          =    -383.7458795302991916 [Eh]
	 Singles Energy            =      -0.0000000000000000 [Eh]
	 Same-Spin Energy          =      -0.4148045264316720 [Eh]
	 Opposite-Spin Energy      =      -1.3234476150153593 [Eh]
	 Correlation Energy        =      -1.7382521414470313 [Eh]
	 Total Energy              =    -385.4841316717462405 [Eh]

	 ================> DF-SCS-MP2 Energies <==================
	-----------------------------------------------------------
	 SCS Same-Spin Scale       =       0.3333333333333333 [-]
	 SCS Opposite-Spin Scale   =       1.2000000000000000 [-]
	 SCS Same-Spin Energy      =      -0.1382681754772240 [Eh]
	 SCS Opposite-Spin Energy  =      -1.5881371380184313 [Eh]
	 SCS Correlation Energy    =      -1.7264053134956552 [Eh]
	 SCS Total Energy          =    -385.4722848437948528 [Eh]
	-----------------------------------------------------------

  Dipole Moment: [D]
     X:    -1.5048      Y:    -0.3223      Z:    -0.1270     Total:     1.5442

*** Psi4 exiting successfully. Buy a developer a beer!
