                               Psi4 1.4a3.dev225

  ==> Input File <==

--------------------------------------------------------------------------
#psi4
#
memory 32 gb

molecule  {
0 1
  O        2.5396650    -0.5551780     0.7057380
  C        0.1614875    -0.4745048    -0.2486373
  C       -0.0927650     0.9034730    -0.0869930
  C        1.7537560    -0.7902540    -0.4711970
  C       -0.6504930    -1.4595100    -0.1921940
  C       -1.4454780     1.1756780     0.1425470
  C        0.9085990     2.0263450    -0.1815640
  C       -1.9974120    -1.1732570     0.0382800
  C       -2.3931980     0.1517110     0.2151080
  H        1.8374090    -1.8385530    -0.7929100
  H        2.2124050    -0.1698090    -1.2460060
  H       -0.3343640    -2.4925800    -0.3335330
  H       -1.7609160     2.2085530     0.2816270
  H        1.7975830     1.8046110     0.4123870
  H        1.2313290     2.1813940    -1.2178320
  H        0.4699250     2.9630620     0.1727880
  H       -2.7264860    -1.9781040     0.0926730
  H       -3.4380290     0.3918270     0.3981780
  H        2.0803190    -1.0071740     1.4349120
units angstrom
no_reorient  #important for SAPT in psi4, default
symmetry c1  #important for SAPT in psi4, default
}

set PROPERTIES_ORIGIN ["COM"]
properties('MP2/aug-cc-pvtz', properties = ['dipole'])
--------------------------------------------------------------------------

    Molecular point group: c1
  Charge       = 0
  Multiplicity = 1
  Basis Set: AUG-CC-PVTZ
    Blend: AUG-CC-PVTZ
  Basis Set: (AUG-CC-PVTZ AUX)
    Blend: AUG-CC-PVTZ-JKFIT

    Orbital Energies [Eh]
    ---------------------

    Doubly Occupied:

       1A    -20.560729     2A    -11.285069     3A    -11.245247
       4A    -11.235705     5A    -11.234402     6A    -11.232309
       7A    -11.232142     8A    -11.224124     9A    -11.223668
      10A     -1.354254    11A     -1.170015    12A     -1.049573
      13A     -1.034423    14A     -0.939220    15A     -0.904669
      16A     -0.819505    17A     -0.797822    18A     -0.700355
      19A     -0.670847    20A     -0.642632    21A     -0.627113
      22A     -0.601195    23A     -0.581427    24A     -0.574860
      25A     -0.568390    26A     -0.545872    27A     -0.525911
      28A     -0.500811    29A     -0.499463    30A     -0.477531
      31A     -0.419720    32A     -0.351933    33A     -0.322150

  @DF-RHF Final Energy:  -383.73452324893066

   => Energetics <=

    Nuclear Repulsion Energy =            427.4681453427857605
    One-Electron Energy =               -1368.0991670432736100
    Two-Electron Energy =                 556.8964984515571359
    Total Energy =                       -383.7345232489307136
  Basis Set: (AUG-CC-PVTZ AUX)
    Blend: AUG-CC-PVTZ-RI
    Molecular point group: c1

    Geometry (in Angstrom), charge = 0, multiplicity = 1:

       Center              X                  Y                   Z               Mass
    ------------   -----------------  -----------------  -----------------  -----------------
         O            2.564768210240    -0.534825627781     0.696985402319    15.994914619570
         C            0.186590710240    -0.454152427781    -0.257389897681    12.000000000000
         C           -0.067661789760     0.923825372219    -0.095745597681    12.000000000000
         C            1.778859210240    -0.769901627781    -0.479949597681    12.000000000000
         C           -0.625389789760    -1.439157627781    -0.200946597681    12.000000000000
         C           -1.420374789760     1.196030372219     0.133794402319    12.000000000000
         C            0.933702210240     2.046697372219    -0.190316597681    12.000000000000
         C           -1.972308789760    -1.152904627781     0.029527402319    12.000000000000
         C           -2.368094789760     0.172063372219     0.206355402319    12.000000000000
         H            1.862512210240    -1.818200627781    -0.801662597681     1.007825032230
         H            2.237508210240    -0.149456627781    -1.254758597681     1.007825032230
         H           -0.309260789760    -2.472227627781    -0.342285597681     1.007825032230
         H           -1.735812789760     2.228905372219     0.272874402319     1.007825032230
         H            1.822686210240     1.824963372219     0.403634402319     1.007825032230
         H            1.256432210240     2.201746372219    -1.226584597681     1.007825032230
         H            0.495028210240     2.983414372219     0.164035402319     1.007825032230
         H           -2.701382789760    -1.957751627781     0.083920402319     1.007825032230
         H           -3.412925789760     0.412179372219     0.389425402319     1.007825032230
         H            2.105422210240    -0.986821627781     1.426159402319     1.007825032230

  Basis Set: AUG-CC-PVTZ
    Blend: AUG-CC-PVTZ
  Basis Set: (AUG-CC-PVTZ AUX)
    Blend: AUG-CC-PVTZ-JKFIT
	 Reference Energy          =    -383.7345232489306568 [Eh]
	 Singles Energy            =      -0.0000000000000000 [Eh]
	 Same-Spin Energy          =      -0.4126602754939858 [Eh]
	 Opposite-Spin Energy      =      -1.3207978876962434 [Eh]
	 Correlation Energy        =      -1.7334581631902291 [Eh]
	 Total Energy              =    -385.4679814121208778 [Eh]

	 ================> DF-SCS-MP2 Energies <==================
	-----------------------------------------------------------
	 SCS Same-Spin Scale       =       0.3333333333333333 [-]
	 SCS Opposite-Spin Scale   =       1.2000000000000000 [-]
	 SCS Same-Spin Energy      =      -0.1375534251646619 [Eh]
	 SCS Opposite-Spin Energy  =      -1.5849574652354921 [Eh]
	 SCS Correlation Energy    =      -1.7225108904001540 [Eh]
	 SCS Total Energy          =    -385.4570341393308013 [Eh]
	-----------------------------------------------------------

  Dipole Moment: [D]
     X:    -1.1529      Y:    -0.3621      Z:    -0.0820     Total:     1.2112

*** Psi4 exiting successfully. Buy a developer a beer!
