                               Psi4 1.4a3.dev225

  ==> Input File <==

--------------------------------------------------------------------------
#psi4
#
memory 32 gb

molecule  {
0 1
  O        2.5396650    -0.5551780     0.7057380
  C        0.3025760    -0.4378200    -0.2720190
  C       -0.0927650     0.9034730    -0.0869930
  C        1.7811471    -0.7820609    -0.4301775
  C       -0.6504930    -1.4595100    -0.1921940
  C       -1.4454780     1.1756780     0.1425470
  C        0.9085990     2.0263450    -0.1815640
  C       -1.9974120    -1.1732570     0.0382800
  C       -2.3931980     0.1517110     0.2151080
  H        1.8374090    -1.8385530    -0.7929100
  H        2.2124050    -0.1698090    -1.2460060
  H       -0.3343640    -2.4925800    -0.3335330
  H       -1.7609160     2.2085530     0.2816270
  H        1.7975830     1.8046110     0.4123870
  H        1.2313290     2.1813940    -1.2178320
  H        0.4699250     2.9630620     0.1727880
  H       -2.7264860    -1.9781040     0.0926730
  H       -3.4380290     0.3918270     0.3981780
  H        2.0803190    -1.0071740     1.4349120
units angstrom
no_reorient  #important for SAPT in psi4, default
symmetry c1  #important for SAPT in psi4, default
}

set PROPERTIES_ORIGIN ["COM"]
properties('MP2/aug-cc-pvtz', properties = ['dipole'])
--------------------------------------------------------------------------

    Molecular point group: c1
  Charge       = 0
  Multiplicity = 1
  Basis Set: AUG-CC-PVTZ
    Blend: AUG-CC-PVTZ
  Basis Set: (AUG-CC-PVTZ AUX)
    Blend: AUG-CC-PVTZ-JKFIT

    Orbital Energies [Eh]
    ---------------------

    Doubly Occupied:

       1A    -20.566228     2A    -11.284158     3A    -11.244681
       4A    -11.239235     5A    -11.237889     6A    -11.237407
       7A    -11.234545     8A    -11.232811     9A    -11.219740
      10A     -1.378388    11A     -1.156160    12A     -1.048049
      13A     -1.029595    14A     -0.941682    15A     -0.906750
      16A     -0.817042    17A     -0.792862    18A     -0.706968
      19A     -0.675003    20A     -0.646112    21A     -0.627954
      22A     -0.614145    23A     -0.590162    24A     -0.572311
      25A     -0.569292    26A     -0.542427    27A     -0.525158
      28A     -0.492556    29A     -0.488344    30A     -0.474198
      31A     -0.441325    32A     -0.336877    33A     -0.325091

  @DF-RHF Final Energy:  -383.75812294884594

   => Energetics <=

    Nuclear Repulsion Energy =            427.1713625788975150
    One-Electron Energy =               -1367.4686764471261995
    Two-Electron Energy =                 556.5391909193826905
    Total Energy =                       -383.7581229488459940
  Basis Set: (AUG-CC-PVTZ AUX)
    Blend: AUG-CC-PVTZ-RI
    Molecular point group: c1

    Geometry (in Angstrom), charge = 0, multiplicity = 1:

       Center              X                  Y                   Z               Mass
    ------------   -----------------  -----------------  -----------------  -----------------
         O            2.548206378645    -0.539237201776     0.695251576543    15.994914619570
         C            0.311117378645    -0.421879201776    -0.282505423457    12.000000000000
         C           -0.084223621355     0.919413798224    -0.097479423457    12.000000000000
         C            1.789688478645    -0.766120101776    -0.440663923457    12.000000000000
         C           -0.641951621355    -1.443569201776    -0.202680423457    12.000000000000
         C           -1.436936621355     1.191618798224     0.132060576543    12.000000000000
         C            0.917140378645     2.042285798224    -0.192050423457    12.000000000000
         C           -1.988870621355    -1.157316201776     0.027793576543    12.000000000000
         C           -2.384656621355     0.167651798224     0.204621576543    12.000000000000
         H            1.845950378645    -1.822612201776    -0.803396423457     1.007825032230
         H            2.220946378645    -0.153868201776    -1.256492423457     1.007825032230
         H           -0.325822621355    -2.476639201776    -0.344019423457     1.007825032230
         H           -1.752374621355     2.224493798224     0.271140576543     1.007825032230
         H            1.806124378645     1.820551798224     0.401900576543     1.007825032230
         H            1.239870378645     2.197334798224    -1.228318423457     1.007825032230
         H            0.478466378645     2.979002798224     0.162301576543     1.007825032230
         H           -2.717944621355    -1.962163201776     0.082186576543     1.007825032230
         H           -3.429487621355     0.407767798224     0.387691576543     1.007825032230
         H            2.088860378645    -0.991233201776     1.424425576543     1.007825032230

  Basis Set: AUG-CC-PVTZ
    Blend: AUG-CC-PVTZ
  Basis Set: (AUG-CC-PVTZ AUX)
    Blend: AUG-CC-PVTZ-JKFIT
	 Reference Energy          =    -383.7581229488459371 [Eh]
	 Singles Energy            =      -0.0000000000000000 [Eh]
	 Same-Spin Energy          =      -0.4130917422211746 [Eh]
	 Opposite-Spin Energy      =      -1.3200580466714729 [Eh]
	 Correlation Energy        =      -1.7331497888926475 [Eh]
	 Total Energy              =    -385.4912727377385977 [Eh]

	 ================> DF-SCS-MP2 Energies <==================
	-----------------------------------------------------------
	 SCS Same-Spin Scale       =       0.3333333333333333 [-]
	 SCS Opposite-Spin Scale   =       1.2000000000000000 [-]
	 SCS Same-Spin Energy      =      -0.1376972474070582 [Eh]
	 SCS Opposite-Spin Energy  =      -1.5840696560057674 [Eh]
	 SCS Correlation Energy    =      -1.7217669034128256 [Eh]
	 SCS Total Energy          =    -385.4798898522587365 [Eh]
	-----------------------------------------------------------

  Dipole Moment: [D]
     X:    -1.0754      Y:    -0.3827      Z:     0.0480     Total:     1.1425

*** Psi4 exiting successfully. Buy a developer a beer!
