                               Psi4 1.4a3.dev225

  ==> Input File <==

--------------------------------------------------------------------------
#psi4
#
memory 32 gb

molecule  {
0 1
  O        2.5396650    -0.5551780     0.7057380
  C        0.3025760    -0.4378200    -0.2720190
  C       -0.0880017     0.9273961    -0.0859934
  C        1.7537560    -0.7902540    -0.4711970
  C       -0.6504930    -1.4595100    -0.1921940
  C       -1.4454780     1.1756780     0.1425470
  C        0.9085990     2.0263450    -0.1815640
  C       -1.9974120    -1.1732570     0.0382800
  C       -2.3931980     0.1517110     0.2151080
  H        1.8374090    -1.8385530    -0.7929100
  H        2.2124050    -0.1698090    -1.2460060
  H       -0.3343640    -2.4925800    -0.3335330
  H       -1.7609160     2.2085530     0.2816270
  H        1.7975830     1.8046110     0.4123870
  H        1.2313290     2.1813940    -1.2178320
  H        0.4699250     2.9630620     0.1727880
  H       -2.7264860    -1.9781040     0.0926730
  H       -3.4380290     0.3918270     0.3981780
  H        2.0803190    -1.0071740     1.4349120
units angstrom
no_reorient  #important for SAPT in psi4, default
symmetry c1  #important for SAPT in psi4, default
}

set PROPERTIES_ORIGIN ["COM"]
properties('MP2/aug-cc-pvtz', properties = ['dipole'])
--------------------------------------------------------------------------

    Molecular point group: c1
  Charge       = 0
  Multiplicity = 1
  Basis Set: AUG-CC-PVTZ
    Blend: AUG-CC-PVTZ
  Basis Set: (AUG-CC-PVTZ AUX)
    Blend: AUG-CC-PVTZ-JKFIT

    Orbital Energies [Eh]
    ---------------------

    Doubly Occupied:

       1A    -20.560832     2A    -11.282539     3A    -11.247353
       4A    -11.240819     5A    -11.239494     6A    -11.238793
       7A    -11.235272     8A    -11.233488     9A    -11.219514
      10A     -1.357215    11A     -1.155840    12A     -1.050870
      13A     -1.032866    14A     -0.945572    15A     -0.907902
      16A     -0.815044    17A     -0.793012    18A     -0.701001
      19A     -0.673887    20A     -0.645491    21A     -0.625831
      22A     -0.605183    23A     -0.584981    24A     -0.574976
      25A     -0.570380    26A     -0.544391    27A     -0.527535
      28A     -0.492203    29A     -0.486926    30A     -0.480761
      31A     -0.446405    32A     -0.337836    33A     -0.323252

  @DF-RHF Final Energy:  -383.75832785873092

   => Energetics <=

    Nuclear Repulsion Energy =            426.6830759286915509
    One-Electron Energy =               -1366.5278819006368849
    Two-Electron Energy =                 556.0864781132144117
    Total Energy =                       -383.7583278587309223
  Basis Set: (AUG-CC-PVTZ AUX)
    Blend: AUG-CC-PVTZ-RI
    Molecular point group: c1

    Geometry (in Angstrom), charge = 0, multiplicity = 1:

       Center              X                  Y                   Z               Mass
    ------------   -----------------  -----------------  -----------------  -----------------
         O            2.550430729920    -0.540783487564     0.699185600865    15.994914619570
         C            0.313341729920    -0.423425487564    -0.278571399135    12.000000000000
         C           -0.077235970080     0.941790612436    -0.092545799135    12.000000000000
         C            1.764521729920    -0.775859487564    -0.477749399135    12.000000000000
         C           -0.639727270080    -1.445115487564    -0.198746399135    12.000000000000
         C           -1.434712270080     1.190072512436     0.135994600865    12.000000000000
         C            0.919364729920     2.040739512436    -0.188116399135    12.000000000000
         C           -1.986646270080    -1.158862487564     0.031727600865    12.000000000000
         C           -2.382432270080     0.166105512436     0.208555600865    12.000000000000
         H            1.848174729920    -1.824158487564    -0.799462399135     1.007825032230
         H            2.223170729920    -0.155414487564    -1.252558399135     1.007825032230
         H           -0.323598270080    -2.478185487564    -0.340085399135     1.007825032230
         H           -1.750150270080     2.222947512436     0.275074600865     1.007825032230
         H            1.808348729920     1.819005512436     0.405834600865     1.007825032230
         H            1.242094729920     2.195788512436    -1.224384399135     1.007825032230
         H            0.480690729920     2.977456512436     0.166235600865     1.007825032230
         H           -2.715720270080    -1.963709487564     0.086120600865     1.007825032230
         H           -3.427263270080     0.406221512436     0.391625600865     1.007825032230
         H            2.091084729920    -0.992779487564     1.428359600865     1.007825032230

  Basis Set: AUG-CC-PVTZ
    Blend: AUG-CC-PVTZ
  Basis Set: (AUG-CC-PVTZ AUX)
    Blend: AUG-CC-PVTZ-JKFIT
	 Reference Energy          =    -383.7583278587309223 [Eh]
	 Singles Energy            =      -0.0000000000000000 [Eh]
	 Same-Spin Energy          =      -0.4133753918186109 [Eh]
	 Opposite-Spin Energy      =      -1.3210792960850046 [Eh]
	 Correlation Energy        =      -1.7344546879036156 [Eh]
	 Total Energy              =    -385.4927825466345439 [Eh]

	 ================> DF-SCS-MP2 Energies <==================
	-----------------------------------------------------------
	 SCS Same-Spin Scale       =       0.3333333333333333 [-]
	 SCS Opposite-Spin Scale   =       1.2000000000000000 [-]
	 SCS Same-Spin Energy      =      -0.1377917972728703 [Eh]
	 SCS Opposite-Spin Energy  =      -1.5852951553020056 [Eh]
	 SCS Correlation Energy    =      -1.7230869525748760 [Eh]
	 SCS Total Energy          =    -385.4814148113057968 [Eh]
	-----------------------------------------------------------

  Dipole Moment: [D]
     X:    -1.1789      Y:    -0.3810      Z:    -0.1068     Total:     1.2435

*** Psi4 exiting successfully. Buy a developer a beer!
