                               Psi4 1.4a3.dev225

  ==> Input File <==

--------------------------------------------------------------------------
#psi4
#
memory 32 gb

molecule  {
0 1
  O        2.5396650    -0.5551780     0.7057380
  C        0.3025760    -0.4378200    -0.2720190
  C       -0.0927650     0.9034730    -0.0869930
  C        1.7537560    -0.7902540    -0.4711970
  C       -0.6504930    -1.4595100    -0.1921940
  C       -1.4454780     1.1756780     0.1425470
  C        0.9085990     2.0263450    -0.1815640
  C       -1.9974120    -1.1732570     0.0382800
  C       -2.3931980     0.1517110     0.2151080
  H        1.8374090    -1.8385530    -0.7929100
  H        2.2124050    -0.1698090    -1.2460060
  H       -0.3343640    -2.4925800    -0.3335330
  H       -1.7609160     2.2085530     0.2816270
  H        1.7975830     1.8046110     0.4123870
  H        1.2313290     2.1813940    -1.2178320
  H        0.4699250     2.9630620     0.1727880
  H       -2.7264860    -1.9781040     0.0926730
  H       -3.2458913     0.3476712     0.3645126
  H        2.0803190    -1.0071740     1.4349120
units angstrom
no_reorient  #important for SAPT in psi4, default
symmetry c1  #important for SAPT in psi4, default
}

set PROPERTIES_ORIGIN ["COM"]
properties('MP2/aug-cc-pvtz', properties = ['dipole'])
--------------------------------------------------------------------------

    Molecular point group: c1
  Charge       = 0
  Multiplicity = 1
  Basis Set: AUG-CC-PVTZ
    Blend: AUG-CC-PVTZ
  Basis Set: (AUG-CC-PVTZ AUX)
    Blend: AUG-CC-PVTZ-JKFIT

    Orbital Energies [Eh]
    ---------------------

    Doubly Occupied:

       1A    -20.560634     2A    -11.282417     3A    -11.244820
       4A    -11.239170     5A    -11.237685     6A    -11.234100
       7A    -11.232434     8A    -11.219230     9A    -11.214470
      10A     -1.357022    11A     -1.158270    12A     -1.054205
      13A     -1.034462    14A     -0.944802    15A     -0.914946
      16A     -0.821378    17A     -0.805416    18A     -0.703959
      19A     -0.686124    20A     -0.656751    21A     -0.625201
      22A     -0.604799    23A     -0.588814    24A     -0.574554
      25A     -0.568065    26A     -0.548444    27A     -0.528932
      28A     -0.495268    29A     -0.487276    30A     -0.478826
      31A     -0.447690    32A     -0.336912    33A     -0.324959

  @DF-RHF Final Energy:  -383.72495665216854

   => Energetics <=

    Nuclear Repulsion Energy =            428.0692573928952243
    One-Electron Energy =               -1369.1643597399909140
    Two-Electron Energy =                 557.3701456949271460
    Total Energy =                       -383.7249566521685438
  Basis Set: (AUG-CC-PVTZ AUX)
    Blend: AUG-CC-PVTZ-RI
    Molecular point group: c1

    Geometry (in Angstrom), charge = 0, multiplicity = 1:

       Center              X                  Y                   Z               Mass
    ------------   -----------------  -----------------  -----------------  -----------------
         O            2.549312698911    -0.538067259794     0.699561801751    15.994914619570
         C            0.312223698911    -0.420709259794    -0.278195198249    12.000000000000
         C           -0.083117301089     0.920583740206    -0.093169198249    12.000000000000
         C            1.763403698911    -0.773143259794    -0.477373198249    12.000000000000
         C           -0.640845301089    -1.442399259794    -0.198370198249    12.000000000000
         C           -1.435830301089     1.192788740206     0.136370801751    12.000000000000
         C            0.918246698911     2.043455740206    -0.187740198249    12.000000000000
         C           -1.987764301089    -1.156146259794     0.032103801751    12.000000000000
         C           -2.383550301089     0.168821740206     0.208931801751    12.000000000000
         H            1.847056698911    -1.821442259794    -0.799086198249     1.007825032230
         H            2.222052698911    -0.152698259794    -1.252182198249     1.007825032230
         H           -0.324716301089    -2.475469259794    -0.339709198249     1.007825032230
         H           -1.751268301089     2.225663740206     0.275450801751     1.007825032230
         H            1.807230698911     1.821721740206     0.406210801751     1.007825032230
         H            1.240976698911     2.198504740206    -1.224008198249     1.007825032230
         H            0.479572698911     2.980172740206     0.166611801751     1.007825032230
         H           -2.716838301089    -1.960993259794     0.086496801751     1.007825032230
         H           -3.236243601089     0.364781940206     0.358336401751     1.007825032230
         H            2.089966698911    -0.990063259794     1.428735801751     1.007825032230

  Basis Set: AUG-CC-PVTZ
    Blend: AUG-CC-PVTZ
  Basis Set: (AUG-CC-PVTZ AUX)
    Blend: AUG-CC-PVTZ-JKFIT
	 Reference Energy          =    -383.7249566521685438 [Eh]
	 Singles Energy            =      -0.0000000000000000 [Eh]
	 Same-Spin Energy          =      -0.4130253107162348 [Eh]
	 Opposite-Spin Energy      =      -1.3202436719259529 [Eh]
	 Correlation Energy        =      -1.7332689826421879 [Eh]
	 Total Energy              =    -385.4582256348107308 [Eh]

	 ================> DF-SCS-MP2 Energies <==================
	-----------------------------------------------------------
	 SCS Same-Spin Scale       =       0.3333333333333333 [-]
	 SCS Opposite-Spin Scale   =       1.2000000000000000 [-]
	 SCS Same-Spin Energy      =      -0.1376751035720783 [Eh]
	 SCS Opposite-Spin Energy  =      -1.5842924063111434 [Eh]
	 SCS Correlation Energy    =      -1.7219675098832217 [Eh]
	 SCS Total Energy          =    -385.4469241620517437 [Eh]
	-----------------------------------------------------------

  Dipole Moment: [D]
     X:    -1.2506      Y:    -0.3954      Z:    -0.0942     Total:     1.3150

*** Psi4 exiting successfully. Buy a developer a beer!
