                               Psi4 1.4a3.dev225

  ==> Input File <==

--------------------------------------------------------------------------
#psi4
#
memory 32 gb

molecule  {
0 1
  O        2.5396650    -0.5551780     0.7057380
  C        0.3025760    -0.4378200    -0.2720190
  C       -0.0927650     0.9034730    -0.0869930
  C        1.7537560    -0.7902540    -0.4711970
  C       -0.6504930    -1.4595100    -0.1921940
  C       -1.4454780     1.1756780     0.1425470
  C        0.9085990     2.0263450    -0.1815640
  C       -1.9974120    -1.1732570     0.0382800
  C       -2.3931980     0.1517110     0.2151080
  H        1.8374090    -1.8385530    -0.7929100
  H        2.2124050    -0.1698090    -1.2460060
  H       -0.3343640    -2.4925800    -0.3335330
  H       -1.7609160     2.2085530     0.2816270
  H        1.7843742     1.8688314     0.4512421
  H        1.2313290     2.1813940    -1.2178320
  H        0.4699250     2.9630620     0.1727880
  H       -2.7264860    -1.9781040     0.0926730
  H       -3.4380290     0.3918270     0.3981780
  H        2.0803190    -1.0071740     1.4349120
units angstrom
no_reorient  #important for SAPT in psi4, default
symmetry c1  #important for SAPT in psi4, default
}

set PROPERTIES_ORIGIN ["COM"]
properties('MP2/aug-cc-pvtz', properties = ['dipole'])
--------------------------------------------------------------------------

    Molecular point group: c1
  Charge       = 0
  Multiplicity = 1
  Basis Set: AUG-CC-PVTZ
    Blend: AUG-CC-PVTZ
  Basis Set: (AUG-CC-PVTZ AUX)
    Blend: AUG-CC-PVTZ-JKFIT

    Orbital Energies [Eh]
    ---------------------

    Doubly Occupied:

       1A    -20.560322     2A    -11.282422     3A    -11.246172
       4A    -11.240119     5A    -11.238815     6A    -11.238267
       7A    -11.235454     8A    -11.233904     9A    -11.219954
      10A     -1.356634    11A     -1.157609    12A     -1.049100
      13A     -1.032718    14A     -0.943740    15A     -0.908375
      16A     -0.818456    17A     -0.792680    18A     -0.700704
      19A     -0.674338    20A     -0.644506    21A     -0.625305
      22A     -0.604934    23A     -0.586476    24A     -0.573640
      25A     -0.571858    26A     -0.540209    27A     -0.523571
      28A     -0.494082    29A     -0.488827    30A     -0.478335
      31A     -0.447090    32A     -0.337605    33A     -0.326248

  @DF-RHF Final Energy:  -383.75924548755108

   => Energetics <=

    Nuclear Repulsion Energy =            426.7738701528580805
    One-Electron Energy =               -1366.7212925647233988
    Two-Electron Energy =                 556.1881769243142344
    Total Energy =                       -383.7592454875510839
  Basis Set: (AUG-CC-PVTZ AUX)
    Blend: AUG-CC-PVTZ-RI
    Molecular point group: c1

    Geometry (in Angstrom), charge = 0, multiplicity = 1:

       Center              X                  Y                   Z               Mass
    ------------   -----------------  -----------------  -----------------  -----------------
         O            2.551008021082    -0.538962003920     0.698963079048    15.994914619570
         C            0.313919021082    -0.421604003920    -0.278793920952    12.000000000000
         C           -0.081421978918     0.919688996080    -0.093767920952    12.000000000000
         C            1.765099021082    -0.774038003920    -0.477971920952    12.000000000000
         C           -0.639149978918    -1.443294003920    -0.198968920952    12.000000000000
         C           -1.434134978918     1.191893996080     0.135772079048    12.000000000000
         C            0.919942021082     2.042560996080    -0.188338920952    12.000000000000
         C           -1.986068978918    -1.157041003920     0.031505079048    12.000000000000
         C           -2.381854978918     0.167926996080     0.208333079048    12.000000000000
         H            1.848752021082    -1.822337003920    -0.799684920952     1.007825032230
         H            2.223748021082    -0.153593003920    -1.252780920952     1.007825032230
         H           -0.323020978918    -2.476364003920    -0.340307920952     1.007825032230
         H           -1.749572978918     2.224768996080     0.274852079048     1.007825032230
         H            1.795717221082     1.885047396080     0.444467179048     1.007825032230
         H            1.242672021082     2.197609996080    -1.224606920952     1.007825032230
         H            0.481268021082     2.979277996080     0.166013079048     1.007825032230
         H           -2.715142978918    -1.961888003920     0.085898079048     1.007825032230
         H           -3.426685978918     0.408042996080     0.391403079048     1.007825032230
         H            2.091662021082    -0.990958003920     1.428137079048     1.007825032230

  Basis Set: AUG-CC-PVTZ
    Blend: AUG-CC-PVTZ
  Basis Set: (AUG-CC-PVTZ AUX)
    Blend: AUG-CC-PVTZ-JKFIT
	 Reference Energy          =    -383.7592454875510839 [Eh]
	 Singles Energy            =      -0.0000000000000000 [Eh]
	 Same-Spin Energy          =      -0.4131110543229822 [Eh]
	 Opposite-Spin Energy      =      -1.3207252172138242 [Eh]
	 Correlation Energy        =      -1.7338362715368065 [Eh]
	 Total Energy              =    -385.4930817590878860 [Eh]

	 ================> DF-SCS-MP2 Energies <==================
	-----------------------------------------------------------
	 SCS Same-Spin Scale       =       0.3333333333333333 [-]
	 SCS Opposite-Spin Scale   =       1.2000000000000000 [-]
	 SCS Same-Spin Energy      =      -0.1377036847743274 [Eh]
	 SCS Opposite-Spin Energy  =      -1.5848702606565890 [Eh]
	 SCS Correlation Energy    =      -1.7225739454309164 [Eh]
	 SCS Total Energy          =    -385.4818194329819789 [Eh]
	-----------------------------------------------------------

  Dipole Moment: [D]
     X:    -1.2165      Y:    -0.3824      Z:    -0.0850     Total:     1.2780

*** Psi4 exiting successfully. Buy a developer a beer!
