                               Psi4 1.4a3.dev225

  ==> Input File <==

--------------------------------------------------------------------------
#psi4
#
memory 32 gb

molecule  {
0 1
  O        2.5396650    -0.5551780     0.7057380
  C        0.3025760    -0.4378200    -0.2720190
  C       -0.0927650     0.9034730    -0.0869930
  C        1.6989737    -0.8066401    -0.5532360
  C       -0.6504930    -1.4595100    -0.1921940
  C       -1.4454780     1.1756780     0.1425470
  C        0.9085990     2.0263450    -0.1815640
  C       -1.9974120    -1.1732570     0.0382800
  C       -2.3931980     0.1517110     0.2151080
  H        1.8374090    -1.8385530    -0.7929100
  H        2.2124050    -0.1698090    -1.2460060
  H       -0.3343640    -2.4925800    -0.3335330
  H       -1.7609160     2.2085530     0.2816270
  H        1.7975830     1.8046110     0.4123870
  H        1.2313290     2.1813940    -1.2178320
  H        0.4699250     2.9630620     0.1727880
  H       -2.7264860    -1.9781040     0.0926730
  H       -3.4380290     0.3918270     0.3981780
  H        2.0803190    -1.0071740     1.4349120
units angstrom
no_reorient  #important for SAPT in psi4, default
symmetry c1  #important for SAPT in psi4, default
}

set PROPERTIES_ORIGIN ["COM"]
properties('MP2/aug-cc-pvtz', properties = ['dipole'])
--------------------------------------------------------------------------

    Molecular point group: c1
  Charge       = 0
  Multiplicity = 1
  Basis Set: AUG-CC-PVTZ
    Blend: AUG-CC-PVTZ
  Basis Set: (AUG-CC-PVTZ AUX)
    Blend: AUG-CC-PVTZ-JKFIT

    Orbital Energies [Eh]
    ---------------------

    Doubly Occupied:

       1A    -20.549963     2A    -11.282679     3A    -11.248426
       4A    -11.242080     5A    -11.240675     6A    -11.239739
       7A    -11.236555     8A    -11.235197     9A    -11.220124
      10A     -1.322078    11A     -1.160589    12A     -1.052514
      13A     -1.038457    14A     -0.947602    15A     -0.911984
      16A     -0.821179    17A     -0.793222    18A     -0.695402
      19A     -0.674668    20A     -0.643254    21A     -0.622082
      22A     -0.593211    23A     -0.583735    24A     -0.574541
      25A     -0.562681    26A     -0.545540    27A     -0.526317
      28A     -0.496942    29A     -0.487495    30A     -0.480485
      31A     -0.453592    32A     -0.338565    33A     -0.326570

  @DF-RHF Final Energy:  -383.75059463477544

   => Energetics <=

    Nuclear Repulsion Energy =            426.4349312253895050
    One-Electron Energy =               -1366.0747653820012601
    Two-Electron Energy =                 555.8892395218363163
    Total Energy =                       -383.7505946347754389
  Basis Set: (AUG-CC-PVTZ AUX)
    Blend: AUG-CC-PVTZ-RI
    Molecular point group: c1

    Geometry (in Angstrom), charge = 0, multiplicity = 1:

       Center              X                  Y                   Z               Mass
    ------------   -----------------  -----------------  -----------------  -----------------
         O            2.556284163804    -0.536821024559     0.707348436657    15.994914619570
         C            0.319195163804    -0.419463024559    -0.270408563343    12.000000000000
         C           -0.076145836196     0.921829975441    -0.085382563343    12.000000000000
         C            1.715592863804    -0.788283124559    -0.551625563343    12.000000000000
         C           -0.633873836196    -1.441153024559    -0.190583563343    12.000000000000
         C           -1.428858836196     1.194034975441     0.144157436657    12.000000000000
         C            0.925218163804     2.044701975441    -0.179953563343    12.000000000000
         C           -1.980792836196    -1.154900024559     0.039890436657    12.000000000000
         C           -2.376578836196     0.170067975441     0.216718436657    12.000000000000
         H            1.854028163804    -1.820196024559    -0.791299563343     1.007825032230
         H            2.229024163804    -0.151452024559    -1.244395563343     1.007825032230
         H           -0.317744836196    -2.474223024559    -0.331922563343     1.007825032230
         H           -1.744296836196     2.226909975441     0.283237436657     1.007825032230
         H            1.814202163804     1.822967975441     0.413997436657     1.007825032230
         H            1.247948163804     2.199750975441    -1.216221563343     1.007825032230
         H            0.486544163804     2.981418975441     0.174398436657     1.007825032230
         H           -2.709866836196    -1.959747024559     0.094283436657     1.007825032230
         H           -3.421409836196     0.410183975441     0.399788436657     1.007825032230
         H            2.096938163804    -0.988817024559     1.436522436657     1.007825032230

  Basis Set: AUG-CC-PVTZ
    Blend: AUG-CC-PVTZ
  Basis Set: (AUG-CC-PVTZ AUX)
    Blend: AUG-CC-PVTZ-JKFIT
	 Reference Energy          =    -383.7505946347754389 [Eh]
	 Singles Energy            =      -0.0000000000000000 [Eh]
	 Same-Spin Energy          =      -0.4138297799637665 [Eh]
	 Opposite-Spin Energy      =      -1.3229923356472422 [Eh]
	 Correlation Energy        =      -1.7368221156110086 [Eh]
	 Total Energy              =    -385.4874167503864442 [Eh]

	 ================> DF-SCS-MP2 Energies <==================
	-----------------------------------------------------------
	 SCS Same-Spin Scale       =       0.3333333333333333 [-]
	 SCS Opposite-Spin Scale   =       1.2000000000000000 [-]
	 SCS Same-Spin Energy      =      -0.1379432599879222 [Eh]
	 SCS Opposite-Spin Energy  =      -1.5875908027766905 [Eh]
	 SCS Correlation Energy    =      -1.7255340627646127 [Eh]
	 SCS Total Energy          =    -385.4761286975400481 [Eh]
	-----------------------------------------------------------

  Dipole Moment: [D]
     X:    -1.4444      Y:    -0.4184      Z:    -0.3626     Total:     1.5469

*** Psi4 exiting successfully. Buy a developer a beer!
