                               Psi4 1.4a3.dev225

  ==> Input File <==

--------------------------------------------------------------------------
#psi4
#
memory 32 gb

molecule  {
0 1
  O        2.5396650    -0.5551780     0.7057380
  C        0.3025760    -0.4378200    -0.2720190
  C       -0.0927650     0.9034730    -0.0869930
  C        1.7537560    -0.7902540    -0.4711970
  C       -0.6504930    -1.4595100    -0.1921940
  C       -1.4454780     1.1756780     0.1425470
  C        0.9085990     2.0263450    -0.1815640
  C       -1.9974120    -1.1732570     0.0382800
  C       -2.3931980     0.1517110     0.2151080
  H        1.8374090    -1.8385530    -0.7929100
  H        2.2962950    -0.0563254    -1.3877238
  H       -0.3343640    -2.4925800    -0.3335330
  H       -1.7609160     2.2085530     0.2816270
  H        1.7975830     1.8046110     0.4123870
  H        1.2313290     2.1813940    -1.2178320
  H        0.4699250     2.9630620     0.1727880
  H       -2.7264860    -1.9781040     0.0926730
  H       -3.4380290     0.3918270     0.3981780
  H        2.0803190    -1.0071740     1.4349120
units angstrom
no_reorient  #important for SAPT in psi4, default
symmetry c1  #important for SAPT in psi4, default
}

set PROPERTIES_ORIGIN ["COM"]
properties('MP2/aug-cc-pvtz', properties = ['dipole'])
--------------------------------------------------------------------------

    Molecular point group: c1
  Charge       = 0
  Multiplicity = 1
  Basis Set: AUG-CC-PVTZ
    Blend: AUG-CC-PVTZ
  Basis Set: (AUG-CC-PVTZ AUX)
    Blend: AUG-CC-PVTZ-JKFIT

    Orbital Energies [Eh]
    ---------------------

    Doubly Occupied:

       1A    -20.564437     2A    -11.305451     3A    -11.246679
       4A    -11.241823     5A    -11.240245     6A    -11.239681
       7A    -11.236134     8A    -11.234161     9A    -11.219355
      10A     -1.359727    11A     -1.158433    12A     -1.049203
      13A     -1.032735    14A     -0.941487    15A     -0.899532
      16A     -0.818750    17A     -0.788774    18A     -0.700102
      19A     -0.675947    20A     -0.645777    21A     -0.624736
      22A     -0.599651    23A     -0.583769    24A     -0.571972
      25A     -0.567912    26A     -0.539392    27A     -0.521528
      28A     -0.492795    29A     -0.488802    30A     -0.465080
      31A     -0.449867    32A     -0.338187    33A     -0.326094

  @DF-RHF Final Energy:  -383.73895681193142

   => Energetics <=

    Nuclear Repulsion Energy =            426.0303895908511436
    One-Electron Energy =               -1365.2022565989427676
    Two-Electron Energy =                 555.4329101961601509
    Total Energy =                       -383.7389568119314163
  Basis Set: (AUG-CC-PVTZ AUX)
    Blend: AUG-CC-PVTZ-RI
    Molecular point group: c1

    Geometry (in Angstrom), charge = 0, multiplicity = 1:

       Center              X                  Y                   Z               Mass
    ------------   -----------------  -----------------  -----------------  -----------------
         O            2.550206382153    -0.539368716453     0.700453872614    15.994914619570
         C            0.313117382153    -0.422010716453    -0.277303127386    12.000000000000
         C           -0.082223617847     0.919282283547    -0.092277127386    12.000000000000
         C            1.764297382153    -0.774444716453    -0.476481127386    12.000000000000
         C           -0.639951617847    -1.443700716453    -0.197478127386    12.000000000000
         C           -1.434936617847     1.191487283547     0.137262872614    12.000000000000
         C            0.919140382153     2.042154283547    -0.186848127386    12.000000000000
         C           -1.986870617847    -1.157447716453     0.032995872614    12.000000000000
         C           -2.382656617847     0.167520283547     0.209823872614    12.000000000000
         H            1.847950382153    -1.822743716453    -0.798194127386     1.007825032230
         H            2.306836382153    -0.040516116453    -1.393007927386     1.007825032230
         H           -0.323822617847    -2.476770716453    -0.338817127386     1.007825032230
         H           -1.750374617847     2.224362283547     0.276342872614     1.007825032230
         H            1.808124382153     1.820420283547     0.407102872614     1.007825032230
         H            1.241870382153     2.197203283547    -1.223116127386     1.007825032230
         H            0.480466382153     2.978871283547     0.167503872614     1.007825032230
         H           -2.715944617847    -1.962294716453     0.087388872614     1.007825032230
         H           -3.427487617847     0.407636283547     0.392893872614     1.007825032230
         H            2.090860382153    -0.991364716453     1.429627872614     1.007825032230

  Basis Set: AUG-CC-PVTZ
    Blend: AUG-CC-PVTZ
  Basis Set: (AUG-CC-PVTZ AUX)
    Blend: AUG-CC-PVTZ-JKFIT
	 Reference Energy          =    -383.7389568119314163 [Eh]
	 Singles Energy            =      -0.0000000000000000 [Eh]
	 Same-Spin Energy          =      -0.4135636324955983 [Eh]
	 Opposite-Spin Energy      =      -1.3227462789285838 [Eh]
	 Correlation Energy        =      -1.7363099114241820 [Eh]
	 Total Energy              =    -385.4752667233556167 [Eh]

	 ================> DF-SCS-MP2 Energies <==================
	-----------------------------------------------------------
	 SCS Same-Spin Scale       =       0.3333333333333333 [-]
	 SCS Opposite-Spin Scale   =       1.2000000000000000 [-]
	 SCS Same-Spin Energy      =      -0.1378545441651994 [Eh]
	 SCS Opposite-Spin Energy  =      -1.5872955347143005 [Eh]
	 SCS Correlation Energy    =      -1.7251500788795000 [Eh]
	 SCS Total Energy          =    -385.4641068908109105 [Eh]
	-----------------------------------------------------------

  Dipole Moment: [D]
     X:    -1.2808      Y:    -0.4381      Z:     0.0115     Total:     1.3537

*** Psi4 exiting successfully. Buy a developer a beer!
