                               Psi4 1.4a3.dev225

  ==> Input File <==

--------------------------------------------------------------------------
#psi4
#
memory 32 gb

molecule  {
0 1
  O        2.5396650    -0.5551780     0.7057380
  C        0.3025760    -0.4378200    -0.2720190
  C       -0.0927650     0.9034730    -0.0869930
  C        1.7537560    -0.7902540    -0.4711970
  C       -0.6504930    -1.4595100    -0.1921940
  C       -1.4454780     1.1756780     0.1425470
  C        0.9085990     2.0263450    -0.1815640
  C       -1.9974120    -1.1732570     0.0382800
  C       -2.3931980     0.1517110     0.2151080
  H        1.8374090    -1.8385530    -0.7929100
  H        2.2124050    -0.1698090    -1.2460060
  H       -0.3343640    -2.4925800    -0.3335330
  H       -1.7609160     2.2085530     0.2816270
  H        1.7975830     1.8046110     0.4123870
  H        1.2313290     2.1813940    -1.2178320
  H        0.4619007     2.9801966     0.1792699
  H       -2.7264860    -1.9781040     0.0926730
  H       -3.4380290     0.3918270     0.3981780
  H        2.0803190    -1.0071740     1.4349120
units angstrom
no_reorient  #important for SAPT in psi4, default
symmetry c1  #important for SAPT in psi4, default
}

set PROPERTIES_ORIGIN ["COM"]
properties('MP2/aug-cc-pvtz', properties = ['dipole'])
--------------------------------------------------------------------------

    Molecular point group: c1
  Charge       = 0
  Multiplicity = 1
  Basis Set: AUG-CC-PVTZ
    Blend: AUG-CC-PVTZ
  Basis Set: (AUG-CC-PVTZ AUX)
    Blend: AUG-CC-PVTZ-JKFIT

    Orbital Energies [Eh]
    ---------------------

    Doubly Occupied:

       1A    -20.561020     2A    -11.282882     3A    -11.246053
       4A    -11.240230     5A    -11.238796     6A    -11.238300
       7A    -11.235265     8A    -11.233611     9A    -11.222271
      10A     -1.357424    11A     -1.157629    12A     -1.049124
      13A     -1.032597    14A     -0.942816    15A     -0.908311
      16A     -0.818064    17A     -0.792298    18A     -0.701096
      19A     -0.674453    20A     -0.644817    21A     -0.624914
      22A     -0.605343    23A     -0.586812    24A     -0.573196
      25A     -0.568817    26A     -0.540950    27A     -0.525356
      28A     -0.494032    29A     -0.488245    30A     -0.478364
      31A     -0.447542    32A     -0.337611    33A     -0.325770

  @DF-RHF Final Energy:  -383.75904253392918

   => Energetics <=

    Nuclear Repulsion Energy =            426.8174393050312574
    One-Electron Energy =               -1366.8049449388915946
    Two-Electron Energy =                 556.2284630999311048
    Total Energy =                       -383.7590425339292324
  Basis Set: (AUG-CC-PVTZ AUX)
    Blend: AUG-CC-PVTZ-RI
    Molecular point group: c1

    Geometry (in Angstrom), charge = 0, multiplicity = 1:

       Center              X                  Y                   Z               Mass
    ------------   -----------------  -----------------  -----------------  -----------------
         O            2.550965218318    -0.538573267805     0.699230349266    15.994914619570
         C            0.313876218318    -0.421215267805    -0.278526650734    12.000000000000
         C           -0.081464781682     0.920077732195    -0.093500650734    12.000000000000
         C            1.765056218318    -0.773649267805    -0.477704650734    12.000000000000
         C           -0.639192781682    -1.442905267805    -0.198701650734    12.000000000000
         C           -1.434177781682     1.192282732195     0.136039349266    12.000000000000
         C            0.919899218318     2.042949732195    -0.188071650734    12.000000000000
         C           -1.986111781682    -1.156652267805     0.031772349266    12.000000000000
         C           -2.381897781682     0.168315732195     0.208600349266    12.000000000000
         H            1.848709218318    -1.821948267805    -0.799417650734     1.007825032230
         H            2.223705218318    -0.153204267805    -1.252513650734     1.007825032230
         H           -0.323063781682    -2.475975267805    -0.340040650734     1.007825032230
         H           -1.749615781682     2.225157732195     0.275119349266     1.007825032230
         H            1.808883218318     1.821215732195     0.405879349266     1.007825032230
         H            1.242629218318     2.197998732195    -1.224339650734     1.007825032230
         H            0.473200918318     2.996801332195     0.172762249266     1.007825032230
         H           -2.715185781682    -1.961499267805     0.086165349266     1.007825032230
         H           -3.426728781682     0.408431732195     0.391670349266     1.007825032230
         H            2.091619218318    -0.990569267805     1.428404349266     1.007825032230

  Basis Set: AUG-CC-PVTZ
    Blend: AUG-CC-PVTZ
  Basis Set: (AUG-CC-PVTZ AUX)
    Blend: AUG-CC-PVTZ-JKFIT
	 Reference Energy          =    -383.7590425339291755 [Eh]
	 Singles Energy            =      -0.0000000000000000 [Eh]
	 Same-Spin Energy          =      -0.4131872415084865 [Eh]
	 Opposite-Spin Energy      =      -1.3209230281711442 [Eh]
	 Correlation Energy        =      -1.7341102696796307 [Eh]
	 Total Energy              =    -385.4931528036087798 [Eh]

	 ================> DF-SCS-MP2 Energies <==================
	-----------------------------------------------------------
	 SCS Same-Spin Scale       =       0.3333333333333333 [-]
	 SCS Opposite-Spin Scale   =       1.2000000000000000 [-]
	 SCS Same-Spin Energy      =      -0.1377290805028288 [Eh]
	 SCS Opposite-Spin Energy  =      -1.5851076338053729 [Eh]
	 SCS Correlation Energy    =      -1.7228367143082017 [Eh]
	 SCS Total Energy          =    -385.4818792482373624 [Eh]
	-----------------------------------------------------------

  Dipole Moment: [D]
     X:    -1.2009      Y:    -0.4134      Z:    -0.1045     Total:     1.2744

*** Psi4 exiting successfully. Buy a developer a beer!
