                               Psi4 1.4a3.dev225

  ==> Input File <==

--------------------------------------------------------------------------
#psi4
#
memory 32 gb

molecule  {
0 1
  O        2.5396650    -0.5551780     0.7057380
  C        0.3025760    -0.4378200    -0.2720190
  C       -0.0927650     0.9034730    -0.0869930
  C        1.7537560    -0.7902540    -0.4711970
  C       -0.6504930    -1.4595100    -0.1921940
  C       -1.2520663     1.1367580     0.1097272
  C        0.9085990     2.0263450    -0.1815640
  C       -1.9974120    -1.1732570     0.0382800
  C       -2.3931980     0.1517110     0.2151080
  H        1.8374090    -1.8385530    -0.7929100
  H        2.2124050    -0.1698090    -1.2460060
  H       -0.3343640    -2.4925800    -0.3335330
  H       -1.7609160     2.2085530     0.2816270
  H        1.7975830     1.8046110     0.4123870
  H        1.2313290     2.1813940    -1.2178320
  H        0.4699250     2.9630620     0.1727880
  H       -2.7264860    -1.9781040     0.0926730
  H       -3.4380290     0.3918270     0.3981780
  H        2.0803190    -1.0071740     1.4349120
units angstrom
no_reorient  #important for SAPT in psi4, default
symmetry c1  #important for SAPT in psi4, default
}

set PROPERTIES_ORIGIN ["COM"]
properties('MP2/aug-cc-pvtz', properties = ['dipole'])
--------------------------------------------------------------------------

    Molecular point group: c1
  Charge       = 0
  Multiplicity = 1
  Basis Set: AUG-CC-PVTZ
    Blend: AUG-CC-PVTZ
  Basis Set: (AUG-CC-PVTZ AUX)
    Blend: AUG-CC-PVTZ-JKFIT

    Orbital Energies [Eh]
    ---------------------

    Doubly Occupied:

       1A    -20.561642     2A    -11.283295     3A    -11.248341
       4A    -11.242754     5A    -11.239474     6A    -11.236635
       7A    -11.227800     8A    -11.217247     9A    -11.215816
      10A     -1.358032    11A     -1.176825    12A     -1.063396
      13A     -1.027897    14A     -0.939368    15A     -0.916808
      16A     -0.818716    17A     -0.792901    18A     -0.702670
      19A     -0.671473    20A     -0.649410    21A     -0.619972
      22A     -0.601124    23A     -0.583727    24A     -0.577303
      25A     -0.572001    26A     -0.549562    27A     -0.526497
      28A     -0.493844    29A     -0.490800    30A     -0.454146
      31A     -0.441507    32A     -0.361900    33A     -0.320882

  @DF-RHF Final Energy:  -383.69824017056635

   => Energetics <=

    Nuclear Repulsion Energy =            429.8835762124902544
    One-Electron Energy =               -1372.7961022908382347
    Two-Electron Energy =                 559.2142859077816865
    Total Energy =                       -383.6982401705663506
  Basis Set: (AUG-CC-PVTZ AUX)
    Blend: AUG-CC-PVTZ-RI
    Molecular point group: c1

    Geometry (in Angstrom), charge = 0, multiplicity = 1:

       Center              X                  Y                   Z               Mass
    ------------   -----------------  -----------------  -----------------  -----------------
         O            2.531886270938    -0.534605903814     0.702510105478    15.994914619570
         C            0.294797270938    -0.417247903814    -0.275246894522    12.000000000000
         C           -0.100543729062     0.924045096186    -0.090220894522    12.000000000000
         C            1.745977270938    -0.769681903814    -0.474424894522    12.000000000000
         C           -0.658271729062    -1.438937903814    -0.195421894522    12.000000000000
         C           -1.259845029062     1.157330096186     0.106499305478    12.000000000000
         C            0.900820270938     2.046917096186    -0.184791894522    12.000000000000
         C           -2.005190729062    -1.152684903814     0.035052105478    12.000000000000
         C           -2.400976729062     0.172283096186     0.211880105478    12.000000000000
         H            1.829630270938    -1.817980903814    -0.796137894522     1.007825032230
         H            2.204626270938    -0.149236903814    -1.249233894522     1.007825032230
         H           -0.342142729062    -2.472007903814    -0.336760894522     1.007825032230
         H           -1.768694729062     2.229125096186     0.278399105478     1.007825032230
         H            1.789804270938     1.825183096186     0.409159105478     1.007825032230
         H            1.223550270938     2.201966096186    -1.221059894522     1.007825032230
         H            0.462146270938     2.983634096186     0.169560105478     1.007825032230
         H           -2.734264729062    -1.957531903814     0.089445105478     1.007825032230
         H           -3.445807729062     0.412399096186     0.394950105478     1.007825032230
         H            2.072540270938    -0.986601903814     1.431684105478     1.007825032230

  Basis Set: AUG-CC-PVTZ
    Blend: AUG-CC-PVTZ
  Basis Set: (AUG-CC-PVTZ AUX)
    Blend: AUG-CC-PVTZ-JKFIT
	 Reference Energy          =    -383.6982401705663506 [Eh]
	 Singles Energy            =      -0.0000000000000000 [Eh]
	 Same-Spin Energy          =      -0.4124566511765677 [Eh]
	 Opposite-Spin Energy      =      -1.3224830288771057 [Eh]
	 Correlation Energy        =      -1.7349396800536734 [Eh]
	 Total Energy              =    -385.4331798506200357 [Eh]

	 ================> DF-SCS-MP2 Energies <==================
	-----------------------------------------------------------
	 SCS Same-Spin Scale       =       0.3333333333333333 [-]
	 SCS Opposite-Spin Scale   =       1.2000000000000000 [-]
	 SCS Same-Spin Energy      =      -0.1374855503921892 [Eh]
	 SCS Opposite-Spin Energy  =      -1.5869796346525267 [Eh]
	 SCS Correlation Energy    =      -1.7244651850447159 [Eh]
	 SCS Total Energy          =    -385.4227053556110718 [Eh]
	-----------------------------------------------------------

  Dipole Moment: [D]
     X:    -1.2776      Y:    -0.5891      Z:    -0.1054     Total:     1.4108

*** Psi4 exiting successfully. Buy a developer a beer!
