                               Psi4 1.4a3.dev225

  ==> Input File <==

--------------------------------------------------------------------------
#psi4
#
memory 32 gb

molecule  {
0 1
  O        2.5396650    -0.5551780     0.7057380
  C        0.2793208    -0.4449675    -0.2682562
  C       -0.0927650     0.9034730    -0.0869930
  C        1.7537560    -0.7902540    -0.4711970
  C       -0.6504930    -1.4595100    -0.1921940
  C       -1.4454780     1.1756780     0.1425470
  C        0.9085990     2.0263450    -0.1815640
  C       -1.9974120    -1.1732570     0.0382800
  C       -2.3931980     0.1517110     0.2151080
  H        1.8374090    -1.8385530    -0.7929100
  H        2.2124050    -0.1698090    -1.2460060
  H       -0.3343640    -2.4925800    -0.3335330
  H       -1.7609160     2.2085530     0.2816270
  H        1.7975830     1.8046110     0.4123870
  H        1.2313290     2.1813940    -1.2178320
  H        0.4699250     2.9630620     0.1727880
  H       -2.7264860    -1.9781040     0.0926730
  H       -3.4380290     0.3918270     0.3981780
  H        2.0803190    -1.0071740     1.4349120
units angstrom
no_reorient  #important for SAPT in psi4, default
symmetry c1  #important for SAPT in psi4, default
}

set PROPERTIES_ORIGIN ["COM"]
properties('MP2/aug-cc-pvtz', properties = ['dipole'])
--------------------------------------------------------------------------

    Molecular point group: c1
  Charge       = 0
  Multiplicity = 1
  Basis Set: AUG-CC-PVTZ
    Blend: AUG-CC-PVTZ
  Basis Set: (AUG-CC-PVTZ AUX)
    Blend: AUG-CC-PVTZ-JKFIT

    Orbital Energies [Eh]
    ---------------------

    Doubly Occupied:

       1A    -20.560924     2A    -11.283421     3A    -11.245613
       4A    -11.238224     5A    -11.238016     6A    -11.236742
       7A    -11.234931     8A    -11.233276     9A    -11.220469
      10A     -1.356792    11A     -1.159196    12A     -1.048272
      13A     -1.033343    14A     -0.942616    15A     -0.908356
      16A     -0.818049    17A     -0.793758    18A     -0.700674
      19A     -0.673977    20A     -0.643517    21A     -0.625971
      22A     -0.604786    23A     -0.585681    24A     -0.573223
      25A     -0.568628    26A     -0.543847    27A     -0.526278
      28A     -0.493805    29A     -0.489745    30A     -0.480055
      31A     -0.443960    32A     -0.339866    33A     -0.325069

  @DF-RHF Final Energy:  -383.75940708261021

   => Energetics <=

    Nuclear Repulsion Energy =            426.9740838748252827
    One-Electron Energy =               -1367.1248228338592980
    Two-Electron Energy =                 556.3913318764238056
    Total Energy =                       -383.7594070826102097
  Basis Set: (AUG-CC-PVTZ AUX)
    Blend: AUG-CC-PVTZ-RI
    Molecular point group: c1

    Geometry (in Angstrom), charge = 0, multiplicity = 1:

       Center              X                  Y                   Z               Mass
    ------------   -----------------  -----------------  -----------------  -----------------
         O            2.553184996184    -0.537729194672     0.698913973599    15.994914619570
         C            0.292840796184    -0.427518694672    -0.275080226401    12.000000000000
         C           -0.079245003816     0.920921805328    -0.093817026401    12.000000000000
         C            1.767275996184    -0.772805194672    -0.478021026401    12.000000000000
         C           -0.636973003816    -1.442061194672    -0.199018026401    12.000000000000
         C           -1.431958003816     1.193126805328     0.135722973599    12.000000000000
         C            0.922118996184     2.043793805328    -0.188388026401    12.000000000000
         C           -1.983892003816    -1.155808194672     0.031455973599    12.000000000000
         C           -2.379678003816     0.169159805328     0.208283973599    12.000000000000
         H            1.850928996184    -1.821104194672    -0.799734026401     1.007825032230
         H            2.225924996184    -0.152360194672    -1.252830026401     1.007825032230
         H           -0.320844003816    -2.475131194672    -0.340357026401     1.007825032230
         H           -1.747396003816     2.226001805328     0.274802973599     1.007825032230
         H            1.811102996184     1.822059805328     0.405562973599     1.007825032230
         H            1.244848996184     2.198842805328    -1.224656026401     1.007825032230
         H            0.483444996184     2.980510805328     0.165963973599     1.007825032230
         H           -2.712966003816    -1.960655194672     0.085848973599     1.007825032230
         H           -3.424509003816     0.409275805328     0.391353973599     1.007825032230
         H            2.093838996184    -0.989725194672     1.428087973599     1.007825032230

  Basis Set: AUG-CC-PVTZ
    Blend: AUG-CC-PVTZ
  Basis Set: (AUG-CC-PVTZ AUX)
    Blend: AUG-CC-PVTZ-JKFIT
	 Reference Energy          =    -383.7594070826102097 [Eh]
	 Singles Energy            =      -0.0000000000000000 [Eh]
	 Same-Spin Energy          =      -0.4129777194001764 [Eh]
	 Opposite-Spin Energy      =      -1.3205221352490306 [Eh]
	 Correlation Energy        =      -1.7334998546492071 [Eh]
	 Total Energy              =    -385.4929069372594199 [Eh]

	 ================> DF-SCS-MP2 Energies <==================
	-----------------------------------------------------------
	 SCS Same-Spin Scale       =       0.3333333333333333 [-]
	 SCS Opposite-Spin Scale   =       1.2000000000000000 [-]
	 SCS Same-Spin Energy      =      -0.1376592398000588 [Eh]
	 SCS Opposite-Spin Energy  =      -1.5846265622988367 [Eh]
	 SCS Correlation Energy    =      -1.7222858020988956 [Eh]
	 SCS Total Energy          =    -385.4816928847091049 [Eh]
	-----------------------------------------------------------

  Dipole Moment: [D]
     X:    -1.1919      Y:    -0.3953      Z:    -0.0995     Total:     1.2597

*** Psi4 exiting successfully. Buy a developer a beer!
