                               Psi4 1.4a3.dev225

  ==> Input File <==

--------------------------------------------------------------------------
#psi4
#
memory 32 gb

molecule  {
0 1
  O        2.5396650    -0.5551780     0.7057380
  C        0.3025760    -0.4378200    -0.2720190
  C       -0.0927650     0.9034730    -0.0869930
  C        1.7537560    -0.7902540    -0.4711970
  C       -0.6504930    -1.4595100    -0.1921940
  C       -1.4454780     1.1756780     0.1425470
  C        0.9085990     2.0263450    -0.1815640
  C       -2.0938854    -1.1527541     0.0547878
  C       -2.3931980     0.1517110     0.2151080
  H        1.8374090    -1.8385530    -0.7929100
  H        2.2124050    -0.1698090    -1.2460060
  H       -0.3343640    -2.4925800    -0.3335330
  H       -1.7609160     2.2085530     0.2816270
  H        1.7975830     1.8046110     0.4123870
  H        1.2313290     2.1813940    -1.2178320
  H        0.4699250     2.9630620     0.1727880
  H       -2.7264860    -1.9781040     0.0926730
  H       -3.4380290     0.3918270     0.3981780
  H        2.0803190    -1.0071740     1.4349120
units angstrom
no_reorient  #important for SAPT in psi4, default
symmetry c1  #important for SAPT in psi4, default
}

set PROPERTIES_ORIGIN ["COM"]
properties('MP2/aug-cc-pvtz', properties = ['dipole'])
--------------------------------------------------------------------------

    Molecular point group: c1
  Charge       = 0
  Multiplicity = 1
  Basis Set: AUG-CC-PVTZ
    Blend: AUG-CC-PVTZ
  Basis Set: (AUG-CC-PVTZ AUX)
    Blend: AUG-CC-PVTZ-JKFIT

    Orbital Energies [Eh]
    ---------------------

    Doubly Occupied:

       1A    -20.561090     2A    -11.283165     3A    -11.249416
       4A    -11.247165     5A    -11.239268     6A    -11.236565
       7A    -11.234088     8A    -11.232797     9A    -11.220243
      10A     -1.357541    11A     -1.154176    12A     -1.053156
      13A     -1.027688    14A     -0.939081    15A     -0.912053
      16A     -0.820481    17A     -0.791513    18A     -0.703297
      19A     -0.675827    20A     -0.644527    21A     -0.624721
      22A     -0.606854    23A     -0.595341    24A     -0.569895
      25A     -0.566239    26A     -0.541028    27A     -0.525890
      28A     -0.499394    29A     -0.485155    30A     -0.474026
      31A     -0.445475    32A     -0.340585    33A     -0.321916

  @DF-RHF Final Energy:  -383.74843971165620

   => Energetics <=

    Nuclear Repulsion Energy =            425.8454503292151685
    One-Electron Energy =               -1364.8284681451148117
    Two-Electron Energy =                 555.2345781042434965
    Total Energy =                       -383.7484397116561468
  Basis Set: (AUG-CC-PVTZ AUX)
    Blend: AUG-CC-PVTZ-RI
    Molecular point group: c1

    Geometry (in Angstrom), charge = 0, multiplicity = 1:

       Center              X                  Y                   Z               Mass
    ------------   -----------------  -----------------  -----------------  -----------------
         O            2.560382469932    -0.540447276079     0.697661118395    15.994914619570
         C            0.323293469932    -0.423089276079    -0.280095881605    12.000000000000
         C           -0.072047530068     0.918203723921    -0.095069881605    12.000000000000
         C            1.774473469932    -0.775523276079    -0.479273881605    12.000000000000
         C           -0.629775530068    -1.444779276079    -0.200270881605    12.000000000000
         C           -1.424760530068     1.190408723921     0.134470118395    12.000000000000
         C            0.929316469932     2.041075723921    -0.189640881605    12.000000000000
         C           -2.073167930068    -1.138023376079     0.046710918395    12.000000000000
         C           -2.372480530068     0.166441723921     0.207031118395    12.000000000000
         H            1.858126469932    -1.823822276079    -0.800986881605     1.007825032230
         H            2.233122469932    -0.155078276079    -1.254082881605     1.007825032230
         H           -0.313646530068    -2.477849276079    -0.341609881605     1.007825032230
         H           -1.740198530068     2.223283723921     0.273550118395     1.007825032230
         H            1.818300469932     1.819341723921     0.404310118395     1.007825032230
         H            1.252046469932     2.196124723921    -1.225908881605     1.007825032230
         H            0.490642469932     2.977792723921     0.164711118395     1.007825032230
         H           -2.705768530068    -1.963373276079     0.084596118395     1.007825032230
         H           -3.417311530068     0.406557723921     0.390101118395     1.007825032230
         H            2.101036469932    -0.992443276079     1.426835118395     1.007825032230

  Basis Set: AUG-CC-PVTZ
    Blend: AUG-CC-PVTZ
  Basis Set: (AUG-CC-PVTZ AUX)
    Blend: AUG-CC-PVTZ-JKFIT
	 Reference Energy          =    -383.7484397116562036 [Eh]
	 Singles Energy            =      -0.0000000000000000 [Eh]
	 Same-Spin Energy          =      -0.4127227683342543 [Eh]
	 Opposite-Spin Energy      =      -1.3213067716840108 [Eh]
	 Correlation Energy        =      -1.7340295400182650 [Eh]
	 Total Energy              =    -385.4824692516744449 [Eh]

	 ================> DF-SCS-MP2 Energies <==================
	-----------------------------------------------------------
	 SCS Same-Spin Scale       =       0.3333333333333333 [-]
	 SCS Opposite-Spin Scale   =       1.2000000000000000 [-]
	 SCS Same-Spin Energy      =      -0.1375742561114181 [Eh]
	 SCS Opposite-Spin Energy  =      -1.5855681260208130 [Eh]
	 SCS Correlation Energy    =      -1.7231423821322311 [Eh]
	 SCS Total Energy          =    -385.4715820937884132 [Eh]
	-----------------------------------------------------------

  Dipole Moment: [D]
     X:    -1.1870      Y:    -0.4287      Z:    -0.1067     Total:     1.2665

*** Psi4 exiting successfully. Buy a developer a beer!
