                               Psi4 1.4a3.dev225

  ==> Input File <==

--------------------------------------------------------------------------
#psi4
#
memory 32 gb

molecule  {
0 1
  O        2.5396650    -0.5551780     0.7057380
  C        0.3025760    -0.4378200    -0.2720190
  C       -0.0927650     0.9034730    -0.0869930
  C        1.7537560    -0.7902540    -0.4711970
  C       -0.6504930    -1.4595100    -0.1921940
  C       -1.4454780     1.1756780     0.1425470
  C        0.9085990     2.0263450    -0.1815640
  C       -1.9974120    -1.1732570     0.0382800
  C       -2.3931980     0.1517110     0.2151080
  H        1.8374090    -1.8385530    -0.7929100
  H        2.2124050    -0.1698090    -1.2460060
  H       -0.3285611    -2.5115430    -0.3361274
  H       -1.7609160     2.2085530     0.2816270
  H        1.7975830     1.8046110     0.4123870
  H        1.2313290     2.1813940    -1.2178320
  H        0.4699250     2.9630620     0.1727880
  H       -2.7264860    -1.9781040     0.0926730
  H       -3.4380290     0.3918270     0.3981780
  H        2.0803190    -1.0071740     1.4349120
units angstrom
no_reorient  #important for SAPT in psi4, default
symmetry c1  #important for SAPT in psi4, default
}

set PROPERTIES_ORIGIN ["COM"]
properties('MP2/aug-cc-pvtz', properties = ['dipole'])
--------------------------------------------------------------------------

    Molecular point group: c1
  Charge       = 0
  Multiplicity = 1
  Basis Set: AUG-CC-PVTZ
    Blend: AUG-CC-PVTZ
  Basis Set: (AUG-CC-PVTZ AUX)
    Blend: AUG-CC-PVTZ-JKFIT

    Orbital Energies [Eh]
    ---------------------

    Doubly Occupied:

       1A    -20.560897     2A    -11.282733     3A    -11.246043
       4A    -11.242358     5A    -11.238920     6A    -11.238466
       7A    -11.235423     8A    -11.233672     9A    -11.219932
      10A     -1.357296    11A     -1.157597    12A     -1.049399
      13A     -1.032252    14A     -0.943555    15A     -0.908538
      16A     -0.816986    17A     -0.792472    18A     -0.700978
      19A     -0.673987    20A     -0.644143    21A     -0.624548
      22A     -0.604953    23A     -0.585925    24A     -0.572818
      25A     -0.568660    26A     -0.543514    27A     -0.526298
      28A     -0.493215    29A     -0.488303    30A     -0.478314
      31A     -0.447488    32A     -0.337673    33A     -0.325807

  @DF-RHF Final Energy:  -383.75892954469145

   => Energetics <=

    Nuclear Repulsion Energy =            426.8074752276647814
    One-Electron Energy =               -1366.7864887005036962
    Two-Electron Energy =                 556.2200839281474600
    Total Energy =                       -383.7589295446914548
  Basis Set: (AUG-CC-PVTZ AUX)
    Blend: AUG-CC-PVTZ-RI
    Molecular point group: c1

    Geometry (in Angstrom), charge = 0, multiplicity = 1:

       Center              X                  Y                   Z               Mass
    ------------   -----------------  -----------------  -----------------  -----------------
         O            2.550851062203    -0.538275249277     0.699305282379    15.994914619570
         C            0.313762062203    -0.420917249277    -0.278451717621    12.000000000000
         C           -0.081578937797     0.920375750723    -0.093425717621    12.000000000000
         C            1.764942062203    -0.773351249277    -0.477629717621    12.000000000000
         C           -0.639306937797    -1.442607249277    -0.198626717621    12.000000000000
         C           -1.434291937797     1.192580750723     0.136114282379    12.000000000000
         C            0.919785062203     2.043247750723    -0.187996717621    12.000000000000
         C           -1.986225937797    -1.156354249277     0.031847282379    12.000000000000
         C           -2.382011937797     0.168613750723     0.208675282379    12.000000000000
         H            1.848595062203    -1.821650249277    -0.799342717621     1.007825032230
         H            2.223591062203    -0.152906249277    -1.252438717621     1.007825032230
         H           -0.317375037797    -2.494640249277    -0.342560117621     1.007825032230
         H           -1.749729937797     2.225455750723     0.275194282379     1.007825032230
         H            1.808769062203     1.821513750723     0.405954282379     1.007825032230
         H            1.242515062203     2.198296750723    -1.224264717621     1.007825032230
         H            0.481111062203     2.979964750723     0.166355282379     1.007825032230
         H           -2.715299937797    -1.961201249277     0.086240282379     1.007825032230
         H           -3.426842937797     0.408729750723     0.391745282379     1.007825032230
         H            2.091505062203    -0.990271249277     1.428479282379     1.007825032230

  Basis Set: AUG-CC-PVTZ
    Blend: AUG-CC-PVTZ
  Basis Set: (AUG-CC-PVTZ AUX)
    Blend: AUG-CC-PVTZ-JKFIT
	 Reference Energy          =    -383.7589295446914548 [Eh]
	 Singles Energy            =      -0.0000000000000000 [Eh]
	 Same-Spin Energy          =      -0.4132299186141324 [Eh]
	 Opposite-Spin Energy      =      -1.3209339117084200 [Eh]
	 Correlation Energy        =      -1.7341638303225524 [Eh]
	 Total Energy              =    -385.4930933750139843 [Eh]

	 ================> DF-SCS-MP2 Energies <==================
	-----------------------------------------------------------
	 SCS Same-Spin Scale       =       0.3333333333333333 [-]
	 SCS Opposite-Spin Scale   =       1.2000000000000000 [-]
	 SCS Same-Spin Energy      =      -0.1377433062047108 [Eh]
	 SCS Opposite-Spin Energy  =      -1.5851206940501039 [Eh]
	 SCS Correlation Energy    =      -1.7228640002548148 [Eh]
	 SCS Total Energy          =    -385.4817935449462425 [Eh]
	-----------------------------------------------------------

  Dipole Moment: [D]
     X:    -1.2043      Y:    -0.3913      Z:    -0.1011     Total:     1.2703

*** Psi4 exiting successfully. Buy a developer a beer!
