                               Psi4 1.4a3.dev225

  ==> Input File <==

--------------------------------------------------------------------------
#psi4
#
memory 32 gb

molecule  {
0 1
  O        2.5396650    -0.5551780     0.7057380
  C        0.3025760    -0.4378200    -0.2720190
  C       -0.0927650     0.9034730    -0.0869930
  C        1.7537560    -0.7902540    -0.4711970
  C       -0.6504930    -1.4595100    -0.1921940
  C       -1.4454780     1.1756780     0.1425470
  C        0.9085990     2.0263450    -0.1815640
  C       -1.9974120    -1.1732570     0.0382800
  C       -2.3931980     0.1517110     0.2151080
  H        1.8374090    -1.8385530    -0.7929100
  H        2.2124050    -0.1698090    -1.2460060
  H       -0.3343640    -2.4925800    -0.3335330
  H       -1.7609160     2.2085530     0.2816270
  H        1.7975830     1.8046110     0.4123870
  H        1.2313290     2.1813940    -1.2178320
  H        0.4699250     2.9630620     0.1727880
  H       -2.7264860    -1.9781040     0.0926730
  H       -3.4860634     0.4028659     0.4065944
  H        2.0803190    -1.0071740     1.4349120
units angstrom
no_reorient  #important for SAPT in psi4, default
symmetry c1  #important for SAPT in psi4, default
}

set PROPERTIES_ORIGIN ["COM"]
properties('MP2/aug-cc-pvtz', properties = ['dipole'])
--------------------------------------------------------------------------

    Molecular point group: c1
  Charge       = 0
  Multiplicity = 1
  Basis Set: AUG-CC-PVTZ
    Blend: AUG-CC-PVTZ
  Basis Set: (AUG-CC-PVTZ AUX)
    Blend: AUG-CC-PVTZ-JKFIT

    Orbital Energies [Eh]
    ---------------------

    Doubly Occupied:

       1A    -20.561046     2A    -11.282918     3A    -11.246242
       4A    -11.244446     5A    -11.240493     6A    -11.238384
       7A    -11.235751     8A    -11.234119     9A    -11.220067
      10A     -1.357449    11A     -1.157703    12A     -1.048938
      13A     -1.032423    14A     -0.943688    15A     -0.907671
      16A     -0.818268    17A     -0.790059    18A     -0.700851
      19A     -0.673262    20A     -0.640911    21A     -0.625240
      22A     -0.605391    23A     -0.586248    24A     -0.572643
      25A     -0.568814    26A     -0.542076    27A     -0.524825
      28A     -0.493763    29A     -0.488513    30A     -0.477890
      31A     -0.447409    32A     -0.337858    33A     -0.325967

  @DF-RHF Final Energy:  -383.75712990966997

   => Energetics <=

    Nuclear Repulsion Energy =            426.6610671522946632
    One-Electron Energy =               -1366.4937415922840955
    Two-Electron Energy =                 556.0755445303194620
    Total Energy =                       -383.7571299096699704
  Basis Set: (AUG-CC-PVTZ AUX)
    Blend: AUG-CC-PVTZ-RI
    Molecular point group: c1

    Geometry (in Angstrom), charge = 0, multiplicity = 1:

       Center              X                  Y                   Z               Mass
    ------------   -----------------  -----------------  -----------------  -----------------
         O            2.551295538092    -0.538522942256     0.699214378208    15.994914619570
         C            0.314206538092    -0.421164942256    -0.278542621792    12.000000000000
         C           -0.081134461908     0.920128057744    -0.093516621792    12.000000000000
         C            1.765386538092    -0.773598942256    -0.477720621792    12.000000000000
         C           -0.638862461908    -1.442854942256    -0.198717621792    12.000000000000
         C           -1.433847461908     1.192333057744     0.136023378208    12.000000000000
         C            0.920229538092     2.043000057744    -0.188087621792    12.000000000000
         C           -1.985781461908    -1.156601942256     0.031756378208    12.000000000000
         C           -2.381567461908     0.168366057744     0.208584378208    12.000000000000
         H            1.849039538092    -1.821897942256    -0.799433621792     1.007825032230
         H            2.224035538092    -0.153153942256    -1.252529621792     1.007825032230
         H           -0.322733461908    -2.475924942256    -0.340056621792     1.007825032230
         H           -1.749285461908     2.225208057744     0.275103378208     1.007825032230
         H            1.809213538092     1.821266057744     0.405863378208     1.007825032230
         H            1.242959538092     2.198049057744    -1.224355621792     1.007825032230
         H            0.481555538092     2.979717057744     0.166264378208     1.007825032230
         H           -2.714855461908    -1.961448942256     0.086149378208     1.007825032230
         H           -3.474432861908     0.419520957744     0.400070778208     1.007825032230
         H            2.091949538092    -0.990518942256     1.428388378208     1.007825032230

  Basis Set: AUG-CC-PVTZ
    Blend: AUG-CC-PVTZ
  Basis Set: (AUG-CC-PVTZ AUX)
    Blend: AUG-CC-PVTZ-JKFIT
	 Reference Energy          =    -383.7571299096699704 [Eh]
	 Singles Energy            =      -0.0000000000000000 [Eh]
	 Same-Spin Energy          =      -0.4132768442561749 [Eh]
	 Opposite-Spin Energy      =      -1.3212046629237812 [Eh]
	 Correlation Energy        =      -1.7344815071799562 [Eh]
	 Total Energy              =    -385.4916114168499348 [Eh]

	 ================> DF-SCS-MP2 Energies <==================
	-----------------------------------------------------------
	 SCS Same-Spin Scale       =       0.3333333333333333 [-]
	 SCS Opposite-Spin Scale   =       1.2000000000000000 [-]
	 SCS Same-Spin Energy      =      -0.1377589480853916 [Eh]
	 SCS Opposite-Spin Energy  =      -1.5854455955085374 [Eh]
	 SCS Correlation Energy    =      -1.7232045435939289 [Eh]
	 SCS Total Energy          =    -385.4803344532638789 [Eh]
	-----------------------------------------------------------

  Dipole Moment: [D]
     X:    -1.1777      Y:    -0.4039      Z:    -0.1060     Total:     1.2495

*** Psi4 exiting successfully. Buy a developer a beer!
