                               Psi4 1.4a3.dev225

  ==> Input File <==

--------------------------------------------------------------------------
#psi4
#
memory 32 gb

molecule  {
0 1
  O        2.5396650    -0.5551780     0.7057380
  C        0.3198253    -0.4545460    -0.2764121
  C       -0.0927650     0.9034730    -0.0869930
  C        1.7537560    -0.7902540    -0.4711970
  C       -0.6504930    -1.4595100    -0.1921940
  C       -1.4454780     1.1756780     0.1425470
  C        0.9085990     2.0263450    -0.1815640
  C       -1.9974120    -1.1732570     0.0382800
  C       -2.3931980     0.1517110     0.2151080
  H        1.8374090    -1.8385530    -0.7929100
  H        2.2124050    -0.1698090    -1.2460060
  H       -0.3343640    -2.4925800    -0.3335330
  H       -1.7609160     2.2085530     0.2816270
  H        1.7975830     1.8046110     0.4123870
  H        1.2313290     2.1813940    -1.2178320
  H        0.4699250     2.9630620     0.1727880
  H       -2.7264860    -1.9781040     0.0926730
  H       -3.4380290     0.3918270     0.3981780
  H        2.0803190    -1.0071740     1.4349120
units angstrom
no_reorient  #important for SAPT in psi4, default
symmetry c1  #important for SAPT in psi4, default
}

set PROPERTIES_ORIGIN ["COM"]
properties('MP2/aug-cc-pvtz', properties = ['dipole'])
--------------------------------------------------------------------------

    Molecular point group: c1
  Charge       = 0
  Multiplicity = 1
  Basis Set: AUG-CC-PVTZ
    Blend: AUG-CC-PVTZ
  Basis Set: (AUG-CC-PVTZ AUX)
    Blend: AUG-CC-PVTZ-JKFIT

    Orbital Energies [Eh]
    ---------------------

    Doubly Occupied:

       1A    -20.561145     2A    -11.282038     3A    -11.248435
       4A    -11.240697     5A    -11.239405     6A    -11.239166
       7A    -11.235188     8A    -11.233409     9A    -11.219788
      10A     -1.357943    11A     -1.155873    12A     -1.048932
      13A     -1.034676    14A     -0.945081    15A     -0.908783
      16A     -0.815329    17A     -0.793217    18A     -0.702345
      19A     -0.674474    20A     -0.646765    21A     -0.624622
      22A     -0.606005    23A     -0.586629    24A     -0.572825
      25A     -0.568363    26A     -0.543512    27A     -0.526628
      28A     -0.493450    29A     -0.487170    30A     -0.478870
      31A     -0.448827    32A     -0.338317    33A     -0.323516

  @DF-RHF Final Energy:  -383.75836945441779

   => Energetics <=

    Nuclear Repulsion Energy =            426.7634349678855870
    One-Electron Energy =               -1366.6807702662599695
    Two-Electron Energy =                 556.1589658439565937
    Total Energy =                       -383.7583694544177888
  Basis Set: (AUG-CC-PVTZ AUX)
    Blend: AUG-CC-PVTZ-RI
    Molecular point group: c1

    Geometry (in Angstrom), charge = 0, multiplicity = 1:

       Center              X                  Y                   Z               Mass
    ------------   -----------------  -----------------  -----------------  -----------------
         O            2.549203334856    -0.536787611810     0.699715712459    15.994914619570
         C            0.329363634856    -0.436155611810    -0.282434387541    12.000000000000
         C           -0.083226665144     0.921863388190    -0.093015287541    12.000000000000
         C            1.763294334856    -0.771863611810    -0.477219287541    12.000000000000
         C           -0.640954665144    -1.441119611810    -0.198216287541    12.000000000000
         C           -1.435939665144     1.194068388190     0.136524712459    12.000000000000
         C            0.918137334856     2.044735388190    -0.187586287541    12.000000000000
         C           -1.987873665144    -1.154866611810     0.032257712459    12.000000000000
         C           -2.383659665144     0.170101388190     0.209085712459    12.000000000000
         H            1.846947334856    -1.820162611810    -0.798932287541     1.007825032230
         H            2.221943334856    -0.151418611810    -1.252028287541     1.007825032230
         H           -0.324825665144    -2.474189611810    -0.339555287541     1.007825032230
         H           -1.751377665144     2.226943388190     0.275604712459     1.007825032230
         H            1.807121334856     1.823001388190     0.406364712459     1.007825032230
         H            1.240867334856     2.199784388190    -1.223854287541     1.007825032230
         H            0.479463334856     2.981452388190     0.166765712459     1.007825032230
         H           -2.716947665144    -1.959713611810     0.086650712459     1.007825032230
         H           -3.428490665144     0.410217388190     0.392155712459     1.007825032230
         H            2.089857334856    -0.988783611810     1.428889712459     1.007825032230

  Basis Set: AUG-CC-PVTZ
    Blend: AUG-CC-PVTZ
  Basis Set: (AUG-CC-PVTZ AUX)
    Blend: AUG-CC-PVTZ-JKFIT
	 Reference Energy          =    -383.7583694544177888 [Eh]
	 Singles Energy            =      -0.0000000000000000 [Eh]
	 Same-Spin Energy          =      -0.4133548496310397 [Eh]
	 Opposite-Spin Energy      =      -1.3210562690858536 [Eh]
	 Correlation Energy        =      -1.7344111187168934 [Eh]
	 Total Energy              =    -385.4927805731346666 [Eh]

	 ================> DF-SCS-MP2 Energies <==================
	-----------------------------------------------------------
	 SCS Same-Spin Scale       =       0.3333333333333333 [-]
	 SCS Opposite-Spin Scale   =       1.2000000000000000 [-]
	 SCS Same-Spin Energy      =      -0.1377849498770132 [Eh]
	 SCS Opposite-Spin Energy  =      -1.5852675229030242 [Eh]
	 SCS Correlation Energy    =      -1.7230524727800374 [Eh]
	 SCS Total Energy          =    -385.4814219271978004 [Eh]
	-----------------------------------------------------------

  Dipole Moment: [D]
     X:    -1.2062      Y:    -0.3920      Z:    -0.1020     Total:     1.2724

*** Psi4 exiting successfully. Buy a developer a beer!
