                               Psi4 1.4a3.dev225

  ==> Input File <==

--------------------------------------------------------------------------
#psi4
#
memory 32 gb

molecule  {
0 1
  O        2.5396650    -0.5551780     0.7057380
  C        0.3025760    -0.4378200    -0.2720190
  C       -0.0927650     0.9034730    -0.0869930
  C        1.7537560    -0.7902540    -0.4711970
  C       -0.6504930    -1.4595100    -0.1921940
  C       -1.4454780     1.1756780     0.1425470
  C        0.9085990     2.0263450    -0.1815640
  C       -1.9974120    -1.1732570     0.0382800
  C       -2.3931980     0.1517110     0.2151080
  H        1.8374090    -1.8385530    -0.7929100
  H        2.2124050    -0.1698090    -1.2460060
  H       -0.3343640    -2.4925800    -0.3335330
  H       -1.7609160     2.2085530     0.2816270
  H        1.7975830     1.8046110     0.4123870
  H        1.2313290     2.1813940    -1.2178320
  H        0.4699250     2.9630620     0.1727880
  H       -2.7264860    -1.9781040     0.0926730
  H       -3.5340979     0.4139049     0.4150107
  H        2.0803190    -1.0071740     1.4349120
units angstrom
no_reorient  #important for SAPT in psi4, default
symmetry c1  #important for SAPT in psi4, default
}

set PROPERTIES_ORIGIN ["COM"]
properties('MP2/aug-cc-pvtz', properties = ['dipole'])
--------------------------------------------------------------------------

    Molecular point group: c1
  Charge       = 0
  Multiplicity = 1
  Basis Set: AUG-CC-PVTZ
    Blend: AUG-CC-PVTZ
  Basis Set: (AUG-CC-PVTZ AUX)
    Blend: AUG-CC-PVTZ-JKFIT

    Orbital Energies [Eh]
    ---------------------

    Doubly Occupied:

       1A    -20.561209     2A    -11.283108     3A    -11.249984
       4A    -11.246652     5A    -11.240898     6A    -11.238658
       7A    -11.236335     8A    -11.234701     9A    -11.220318
      10A     -1.357615    11A     -1.157923    12A     -1.048759
      13A     -1.032281    14A     -0.943813    15A     -0.906992
      16A     -0.818388    17A     -0.788124    18A     -0.700812
      19A     -0.672312    20A     -0.637433    21A     -0.625109
      22A     -0.605582    23A     -0.585848    24A     -0.572232
      25A     -0.569030    26A     -0.540856    27A     -0.522976
      28A     -0.493255    29A     -0.488917    30A     -0.477353
      31A     -0.447316    32A     -0.338210    33A     -0.326311

  @DF-RHF Final Energy:  -383.75223064663561

   => Energetics <=

    Nuclear Repulsion Energy =            426.4279381400576199
    One-Electron Energy =               -1366.0217170332289243
    Two-Electron Energy =                 555.8415482465356945
    Total Energy =                       -383.7522306466355531
  Basis Set: (AUG-CC-PVTZ AUX)
    Blend: AUG-CC-PVTZ-RI
    Molecular point group: c1

    Geometry (in Angstrom), charge = 0, multiplicity = 1:

       Center              X                  Y                   Z               Mass
    ------------   -----------------  -----------------  -----------------  -----------------
         O            2.551692106589    -0.538614079243     0.699144893995    15.994914619570
         C            0.314603106589    -0.421256079243    -0.278612106005    12.000000000000
         C           -0.080737893411     0.920036920757    -0.093586106005    12.000000000000
         C            1.765783106589    -0.773690079243    -0.477790106005    12.000000000000
         C           -0.638465893411    -1.442946079243    -0.198787106005    12.000000000000
         C           -1.433450893411     1.192241920757     0.135953893995    12.000000000000
         C            0.920626106589     2.042908920757    -0.188157106005    12.000000000000
         C           -1.985384893411    -1.156693079243     0.031686893995    12.000000000000
         C           -2.381170893411     0.168274920757     0.208514893995    12.000000000000
         H            1.849436106589    -1.821989079243    -0.799503106005     1.007825032230
         H            2.224432106589    -0.153245079243    -1.252599106005     1.007825032230
         H           -0.322336893411    -2.476016079243    -0.340126106005     1.007825032230
         H           -1.748888893411     2.225116920757     0.275033893995     1.007825032230
         H            1.809610106589     1.821174920757     0.405793893995     1.007825032230
         H            1.243356106589     2.197957920757    -1.224425106005     1.007825032230
         H            0.481952106589     2.979625920757     0.166194893995     1.007825032230
         H           -2.714458893411    -1.961540079243     0.086079893995     1.007825032230
         H           -3.522070793411     0.430468820757     0.408417593995     1.007825032230
         H            2.092346106589    -0.990610079243     1.428318893995     1.007825032230

  Basis Set: AUG-CC-PVTZ
    Blend: AUG-CC-PVTZ
  Basis Set: (AUG-CC-PVTZ AUX)
    Blend: AUG-CC-PVTZ-JKFIT
	 Reference Energy          =    -383.7522306466356099 [Eh]
	 Singles Energy            =      -0.0000000000000000 [Eh]
	 Same-Spin Energy          =      -0.4133883907076212 [Eh]
	 Opposite-Spin Energy      =      -1.3217296778575887 [Eh]
	 Correlation Energy        =      -1.7351180685652099 [Eh]
	 Total Energy              =    -385.4873487152008238 [Eh]

	 ================> DF-SCS-MP2 Energies <==================
	-----------------------------------------------------------
	 SCS Same-Spin Scale       =       0.3333333333333333 [-]
	 SCS Opposite-Spin Scale   =       1.2000000000000000 [-]
	 SCS Same-Spin Energy      =      -0.1377961302358737 [Eh]
	 SCS Opposite-Spin Energy  =      -1.5860756134291063 [Eh]
	 SCS Correlation Energy    =      -1.7238717436649800 [Eh]
	 SCS Total Energy          =    -385.4761023903005821 [Eh]
	-----------------------------------------------------------

  Dipole Moment: [D]
     X:    -1.1493      Y:    -0.4081      Z:    -0.1107     Total:     1.2246

*** Psi4 exiting successfully. Buy a developer a beer!
