                               Psi4 1.4a3.dev225

  ==> Input File <==

--------------------------------------------------------------------------
#psi4
#
memory 32 gb

molecule  {
0 1
  O        2.5396650    -0.5551780     0.7057380
  C        0.3025760    -0.4378200    -0.2720190
  C       -0.0927650     0.9034730    -0.0869930
  C        1.7537560    -0.7902540    -0.4711970
  C       -0.6504930    -1.4595100    -0.1921940
  C       -1.4454780     1.1756780     0.1425470
  C        0.9085990     2.0263450    -0.1815640
  C       -1.9974120    -1.1732570     0.0382800
  C       -2.3931980     0.1517110     0.2151080
  H        1.8374090    -1.8385530    -0.7929100
  H        2.2124050    -0.1698090    -1.2460060
  H       -0.3343640    -2.4925800    -0.3335330
  H       -1.7609160     2.2085530     0.2816270
  H        1.7975830     1.8046110     0.4123870
  H        1.2313290     2.1813940    -1.2178320
  H        0.4699250     2.9630620     0.1727880
  H       -2.7264860    -1.9781040     0.0926730
  H       -3.3899946     0.3807881     0.3897616
  H        2.0803190    -1.0071740     1.4349120
units angstrom
no_reorient  #important for SAPT in psi4, default
symmetry c1  #important for SAPT in psi4, default
}

set PROPERTIES_ORIGIN ["COM"]
properties('MP2/aug-cc-pvtz', properties = ['dipole'])
--------------------------------------------------------------------------

    Molecular point group: c1
  Charge       = 0
  Multiplicity = 1
  Basis Set: AUG-CC-PVTZ
    Blend: AUG-CC-PVTZ
  Basis Set: (AUG-CC-PVTZ AUX)
    Blend: AUG-CC-PVTZ-JKFIT

    Orbital Energies [Eh]
    ---------------------

    Doubly Occupied:

       1A    -20.560802     2A    -11.282630     3A    -11.245551
       4A    -11.239826     5A    -11.237976     6A    -11.235037
       7A    -11.233533     8A    -11.232145     9A    -11.219649
      10A     -1.357200    11A     -1.157556    12A     -1.049964
      13A     -1.033012    14A     -0.943716    15A     -0.909717
      16A     -0.818457    17A     -0.795253    18A     -0.701310
      19A     -0.676742    20A     -0.648514    21A     -0.625258
      22A     -0.605082    23A     -0.587234    24A     -0.573484
      25A     -0.568441    26A     -0.544851    27A     -0.527262
      28A     -0.494510    29A     -0.487861    30A     -0.478455
      31A     -0.447524    32A     -0.337317    33A     -0.325425

  @DF-RHF Final Energy:  -383.75880923175464

   => Energetics <=

    Nuclear Repulsion Energy =            427.1698847961403658
    One-Electron Energy =               -1367.4948034457904669
    Two-Electron Energy =                 556.5661094178954045
    Total Energy =                       -383.7588092317546398
  Basis Set: (AUG-CC-PVTZ AUX)
    Blend: AUG-CC-PVTZ-RI
    Molecular point group: c1

    Geometry (in Angstrom), charge = 0, multiplicity = 1:

       Center              X                  Y                   Z               Mass
    ------------   -----------------  -----------------  -----------------  -----------------
         O            2.550502402750    -0.538340669931     0.699353348286    15.994914619570
         C            0.313413402750    -0.420982669931    -0.278403651714    12.000000000000
         C           -0.081927597250     0.920310330069    -0.093377651714    12.000000000000
         C            1.764593402750    -0.773416669931    -0.477581651714    12.000000000000
         C           -0.639655597250    -1.442672669931    -0.198578651714    12.000000000000
         C           -1.434640597250     1.192515330069     0.136162348286    12.000000000000
         C            0.919436402750     2.043182330069    -0.187948651714    12.000000000000
         C           -1.986574597250    -1.156419669931     0.031895348286    12.000000000000
         C           -2.382360597250     0.168548330069     0.208723348286    12.000000000000
         H            1.848246402750    -1.821715669931    -0.799294651714     1.007825032230
         H            2.223242402750    -0.152971669931    -1.252390651714     1.007825032230
         H           -0.323526597250    -2.475742669931    -0.339917651714     1.007825032230
         H           -1.750078597250     2.225390330069     0.275242348286     1.007825032230
         H            1.808420402750     1.821448330069     0.406002348286     1.007825032230
         H            1.242166402750     2.198231330069    -1.224216651714     1.007825032230
         H            0.480762402750     2.979899330069     0.166403348286     1.007825032230
         H           -2.715648597250    -1.961266669931     0.086288348286     1.007825032230
         H           -3.379157197250     0.397625430069     0.383376948286     1.007825032230
         H            2.091156402750    -0.990336669931     1.428527348286     1.007825032230

  Basis Set: AUG-CC-PVTZ
    Blend: AUG-CC-PVTZ
  Basis Set: (AUG-CC-PVTZ AUX)
    Blend: AUG-CC-PVTZ-JKFIT
	 Reference Energy          =    -383.7588092317546398 [Eh]
	 Singles Energy            =      -0.0000000000000000 [Eh]
	 Same-Spin Energy          =      -0.4131019009928117 [Eh]
	 Opposite-Spin Energy      =      -1.3204536212893081 [Eh]
	 Correlation Energy        =      -1.7335555222821197 [Eh]
	 Total Energy              =    -385.4923647540367710 [Eh]

	 ================> DF-SCS-MP2 Energies <==================
	-----------------------------------------------------------
	 SCS Same-Spin Scale       =       0.3333333333333333 [-]
	 SCS Opposite-Spin Scale   =       1.2000000000000000 [-]
	 SCS Same-Spin Energy      =      -0.1377006336642705 [Eh]
	 SCS Opposite-Spin Energy  =      -1.5845443455471697 [Eh]
	 SCS Correlation Energy    =      -1.7222449792114403 [Eh]
	 SCS Total Energy          =    -385.4810542109660787 [Eh]
	-----------------------------------------------------------

  Dipole Moment: [D]
     X:    -1.2207      Y:    -0.3981      Z:    -0.0990     Total:     1.2878

*** Psi4 exiting successfully. Buy a developer a beer!
