                               Psi4 1.4a3.dev225

  ==> Input File <==

--------------------------------------------------------------------------
#psi4
#
memory 32 gb

molecule  {
0 1
  O        2.5396650    -0.5551780     0.7057380
  C        0.3025760    -0.4378200    -0.2720190
  C       -0.0927650     0.9034730    -0.0869930
  C        1.7537560    -0.7902540    -0.4711970
  C       -0.6504930    -1.4595100    -0.1921940
  C       -1.4454780     1.1756780     0.1425470
  C        0.9085990     2.0263450    -0.1815640
  C       -1.9009386    -1.1937599     0.0217722
  C       -2.3931980     0.1517110     0.2151080
  H        1.8374090    -1.8385530    -0.7929100
  H        2.2124050    -0.1698090    -1.2460060
  H       -0.3343640    -2.4925800    -0.3335330
  H       -1.7609160     2.2085530     0.2816270
  H        1.7975830     1.8046110     0.4123870
  H        1.2313290     2.1813940    -1.2178320
  H        0.4699250     2.9630620     0.1727880
  H       -2.7264860    -1.9781040     0.0926730
  H       -3.4380290     0.3918270     0.3981780
  H        2.0803190    -1.0071740     1.4349120
units angstrom
no_reorient  #important for SAPT in psi4, default
symmetry c1  #important for SAPT in psi4, default
}

set PROPERTIES_ORIGIN ["COM"]
properties('MP2/aug-cc-pvtz', properties = ['dipole'])
--------------------------------------------------------------------------

    Molecular point group: c1
  Charge       = 0
  Multiplicity = 1
  Basis Set: AUG-CC-PVTZ
    Blend: AUG-CC-PVTZ
  Basis Set: (AUG-CC-PVTZ AUX)
    Blend: AUG-CC-PVTZ-JKFIT

    Orbital Energies [Eh]
    ---------------------

    Doubly Occupied:

       1A    -20.560670     2A    -11.282258     3A    -11.244956
       4A    -11.243513     5A    -11.237312     6A    -11.234220
       7A    -11.233572     8A    -11.226945     9A    -11.219610
      10A     -1.357027    11A     -1.163291    12A     -1.053154
      13A     -1.033595    14A     -0.950079    15A     -0.903545
      16A     -0.816515    17A     -0.792923    18A     -0.698555
      19A     -0.675111    20A     -0.646586    21A     -0.625535
      22A     -0.604473    23A     -0.591202    24A     -0.571376
      25A     -0.565278    26A     -0.542373    27A     -0.526464
      28A     -0.493595    29A     -0.492648    30A     -0.468431
      31A     -0.448136    32A     -0.347589    33A     -0.320183

  @DF-RHF Final Energy:  -383.74555475202374

   => Energetics <=

    Nuclear Repulsion Energy =            428.1041122543201709
    One-Electron Energy =               -1369.3578944656690055
    Two-Electron Energy =                 557.5082274593250986
    Total Energy =                       -383.7455547520237360
  Basis Set: (AUG-CC-PVTZ AUX)
    Blend: AUG-CC-PVTZ-RI
    Molecular point group: c1

    Geometry (in Angstrom), charge = 0, multiplicity = 1:

       Center              X                  Y                   Z               Mass
    ------------   -----------------  -----------------  -----------------  -----------------
         O            2.541415470911    -0.536416336108     0.700906608099    15.994914619570
         C            0.304326470911    -0.419058336108    -0.276850391901    12.000000000000
         C           -0.091014529089     0.922234663892    -0.091824391901    12.000000000000
         C            1.755506470911    -0.771492336108    -0.476028391901    12.000000000000
         C           -0.648742529089    -1.440748336108    -0.197025391901    12.000000000000
         C           -1.443727529089     1.194439663892     0.137715608099    12.000000000000
         C            0.910349470911     2.045106663892    -0.186395391901    12.000000000000
         C           -1.899188129089    -1.174998236108     0.016940808099    12.000000000000
         C           -2.391447529089     0.170472663892     0.210276608099    12.000000000000
         H            1.839159470911    -1.819791336108    -0.797741391901     1.007825032230
         H            2.214155470911    -0.151047336108    -1.250837391901     1.007825032230
         H           -0.332613529089    -2.473818336108    -0.338364391901     1.007825032230
         H           -1.759165529089     2.227314663892     0.276795608099     1.007825032230
         H            1.799333470911     1.823372663892     0.407555608099     1.007825032230
         H            1.233079470911     2.200155663892    -1.222663391901     1.007825032230
         H            0.471675470911     2.981823663892     0.167956608099     1.007825032230
         H           -2.724735529089    -1.959342336108     0.087841608099     1.007825032230
         H           -3.436278529089     0.410588663892     0.393346608099     1.007825032230
         H            2.082069470911    -0.988412336108     1.430080608099     1.007825032230

  Basis Set: AUG-CC-PVTZ
    Blend: AUG-CC-PVTZ
  Basis Set: (AUG-CC-PVTZ AUX)
    Blend: AUG-CC-PVTZ-JKFIT
	 Reference Energy          =    -383.7455547520237360 [Eh]
	 Singles Energy            =      -0.0000000000000000 [Eh]
	 Same-Spin Energy          =      -0.4133653624721630 [Eh]
	 Opposite-Spin Energy      =      -1.3213435651934249 [Eh]
	 Correlation Energy        =      -1.7347089276655878 [Eh]
	 Total Energy              =    -385.4802636796893012 [Eh]

	 ================> DF-SCS-MP2 Energies <==================
	-----------------------------------------------------------
	 SCS Same-Spin Scale       =       0.3333333333333333 [-]
	 SCS Opposite-Spin Scale   =       1.2000000000000000 [-]
	 SCS Same-Spin Energy      =      -0.1377884541573877 [Eh]
	 SCS Opposite-Spin Energy  =      -1.5856122782321098 [Eh]
	 SCS Correlation Energy    =      -1.7234007323894975 [Eh]
	 SCS Total Energy          =    -385.4689554844132431 [Eh]
	-----------------------------------------------------------

  Dipole Moment: [D]
     X:    -1.2065      Y:    -0.3620      Z:    -0.0984     Total:     1.2634

*** Psi4 exiting successfully. Buy a developer a beer!
