                               Psi4 1.4a3.dev225

  ==> Input File <==

--------------------------------------------------------------------------
#psi4
#
memory 32 gb

molecule  {
0 1
  O        2.5396650    -0.5551780     0.7057380
  C        0.3025760    -0.4378200    -0.2720190
  C       -0.0927650     0.9034730    -0.0869930
  C        1.7537560    -0.7902540    -0.4711970
  C       -0.6504930    -1.4595100    -0.1921940
  C       -1.4454780     1.1756780     0.1425470
  C        0.9085990     2.0263450    -0.1815640
  C       -1.9974120    -1.1732570     0.0382800
  C       -2.3931980     0.1517110     0.2151080
  H        1.8374090    -1.8385530    -0.7929100
  H        2.1914325    -0.1981799    -1.2105765
  H       -0.3343640    -2.4925800    -0.3335330
  H       -1.7609160     2.2085530     0.2816270
  H        1.7975830     1.8046110     0.4123870
  H        1.2313290     2.1813940    -1.2178320
  H        0.4699250     2.9630620     0.1727880
  H       -2.7264860    -1.9781040     0.0926730
  H       -3.4380290     0.3918270     0.3981780
  H        2.0803190    -1.0071740     1.4349120
units angstrom
no_reorient  #important for SAPT in psi4, default
symmetry c1  #important for SAPT in psi4, default
}

set PROPERTIES_ORIGIN ["COM"]
properties('MP2/aug-cc-pvtz', properties = ['dipole'])
--------------------------------------------------------------------------

    Molecular point group: c1
  Charge       = 0
  Multiplicity = 1
  Basis Set: AUG-CC-PVTZ
    Blend: AUG-CC-PVTZ
  Basis Set: (AUG-CC-PVTZ AUX)
    Blend: AUG-CC-PVTZ-JKFIT

    Orbital Energies [Eh]
    ---------------------

    Doubly Occupied:

       1A    -20.560240     2A    -11.276633     3A    -11.245770
       4A    -11.239851     5A    -11.238622     6A    -11.237761
       7A    -11.235034     8A    -11.233493     9A    -11.219950
      10A     -1.356994    11A     -1.157476    12A     -1.049547
      13A     -1.032964    14A     -0.944971    15A     -0.911844
      16A     -0.818337    17A     -0.793768    18A     -0.701569
      19A     -0.674529    20A     -0.644635    21A     -0.626079
      22A     -0.607874    23A     -0.587460    24A     -0.573333
      25A     -0.568738    26A     -0.544676    27A     -0.527116
      28A     -0.494694    29A     -0.488076    30A     -0.479893
      31A     -0.447046    32A     -0.337462    33A     -0.325627

  @DF-RHF Final Energy:  -383.75875677240822

   => Energetics <=

    Nuclear Repulsion Energy =            427.1571198076786686
    One-Electron Energy =               -1367.4676294945193149
    Two-Electron Energy =                 556.5517529144324271
    Total Energy =                       -383.7587567724082191
  Basis Set: (AUG-CC-PVTZ AUX)
    Blend: AUG-CC-PVTZ-RI
    Molecular point group: c1

    Geometry (in Angstrom), charge = 0, multiplicity = 1:

       Center              X                  Y                   Z               Mass
    ------------   -----------------  -----------------  -----------------  -----------------
         O            2.551072117488    -0.538197578504     0.698991360493    15.994914619570
         C            0.313983117488    -0.420839578504    -0.278765639507    12.000000000000
         C           -0.081357882512     0.920453421496    -0.093739639507    12.000000000000
         C            1.765163117488    -0.773273578504    -0.477943639507    12.000000000000
         C           -0.639085882512    -1.442529578504    -0.198940639507    12.000000000000
         C           -1.434070882512     1.192658421496     0.135800360493    12.000000000000
         C            0.920006117488     2.043325421496    -0.188310639507    12.000000000000
         C           -1.986004882512    -1.156276578504     0.031533360493    12.000000000000
         C           -2.381790882512     0.168691421496     0.208361360493    12.000000000000
         H            1.848816117488    -1.821572578504    -0.799656639507     1.007825032230
         H            2.202839617488    -0.181199478504    -1.217323139507     1.007825032230
         H           -0.322956882512    -2.475599578504    -0.340279639507     1.007825032230
         H           -1.749508882512     2.225533421496     0.274880360493     1.007825032230
         H            1.808990117488     1.821591421496     0.405640360493     1.007825032230
         H            1.242736117488     2.198374421496    -1.224578639507     1.007825032230
         H            0.481332117488     2.980042421496     0.166041360493     1.007825032230
         H           -2.715078882512    -1.961123578504     0.085926360493     1.007825032230
         H           -3.426621882512     0.408807421496     0.391431360493     1.007825032230
         H            2.091726117488    -0.990193578504     1.428165360493     1.007825032230

  Basis Set: AUG-CC-PVTZ
    Blend: AUG-CC-PVTZ
  Basis Set: (AUG-CC-PVTZ AUX)
    Blend: AUG-CC-PVTZ-JKFIT
	 Reference Energy          =    -383.7587567724082191 [Eh]
	 Singles Energy            =      -0.0000000000000000 [Eh]
	 Same-Spin Energy          =      -0.4131040860314174 [Eh]
	 Opposite-Spin Energy      =      -1.3204190723075451 [Eh]
	 Correlation Energy        =      -1.7335231583389623 [Eh]
	 Total Energy              =    -385.4922799307472019 [Eh]

	 ================> DF-SCS-MP2 Energies <==================
	-----------------------------------------------------------
	 SCS Same-Spin Scale       =       0.3333333333333333 [-]
	 SCS Opposite-Spin Scale   =       1.2000000000000000 [-]
	 SCS Same-Spin Energy      =      -0.1377013620104725 [Eh]
	 SCS Opposite-Spin Energy  =      -1.5845028867690540 [Eh]
	 SCS Correlation Energy    =      -1.7222042487795264 [Eh]
	 SCS Total Energy          =    -385.4809610211877384 [Eh]
	-----------------------------------------------------------

  Dipole Moment: [D]
     X:    -1.1891      Y:    -0.3949      Z:    -0.1215     Total:     1.2589

*** Psi4 exiting successfully. Buy a developer a beer!
