                               Psi4 1.4a3.dev225

  ==> Input File <==

--------------------------------------------------------------------------
#psi4
#
memory 32 gb

molecule  {
0 1
  O        2.5396650    -0.5551780     0.7057380
  C        0.3025760    -0.4378200    -0.2720190
  C       -0.0927650     0.9034730    -0.0869930
  C        1.7537560    -0.7902540    -0.4711970
  C       -0.6504930    -1.4595100    -0.1921940
  C       -1.4454780     1.1756780     0.1425470
  C        0.9085990     2.0263450    -0.1815640
  C       -1.9491753    -1.1835085     0.0300261
  C       -2.3931980     0.1517110     0.2151080
  H        1.8374090    -1.8385530    -0.7929100
  H        2.2124050    -0.1698090    -1.2460060
  H       -0.3343640    -2.4925800    -0.3335330
  H       -1.7609160     2.2085530     0.2816270
  H        1.7975830     1.8046110     0.4123870
  H        1.2313290     2.1813940    -1.2178320
  H        0.4699250     2.9630620     0.1727880
  H       -2.7264860    -1.9781040     0.0926730
  H       -3.4380290     0.3918270     0.3981780
  H        2.0803190    -1.0071740     1.4349120
units angstrom
no_reorient  #important for SAPT in psi4, default
symmetry c1  #important for SAPT in psi4, default
}

set PROPERTIES_ORIGIN ["COM"]
properties('MP2/aug-cc-pvtz', properties = ['dipole'])
--------------------------------------------------------------------------

    Molecular point group: c1
  Charge       = 0
  Multiplicity = 1
  Basis Set: AUG-CC-PVTZ
    Blend: AUG-CC-PVTZ
  Basis Set: (AUG-CC-PVTZ AUX)
    Blend: AUG-CC-PVTZ-JKFIT

    Orbital Energies [Eh]
    ---------------------

    Doubly Occupied:

       1A    -20.560790     2A    -11.282508     3A    -11.245366
       4A    -11.241128     5A    -11.237897     6A    -11.235018
       7A    -11.233894     8A    -11.233306     9A    -11.219704
      10A     -1.357167    11A     -1.160064    12A     -1.049871
      13A     -1.034018    14A     -0.946752    15A     -0.906167
      16A     -0.817272    17A     -0.792881    18A     -0.699806
      19A     -0.674714    20A     -0.645520    21A     -0.625459
      22A     -0.604789    23A     -0.587439    24A     -0.572752
      25A     -0.567488    26A     -0.543317    27A     -0.526351
      28A     -0.492806    29A     -0.490467    30A     -0.475289
      31A     -0.447887    32A     -0.341579    33A     -0.323418

  @DF-RHF Final Energy:  -383.75625093818633

   => Energetics <=

    Nuclear Repulsion Energy =            427.4860378469368243
    One-Electron Energy =               -1368.1388140058156750
    Two-Electron Energy =                 556.8965252206925243
    Total Energy =                       -383.7562509381863265
  Basis Set: (AUG-CC-PVTZ AUX)
    Blend: AUG-CC-PVTZ-RI
    Molecular point group: c1

    Geometry (in Angstrom), charge = 0, multiplicity = 1:

       Center              X                  Y                   Z               Mass
    ------------   -----------------  -----------------  -----------------  -----------------
         O            2.546157220666    -0.537424066186     0.700095235673    15.994914619570
         C            0.309068220666    -0.420066066186    -0.277661764327    12.000000000000
         C           -0.086272779334     0.921226933814    -0.092635764327    12.000000000000
         C            1.760248220666    -0.772500066186    -0.476839764327    12.000000000000
         C           -0.644000779334    -1.441756066186    -0.197836764327    12.000000000000
         C           -1.438985779334     1.193431933814     0.136904235673    12.000000000000
         C            0.915091220666     2.044098933814    -0.187206764327    12.000000000000
         C           -1.942683079334    -1.165754566186     0.024383335673    12.000000000000
         C           -2.386705779334     0.169464933814     0.209465235673    12.000000000000
         H            1.843901220666    -1.820799066186    -0.798552764327     1.007825032230
         H            2.218897220666    -0.152055066186    -1.251648764327     1.007825032230
         H           -0.327871779334    -2.474826066186    -0.339175764327     1.007825032230
         H           -1.754423779334     2.226306933814     0.275984235673     1.007825032230
         H            1.804075220666     1.822364933814     0.406744235673     1.007825032230
         H            1.237821220666     2.199147933814    -1.223474764327     1.007825032230
         H            0.476417220666     2.980815933814     0.167145235673     1.007825032230
         H           -2.719993779334    -1.960350066186     0.087030235673     1.007825032230
         H           -3.431536779334     0.409580933814     0.392535235673     1.007825032230
         H            2.086811220666    -0.989420066186     1.429269235673     1.007825032230

  Basis Set: AUG-CC-PVTZ
    Blend: AUG-CC-PVTZ
  Basis Set: (AUG-CC-PVTZ AUX)
    Blend: AUG-CC-PVTZ-JKFIT
	 Reference Energy          =    -383.7562509381863265 [Eh]
	 Singles Energy            =      -0.0000000000000000 [Eh]
	 Same-Spin Energy          =      -0.4133155907155246 [Eh]
	 Opposite-Spin Energy      =      -1.3209283716511320 [Eh]
	 Correlation Energy        =      -1.7342439623666566 [Eh]
	 Total Energy              =    -385.4904949005529602 [Eh]

	 ================> DF-SCS-MP2 Energies <==================
	-----------------------------------------------------------
	 SCS Same-Spin Scale       =       0.3333333333333333 [-]
	 SCS Opposite-Spin Scale   =       1.2000000000000000 [-]
	 SCS Same-Spin Energy      =      -0.1377718635718415 [Eh]
	 SCS Opposite-Spin Energy  =      -1.5851140459813584 [Eh]
	 SCS Correlation Energy    =      -1.7228859095531999 [Eh]
	 SCS Total Energy          =    -385.4791368477395395 [Eh]
	-----------------------------------------------------------

  Dipole Moment: [D]
     X:    -1.2059      Y:    -0.3827      Z:    -0.1001     Total:     1.2691

*** Psi4 exiting successfully. Buy a developer a beer!
