                               Psi4 1.4a3.dev225

  ==> Input File <==

--------------------------------------------------------------------------
#psi4
#
memory 32 gb

molecule  {
0 1
  O        2.5396650    -0.5551780     0.7057380
  C        0.3943223    -0.4051678    -0.2864955
  C       -0.0927650     0.9034730    -0.0869930
  C        1.7537560    -0.7902540    -0.4711970
  C       -0.6504930    -1.4595100    -0.1921940
  C       -1.4454780     1.1756780     0.1425470
  C        0.9085990     2.0263450    -0.1815640
  C       -1.9974120    -1.1732570     0.0382800
  C       -2.3931980     0.1517110     0.2151080
  H        1.8374090    -1.8385530    -0.7929100
  H        2.2124050    -0.1698090    -1.2460060
  H       -0.3343640    -2.4925800    -0.3335330
  H       -1.7609160     2.2085530     0.2816270
  H        1.7975830     1.8046110     0.4123870
  H        1.2313290     2.1813940    -1.2178320
  H        0.4699250     2.9630620     0.1727880
  H       -2.7264860    -1.9781040     0.0926730
  H       -3.4380290     0.3918270     0.3981780
  H        2.0803190    -1.0071740     1.4349120
units angstrom
no_reorient  #important for SAPT in psi4, default
symmetry c1  #important for SAPT in psi4, default
}

set PROPERTIES_ORIGIN ["COM"]
properties('MP2/aug-cc-pvtz', properties = ['dipole'])
--------------------------------------------------------------------------

    Molecular point group: c1
  Charge       = 0
  Multiplicity = 1
  Basis Set: AUG-CC-PVTZ
    Blend: AUG-CC-PVTZ
  Basis Set: (AUG-CC-PVTZ AUX)
    Blend: AUG-CC-PVTZ-JKFIT

    Orbital Energies [Eh]
    ---------------------

    Doubly Occupied:

       1A    -20.560868     2A    -11.279495     3A    -11.248908
       4A    -11.247456     5A    -11.242554     6A    -11.241091
       7A    -11.235989     8A    -11.234927     9A    -11.217426
      10A     -1.359657    11A     -1.152655    12A     -1.055841
      13A     -1.031039    14A     -0.948456    15A     -0.907754
      16A     -0.819995    17A     -0.786505    18A     -0.703091
      19A     -0.677903    20A     -0.651836    21A     -0.623861
      22A     -0.604779    23A     -0.590973    24A     -0.572819
      25A     -0.568400    26A     -0.542017    27A     -0.525771
      28A     -0.499953    29A     -0.482757    30A     -0.464323
      31A     -0.457421    32A     -0.331056    33A     -0.325740

  @DF-RHF Final Energy:  -383.74513397071877

   => Energetics <=

    Nuclear Repulsion Energy =            426.7497804139836717
    One-Electron Energy =               -1366.6031970081965028
    Two-Electron Energy =                 556.1082826234941194
    Total Energy =                       -383.7451339707187117
  Basis Set: (AUG-CC-PVTZ AUX)
    Blend: AUG-CC-PVTZ-RI
    Molecular point group: c1

    Geometry (in Angstrom), charge = 0, multiplicity = 1:

       Center              X                  Y                   Z               Mass
    ------------   -----------------  -----------------  -----------------  -----------------
         O            2.541880152891    -0.541641572959     0.700706927850    15.994914619570
         C            0.396537452891    -0.391631372959    -0.291526572150    12.000000000000
         C           -0.090549847109     0.917009427041    -0.092024072150    12.000000000000
         C            1.755971152891    -0.776717572959    -0.476228072150    12.000000000000
         C           -0.648277847109    -1.445973572959    -0.197225072150    12.000000000000
         C           -1.443262847109     1.189214427041     0.137515927850    12.000000000000
         C            0.910814152891     2.039881427041    -0.186595072150    12.000000000000
         C           -1.995196847109    -1.159720572959     0.033248927850    12.000000000000
         C           -2.390982847109     0.165247427041     0.210076927850    12.000000000000
         H            1.839624152891    -1.825016572959    -0.797941072150     1.007825032230
         H            2.214620152891    -0.156272572959    -1.251037072150     1.007825032230
         H           -0.332148847109    -2.479043572959    -0.338564072150     1.007825032230
         H           -1.758700847109     2.222089427041     0.276595927850     1.007825032230
         H            1.799798152891     1.818147427041     0.407355927850     1.007825032230
         H            1.233544152891     2.194930427041    -1.222863072150     1.007825032230
         H            0.472140152891     2.976598427041     0.167756927850     1.007825032230
         H           -2.724270847109    -1.964567572959     0.087641927850     1.007825032230
         H           -3.435813847109     0.405363427041     0.393146927850     1.007825032230
         H            2.082534152891    -0.993637572959     1.429880927850     1.007825032230

  Basis Set: AUG-CC-PVTZ
    Blend: AUG-CC-PVTZ
  Basis Set: (AUG-CC-PVTZ AUX)
    Blend: AUG-CC-PVTZ-JKFIT
	 Reference Energy          =    -383.7451339707187685 [Eh]
	 Singles Energy            =      -0.0000000000000000 [Eh]
	 Same-Spin Energy          =      -0.4144245063216413 [Eh]
	 Opposite-Spin Energy      =      -1.3228026140307847 [Eh]
	 Correlation Energy        =      -1.7372271203524261 [Eh]
	 Total Energy              =    -385.4823610910711977 [Eh]

	 ================> DF-SCS-MP2 Energies <==================
	-----------------------------------------------------------
	 SCS Same-Spin Scale       =       0.3333333333333333 [-]
	 SCS Opposite-Spin Scale   =       1.2000000000000000 [-]
	 SCS Same-Spin Energy      =      -0.1381415021072138 [Eh]
	 SCS Opposite-Spin Energy  =      -1.5873631368369416 [Eh]
	 SCS Correlation Energy    =      -1.7255046389441553 [Eh]
	 SCS Total Energy          =    -385.4706386096628989 [Eh]
	-----------------------------------------------------------

  Dipole Moment: [D]
     X:    -1.2335      Y:    -0.4189      Z:    -0.1119     Total:     1.3075

*** Psi4 exiting successfully. Buy a developer a beer!
