                               Psi4 1.4a3.dev225

  ==> Input File <==

--------------------------------------------------------------------------
#psi4
#
memory 32 gb

molecule  {
0 1
  O        2.5396650    -0.5551780     0.7057380
  C        0.2089037    -0.4639375    -0.2566411
  C       -0.0927650     0.9034730    -0.0869930
  C        1.7537560    -0.7902540    -0.4711970
  C       -0.6504930    -1.4595100    -0.1921940
  C       -1.4454780     1.1756780     0.1425470
  C        0.9085990     2.0263450    -0.1815640
  C       -1.9974120    -1.1732570     0.0382800
  C       -2.3931980     0.1517110     0.2151080
  H        1.8374090    -1.8385530    -0.7929100
  H        2.2124050    -0.1698090    -1.2460060
  H       -0.3343640    -2.4925800    -0.3335330
  H       -1.7609160     2.2085530     0.2816270
  H        1.7975830     1.8046110     0.4123870
  H        1.2313290     2.1813940    -1.2178320
  H        0.4699250     2.9630620     0.1727880
  H       -2.7264860    -1.9781040     0.0926730
  H       -3.4380290     0.3918270     0.3981780
  H        2.0803190    -1.0071740     1.4349120
units angstrom
no_reorient  #important for SAPT in psi4, default
symmetry c1  #important for SAPT in psi4, default
}

set PROPERTIES_ORIGIN ["COM"]
properties('MP2/aug-cc-pvtz', properties = ['dipole'])
--------------------------------------------------------------------------

    Molecular point group: c1
  Charge       = 0
  Multiplicity = 1
  Basis Set: AUG-CC-PVTZ
    Blend: AUG-CC-PVTZ
  Basis Set: (AUG-CC-PVTZ AUX)
    Blend: AUG-CC-PVTZ-JKFIT

    Orbital Energies [Eh]
    ---------------------

    Doubly Occupied:

       1A    -20.560884     2A    -11.284802     3A    -11.245188
       4A    -11.236564     5A    -11.234709     6A    -11.234250
       7A    -11.232506     8A    -11.229321     9A    -11.222375
      10A     -1.355286    11A     -1.165114    12A     -1.047525
      13A     -1.034753    14A     -0.940203    15A     -0.906639
      16A     -0.818314    17A     -0.796822    18A     -0.700199
      19A     -0.672012    20A     -0.641929    21A     -0.627322
      22A     -0.602785    23A     -0.582915    24A     -0.574014
      25A     -0.568534    26A     -0.545085    27A     -0.526178
      28A     -0.497226    29A     -0.495189    30A     -0.479778
      31A     -0.430779    32A     -0.347056    33A     -0.323237

  @DF-RHF Final Energy:  -383.74934328339293

   => Energetics <=

    Nuclear Repulsion Energy =            427.2383380830558508
    One-Electron Energy =               -1367.6563747000384410
    Two-Electron Energy =                 556.6686933335896583
    Total Energy =                       -383.7493432833929319
  Basis Set: (AUG-CC-PVTZ AUX)
    Blend: AUG-CC-PVTZ-RI
    Molecular point group: c1

    Geometry (in Angstrom), charge = 0, multiplicity = 1:

       Center              X                  Y                   Z               Mass
    ------------   -----------------  -----------------  -----------------  -----------------
         O            2.560107117032    -0.535864411366     0.697772189489    15.994914619570
         C            0.229345817032    -0.444623911366    -0.264606910511    12.000000000000
         C           -0.072322882968     0.922786588634    -0.094958810511    12.000000000000
         C            1.774198117032    -0.770940411366    -0.479162810511    12.000000000000
         C           -0.630050882968    -1.440196411366    -0.200159810511    12.000000000000
         C           -1.425035882968     1.194991588634     0.134581189489    12.000000000000
         C            0.929041117032     2.045658588634    -0.189529810511    12.000000000000
         C           -1.976969882968    -1.153943411366     0.030314189489    12.000000000000
         C           -2.372755882968     0.171024588634     0.207142189489    12.000000000000
         H            1.857851117032    -1.819239411366    -0.800875810511     1.007825032230
         H            2.232847117032    -0.150495411366    -1.253971810511     1.007825032230
         H           -0.313921882968    -2.473266411366    -0.341498810511     1.007825032230
         H           -1.740473882968     2.227866588634     0.273661189489     1.007825032230
         H            1.818025117032     1.823924588634     0.404421189489     1.007825032230
         H            1.251771117032     2.200707588634    -1.225797810511     1.007825032230
         H            0.490367117032     2.982375588634     0.164822189489     1.007825032230
         H           -2.706043882968    -1.958790411366     0.084707189489     1.007825032230
         H           -3.417586882968     0.411140588634     0.390212189489     1.007825032230
         H            2.100761117032    -0.987860411366     1.426946189489     1.007825032230

  Basis Set: AUG-CC-PVTZ
    Blend: AUG-CC-PVTZ
  Basis Set: (AUG-CC-PVTZ AUX)
    Blend: AUG-CC-PVTZ-JKFIT
	 Reference Energy          =    -383.7493432833929319 [Eh]
	 Singles Energy            =      -0.0000000000000000 [Eh]
	 Same-Spin Energy          =      -0.4126445793820526 [Eh]
	 Opposite-Spin Energy      =      -1.3203854462444826 [Eh]
	 Correlation Energy        =      -1.7330300256265352 [Eh]
	 Total Energy              =    -385.4823733090194651 [Eh]

	 ================> DF-SCS-MP2 Energies <==================
	-----------------------------------------------------------
	 SCS Same-Spin Scale       =       0.3333333333333333 [-]
	 SCS Opposite-Spin Scale   =       1.2000000000000000 [-]
	 SCS Same-Spin Energy      =      -0.1375481931273508 [Eh]
	 SCS Opposite-Spin Energy  =      -1.5844625354933790 [Eh]
	 SCS Correlation Energy    =      -1.7220107286207298 [Eh]
	 SCS Total Energy          =    -385.4713540120136486 [Eh]
	-----------------------------------------------------------

  Dipole Moment: [D]
     X:    -1.1652      Y:    -0.3771      Z:    -0.0900     Total:     1.2280

*** Psi4 exiting successfully. Buy a developer a beer!
