                               Psi4 1.4a3.dev225

  ==> Input File <==

--------------------------------------------------------------------------
#psi4
#
memory 32 gb

molecule  {
0 1
  O        2.5396650    -0.5551780     0.7057380
  C        0.3025760    -0.4378200    -0.2720190
  C       -0.0927650     0.9034730    -0.0869930
  C        1.7537560    -0.7902540    -0.4711970
  C       -0.6504930    -1.4595100    -0.1921940
  C       -1.4454780     1.1756780     0.1425470
  C        0.9085990     2.0263450    -0.1815640
  C       -1.9974120    -1.1732570     0.0382800
  C       -2.3931980     0.1517110     0.2151080
  H        1.8374090    -1.8385530    -0.7929100
  H        2.2207940    -0.1584606    -1.2601778
  H       -0.3343640    -2.4925800    -0.3335330
  H       -1.7609160     2.2085530     0.2816270
  H        1.7975830     1.8046110     0.4123870
  H        1.2313290     2.1813940    -1.2178320
  H        0.4699250     2.9630620     0.1727880
  H       -2.7264860    -1.9781040     0.0926730
  H       -3.4380290     0.3918270     0.3981780
  H        2.0803190    -1.0071740     1.4349120
units angstrom
no_reorient  #important for SAPT in psi4, default
symmetry c1  #important for SAPT in psi4, default
}

set PROPERTIES_ORIGIN ["COM"]
properties('MP2/aug-cc-pvtz', properties = ['dipole'])
--------------------------------------------------------------------------

    Molecular point group: c1
  Charge       = 0
  Multiplicity = 1
  Basis Set: AUG-CC-PVTZ
    Blend: AUG-CC-PVTZ
  Basis Set: (AUG-CC-PVTZ AUX)
    Blend: AUG-CC-PVTZ-JKFIT

    Orbital Energies [Eh]
    ---------------------

    Doubly Occupied:

       1A    -20.561203     2A    -11.285167     3A    -11.245928
       4A    -11.240269     5A    -11.238828     6A    -11.238323
       7A    -11.235266     8A    -11.233620     9A    -11.219799
      10A     -1.357472    11A     -1.157630    12A     -1.049259
      13A     -1.032591    14A     -0.943249    15A     -0.907362
      16A     -0.818272    17A     -0.791938    18A     -0.700818
      19A     -0.674776    20A     -0.644788    21A     -0.625061
      22A     -0.604278    23A     -0.586395    24A     -0.572955
      25A     -0.568561    26A     -0.542958    27A     -0.525836
      28A     -0.493978    29A     -0.488202    30A     -0.477419
      31A     -0.447664    32A     -0.337606    33A     -0.325697

  @DF-RHF Final Energy:  -383.75901171070365

   => Energetics <=

    Nuclear Repulsion Energy =            426.8119517066377284
    One-Electron Energy =               -1366.7955827488301566
    Two-Electron Energy =                 556.2246193314888387
    Total Energy =                       -383.7590117107035894
  Basis Set: (AUG-CC-PVTZ AUX)
    Blend: AUG-CC-PVTZ-RI
    Molecular point group: c1

    Geometry (in Angstrom), charge = 0, multiplicity = 1:

       Center              X                  Y                   Z               Mass
    ------------   -----------------  -----------------  -----------------  -----------------
         O            2.550829711594    -0.538525497460     0.699400864349    15.994914619570
         C            0.313740711594    -0.421167497460    -0.278356135651    12.000000000000
         C           -0.081600288406     0.920125502540    -0.093330135651    12.000000000000
         C            1.764920711594    -0.773601497460    -0.477534135651    12.000000000000
         C           -0.639328288406    -1.442857497460    -0.198531135651    12.000000000000
         C           -1.434313288406     1.192330502540     0.136209864349    12.000000000000
         C            0.919763711594     2.042997502540    -0.187901135651    12.000000000000
         C           -1.986247288406    -1.156604497460     0.031942864349    12.000000000000
         C           -2.382033288406     0.168363502540     0.208770864349    12.000000000000
         H            1.848573711594    -1.821900497460    -0.799247135651     1.007825032230
         H            2.231958711594    -0.141808097460    -1.266514935651     1.007825032230
         H           -0.323199288406    -2.475927497460    -0.339870135651     1.007825032230
         H           -1.749751288406     2.225205502540     0.275289864349     1.007825032230
         H            1.808747711594     1.821263502540     0.406049864349     1.007825032230
         H            1.242493711594     2.198046502540    -1.224169135651     1.007825032230
         H            0.481089711594     2.979714502540     0.166450864349     1.007825032230
         H           -2.715321288406    -1.961451497460     0.086335864349     1.007825032230
         H           -3.426864288406     0.408479502540     0.391840864349     1.007825032230
         H            2.091483711594    -0.990521497460     1.428574864349     1.007825032230

  Basis Set: AUG-CC-PVTZ
    Blend: AUG-CC-PVTZ
  Basis Set: (AUG-CC-PVTZ AUX)
    Blend: AUG-CC-PVTZ-JKFIT
	 Reference Energy          =    -383.7590117107036463 [Eh]
	 Singles Energy            =      -0.0000000000000000 [Eh]
	 Same-Spin Energy          =      -0.4132136083626947 [Eh]
	 Opposite-Spin Energy      =      -1.3209341812238968 [Eh]
	 Correlation Energy        =      -1.7341477895865915 [Eh]
	 Total Energy              =    -385.4931595002902327 [Eh]

	 ================> DF-SCS-MP2 Energies <==================
	-----------------------------------------------------------
	 SCS Same-Spin Scale       =       0.3333333333333333 [-]
	 SCS Opposite-Spin Scale   =       1.2000000000000000 [-]
	 SCS Same-Spin Energy      =      -0.1377378694542316 [Eh]
	 SCS Opposite-Spin Energy  =      -1.5851210174686761 [Eh]
	 SCS Correlation Energy    =      -1.7228588869229076 [Eh]
	 SCS Total Energy          =    -385.4818705976265392 [Eh]
	-----------------------------------------------------------

  Dipole Moment: [D]
     X:    -1.2073      Y:    -0.4033      Z:    -0.0934     Total:     1.2763

*** Psi4 exiting successfully. Buy a developer a beer!
