                               Psi4 1.4a3.dev225

  ==> Input File <==

--------------------------------------------------------------------------
#psi4
#
memory 32 gb

molecule  {
0 1
  O        2.5396650    -0.5551780     0.7057380
  C        0.3025760    -0.4378200    -0.2720190
  C       -0.0927650     0.9034730    -0.0869930
  C        1.7537560    -0.7902540    -0.4711970
  C       -0.6504930    -1.4595100    -0.1921940
  C       -1.4454780     1.1756780     0.1425470
  C        0.9085990     2.0263450    -0.1815640
  C       -1.9974120    -1.1732570     0.0382800
  C       -2.3931980     0.1517110     0.2151080
  H        1.8374090    -1.8385530    -0.7929100
  H        2.2124050    -0.1698090    -1.2460060
  H       -0.3343640    -2.4925800    -0.3335330
  H       -1.7609160     2.2085530     0.2816270
  H        1.7915165     1.8366056     0.4321884
  H        1.2313290     2.1813940    -1.2178320
  H        0.4699250     2.9630620     0.1727880
  H       -2.7264860    -1.9781040     0.0926730
  H       -3.4380290     0.3918270     0.3981780
  H        2.0803190    -1.0071740     1.4349120
units angstrom
no_reorient  #important for SAPT in psi4, default
symmetry c1  #important for SAPT in psi4, default
}

set PROPERTIES_ORIGIN ["COM"]
properties('MP2/aug-cc-pvtz', properties = ['dipole'])
--------------------------------------------------------------------------

    Molecular point group: c1
  Charge       = 0
  Multiplicity = 1
  Basis Set: AUG-CC-PVTZ
    Blend: AUG-CC-PVTZ
  Basis Set: (AUG-CC-PVTZ AUX)
    Blend: AUG-CC-PVTZ-JKFIT

    Orbital Energies [Eh]
    ---------------------

    Doubly Occupied:

       1A    -20.560613     2A    -11.282586     3A    -11.246020
       4A    -11.240128     5A    -11.238789     6A    -11.238210
       7A    -11.235325     8A    -11.233744     9A    -11.219899
      10A     -1.356968    11A     -1.157591    12A     -1.049202
      13A     -1.032692    14A     -0.943685    15A     -0.908462
      16A     -0.818359    17A     -0.792553    18A     -0.700846
      19A     -0.674501    20A     -0.644611    21A     -0.625265
      22A     -0.605074    23A     -0.586595    24A     -0.573213
      25A     -0.570367    26A     -0.541740    27A     -0.525057
      28A     -0.494116    29A     -0.488536    30A     -0.478294
      31A     -0.447290    32A     -0.337582    33A     -0.325967

  @DF-RHF Final Energy:  -383.75956204698514

   => Energetics <=

    Nuclear Repulsion Energy =            426.8398724651229372
    One-Electron Energy =               -1366.8511049471940169
    Two-Electron Energy =                 556.2516704350859982
    Total Energy =                       -383.7595620469851383
  Basis Set: (AUG-CC-PVTZ AUX)
    Blend: AUG-CC-PVTZ-RI
    Molecular point group: c1

    Geometry (in Angstrom), charge = 0, multiplicity = 1:

       Center              X                  Y                   Z               Mass
    ------------   -----------------  -----------------  -----------------  -----------------
         O            2.550949054898    -0.538695950624     0.699120384676    15.994914619570
         C            0.313860054898    -0.421337950624    -0.278636615324    12.000000000000
         C           -0.081480945102     0.919955049376    -0.093610615324    12.000000000000
         C            1.765040054898    -0.773771950624    -0.477814615324    12.000000000000
         C           -0.639208945102    -1.443027950624    -0.198811615324    12.000000000000
         C           -1.434193945102     1.192160049376     0.135929384676    12.000000000000
         C            0.919883054898     2.042827049376    -0.188181615324    12.000000000000
         C           -1.986127945102    -1.156774950624     0.031662384676    12.000000000000
         C           -2.381913945102     0.168193049376     0.208490384676    12.000000000000
         H            1.848693054898    -1.822070950624    -0.799527615324     1.007825032230
         H            2.223689054898    -0.153326950624    -1.252623615324     1.007825032230
         H           -0.323079945102    -2.476097950624    -0.340150615324     1.007825032230
         H           -1.749631945102     2.225035049376     0.275009384676     1.007825032230
         H            1.802800554898     1.853087649376     0.425570784676     1.007825032230
         H            1.242613054898     2.197876049376    -1.224449615324     1.007825032230
         H            0.481209054898     2.979544049376     0.166170384676     1.007825032230
         H           -2.715201945102    -1.961621950624     0.086055384676     1.007825032230
         H           -3.426744945102     0.408309049376     0.391560384676     1.007825032230
         H            2.091603054898    -0.990691950624     1.428294384676     1.007825032230

  Basis Set: AUG-CC-PVTZ
    Blend: AUG-CC-PVTZ
  Basis Set: (AUG-CC-PVTZ AUX)
    Blend: AUG-CC-PVTZ-JKFIT
	 Reference Energy          =    -383.7595620469851383 [Eh]
	 Singles Energy            =      -0.0000000000000000 [Eh]
	 Same-Spin Energy          =      -0.4131375438223073 [Eh]
	 Opposite-Spin Energy      =      -1.3207388540982092 [Eh]
	 Correlation Energy        =      -1.7338763979205165 [Eh]
	 Total Energy              =    -385.4934384449056779 [Eh]

	 ================> DF-SCS-MP2 Energies <==================
	-----------------------------------------------------------
	 SCS Same-Spin Scale       =       0.3333333333333333 [-]
	 SCS Opposite-Spin Scale   =       1.2000000000000000 [-]
	 SCS Same-Spin Energy      =      -0.1377125146074357 [Eh]
	 SCS Opposite-Spin Energy  =      -1.5848866249178510 [Eh]
	 SCS Correlation Energy    =      -1.7225991395252869 [Eh]
	 SCS Total Energy          =    -385.4821611865104387 [Eh]
	-----------------------------------------------------------

  Dipole Moment: [D]
     X:    -1.2088      Y:    -0.3917      Z:    -0.0936     Total:     1.2741

*** Psi4 exiting successfully. Buy a developer a beer!
