                               Psi4 1.4a3.dev225

  ==> Input File <==

--------------------------------------------------------------------------
#psi4
#
memory 32 gb

molecule  {
0 1
  O        2.5396650    -0.5551780     0.7057380
  C        0.3025760    -0.4378200    -0.2720190
  C       -0.0927650     0.9034730    -0.0869930
  C        1.8085383    -0.7738679    -0.3891580
  C       -0.6504930    -1.4595100    -0.1921940
  C       -1.4454780     1.1756780     0.1425470
  C        0.9085990     2.0263450    -0.1815640
  C       -1.9974120    -1.1732570     0.0382800
  C       -2.3931980     0.1517110     0.2151080
  H        1.8374090    -1.8385530    -0.7929100
  H        2.2124050    -0.1698090    -1.2460060
  H       -0.3343640    -2.4925800    -0.3335330
  H       -1.7609160     2.2085530     0.2816270
  H        1.7975830     1.8046110     0.4123870
  H        1.2313290     2.1813940    -1.2178320
  H        0.4699250     2.9630620     0.1727880
  H       -2.7264860    -1.9781040     0.0926730
  H       -3.4380290     0.3918270     0.3981780
  H        2.0803190    -1.0071740     1.4349120
units angstrom
no_reorient  #important for SAPT in psi4, default
symmetry c1  #important for SAPT in psi4, default
}

set PROPERTIES_ORIGIN ["COM"]
properties('MP2/aug-cc-pvtz', properties = ['dipole'])
--------------------------------------------------------------------------

    Molecular point group: c1
  Charge       = 0
  Multiplicity = 1
  Basis Set: AUG-CC-PVTZ
    Blend: AUG-CC-PVTZ
  Basis Set: (AUG-CC-PVTZ AUX)
    Blend: AUG-CC-PVTZ-JKFIT

    Orbital Energies [Eh]
    ---------------------

    Doubly Occupied:

       1A    -20.571706     2A    -11.286490     3A    -11.243518
       4A    -11.238332     5A    -11.237043     6A    -11.236616
       7A    -11.233894     8A    -11.232051     9A    -11.219658
      10A     -1.402356    11A     -1.154781    12A     -1.046917
      13A     -1.026490    14A     -0.939770    15A     -0.905029
      16A     -0.816094    17A     -0.794100    18A     -0.714743
      19A     -0.675428    20A     -0.647800    21A     -0.636190
      22A     -0.619612    23A     -0.594172    24A     -0.571554
      25A     -0.569603    26A     -0.541681    27A     -0.523786
      28A     -0.490900    29A     -0.488227    30A     -0.468146
      31A     -0.433266    32A     -0.336061    33A     -0.324427

  @DF-RHF Final Energy:  -383.75143154522959

   => Energetics <=

    Nuclear Repulsion Energy =            427.4629193041997723
    One-Electron Energy =               -1367.9878231346865505
    Two-Electron Energy =                 556.7734722852571849
    Total Energy =                       -383.7514315452295932
  Basis Set: (AUG-CC-PVTZ AUX)
    Blend: AUG-CC-PVTZ-RI
    Molecular point group: c1

    Geometry (in Angstrom), charge = 0, multiplicity = 1:

       Center              X                  Y                   Z               Mass
    ------------   -----------------  -----------------  -----------------  -----------------
         O            2.545513777039    -0.540042587628     0.691219289838    15.994914619570
         C            0.308424777039    -0.422684587628    -0.286537710162    12.000000000000
         C           -0.086916222961     0.918608412372    -0.101511710162    12.000000000000
         C            1.814387077039    -0.758732487628    -0.403676710162    12.000000000000
         C           -0.644644222961    -1.444374587628    -0.206712710162    12.000000000000
         C           -1.439629222961     1.190813412372     0.128028289838    12.000000000000
         C            0.914447777039     2.041480412372    -0.196082710162    12.000000000000
         C           -1.991563222961    -1.158121587628     0.023761289838    12.000000000000
         C           -2.387349222961     0.166846412372     0.200589289838    12.000000000000
         H            1.843257777039    -1.823417587628    -0.807428710162     1.007825032230
         H            2.218253777039    -0.154673587628    -1.260524710162     1.007825032230
         H           -0.328515222961    -2.477444587628    -0.348051710162     1.007825032230
         H           -1.755067222961     2.223688412372     0.267108289838     1.007825032230
         H            1.803431777039     1.819746412372     0.397868289838     1.007825032230
         H            1.237177777039     2.196529412372    -1.232350710162     1.007825032230
         H            0.475773777039     2.978197412372     0.158269289838     1.007825032230
         H           -2.720637222961    -1.962968587628     0.078154289838     1.007825032230
         H           -3.432180222961     0.406962412372     0.383659289838     1.007825032230
         H            2.086167777039    -0.992038587628     1.420393289838     1.007825032230

  Basis Set: AUG-CC-PVTZ
    Blend: AUG-CC-PVTZ
  Basis Set: (AUG-CC-PVTZ AUX)
    Blend: AUG-CC-PVTZ-JKFIT
	 Reference Energy          =    -383.7514315452295932 [Eh]
	 Singles Energy            =      -0.0000000000000000 [Eh]
	 Same-Spin Energy          =      -0.4131763239232086 [Eh]
	 Opposite-Spin Energy      =      -1.3196346709316145 [Eh]
	 Correlation Energy        =      -1.7328109948548232 [Eh]
	 Total Energy              =    -385.4842425400844377 [Eh]

	 ================> DF-SCS-MP2 Energies <==================
	-----------------------------------------------------------
	 SCS Same-Spin Scale       =       0.3333333333333333 [-]
	 SCS Opposite-Spin Scale   =       1.2000000000000000 [-]
	 SCS Same-Spin Energy      =      -0.1377254413077362 [Eh]
	 SCS Opposite-Spin Energy  =      -1.5835616051179373 [Eh]
	 SCS Correlation Energy    =      -1.7212870464256735 [Eh]
	 SCS Total Energy          =    -385.4727185916552799 [Eh]
	-----------------------------------------------------------

  Dipole Moment: [D]
     X:    -0.9438      Y:    -0.3574      Z:     0.2150     Total:     1.0318

*** Psi4 exiting successfully. Buy a developer a beer!
