                               Psi4 1.4a3.dev225

  ==> Input File <==

--------------------------------------------------------------------------
#psi4
#
memory 32 gb

molecule  {
0 1
  O        2.5396650    -0.5551780     0.7057380
  C        0.3025760    -0.4378200    -0.2720190
  C       -0.0927650     0.9034730    -0.0869930
  C        1.7537560    -0.7902540    -0.4711970
  C       -0.6504930    -1.4595100    -0.1921940
  C       -1.4454780     1.1756780     0.1425470
  C        0.9085990     2.0263450    -0.1815640
  C       -1.9974120    -1.1732570     0.0382800
  C       -2.3931980     0.1517110     0.2151080
  H        1.8374090    -1.8385530    -0.7929100
  H        2.2124050    -0.1698090    -1.2460060
  H       -0.3488711    -2.4451725    -0.3270470
  H       -1.7609160     2.2085530     0.2816270
  H        1.7975830     1.8046110     0.4123870
  H        1.2313290     2.1813940    -1.2178320
  H        0.4699250     2.9630620     0.1727880
  H       -2.7264860    -1.9781040     0.0926730
  H       -3.4380290     0.3918270     0.3981780
  H        2.0803190    -1.0071740     1.4349120
units angstrom
no_reorient  #important for SAPT in psi4, default
symmetry c1  #important for SAPT in psi4, default
}

set PROPERTIES_ORIGIN ["COM"]
properties('MP2/aug-cc-pvtz', properties = ['dipole'])
--------------------------------------------------------------------------

    Molecular point group: c1
  Charge       = 0
  Multiplicity = 1
  Basis Set: AUG-CC-PVTZ
    Blend: AUG-CC-PVTZ
  Basis Set: (AUG-CC-PVTZ AUX)
    Blend: AUG-CC-PVTZ-JKFIT

    Orbital Energies [Eh]
    ---------------------

    Doubly Occupied:

       1A    -20.560950     2A    -11.282828     3A    -11.245487
       4A    -11.238408     5A    -11.237970     6A    -11.235077
       7A    -11.233510     8A    -11.233375     9A    -11.219644
      10A     -1.357354    11A     -1.157614    12A     -1.049200
      13A     -1.033897    14A     -0.943985    15A     -0.908708
      16A     -0.821947    17A     -0.792342    18A     -0.701123
      19A     -0.676890    20A     -0.646499    21A     -0.627005
      22A     -0.605894    23A     -0.588539    24A     -0.573468
      25A     -0.568497    26A     -0.543301    27A     -0.526093
      28A     -0.496331    29A     -0.487840    30A     -0.478032
      31A     -0.447439    32A     -0.337321    33A     -0.325363

  @DF-RHF Final Energy:  -383.75887896239726

   => Energetics <=

    Nuclear Repulsion Energy =            427.1691093233417291
    One-Electron Energy =               -1367.4921156275970588
    Two-Electron Energy =                 556.5641273418581250
    Total Energy =                       -383.7588789623972616
  Basis Set: (AUG-CC-PVTZ AUX)
    Blend: AUG-CC-PVTZ-RI
    Molecular point group: c1

    Geometry (in Angstrom), charge = 0, multiplicity = 1:

       Center              X                  Y                   Z               Mass
    ------------   -----------------  -----------------  -----------------  -----------------
         O            2.551018739730    -0.538823198135     0.699230315417    15.994914619570
         C            0.313929739730    -0.421465198135    -0.278526684583    12.000000000000
         C           -0.081411260270     0.919827801865    -0.093500684583    12.000000000000
         C            1.765109739730    -0.773899198135    -0.477704684583    12.000000000000
         C           -0.639139260270    -1.443155198135    -0.198701684583    12.000000000000
         C           -1.434124260270     1.192032801865     0.136039315417    12.000000000000
         C            0.919952739730     2.042699801865    -0.188071684583    12.000000000000
         C           -1.986058260270    -1.156902198135     0.031772315417    12.000000000000
         C           -2.381844260270     0.168065801865     0.208600315417    12.000000000000
         H            1.848762739730    -1.822198198135    -0.799417684583     1.007825032230
         H            2.223758739730    -0.153454198135    -1.252513684583     1.007825032230
         H           -0.337517360270    -2.428817698135    -0.333554684583     1.007825032230
         H           -1.749562260270     2.224907801865     0.275119315417     1.007825032230
         H            1.808936739730     1.820965801865     0.405879315417     1.007825032230
         H            1.242682739730     2.197748801865    -1.224339684583     1.007825032230
         H            0.481278739730     2.979416801865     0.166280315417     1.007825032230
         H           -2.715132260270    -1.961749198135     0.086165315417     1.007825032230
         H           -3.426675260270     0.408181801865     0.391670315417     1.007825032230
         H            2.091672739730    -0.990819198135     1.428404315417     1.007825032230

  Basis Set: AUG-CC-PVTZ
    Blend: AUG-CC-PVTZ
  Basis Set: (AUG-CC-PVTZ AUX)
    Blend: AUG-CC-PVTZ-JKFIT
	 Reference Energy          =    -383.7588789623972616 [Eh]
	 Singles Energy            =      -0.0000000000000000 [Eh]
	 Same-Spin Energy          =      -0.4130688992953007 [Eh]
	 Opposite-Spin Energy      =      -1.3204468446140014 [Eh]
	 Correlation Energy        =      -1.7335157439093021 [Eh]
	 Total Energy              =    -385.4923947063065839 [Eh]

	 ================> DF-SCS-MP2 Energies <==================
	-----------------------------------------------------------
	 SCS Same-Spin Scale       =       0.3333333333333333 [-]
	 SCS Opposite-Spin Scale   =       1.2000000000000000 [-]
	 SCS Same-Spin Energy      =      -0.1376896330984336 [Eh]
	 SCS Opposite-Spin Energy  =      -1.5845362135368017 [Eh]
	 SCS Correlation Energy    =      -1.7222258466352354 [Eh]
	 SCS Total Energy          =    -385.4811048090325016 [Eh]
	-----------------------------------------------------------

  Dipole Moment: [D]
     X:    -1.1952      Y:    -0.4209      Z:    -0.1045     Total:     1.2714

*** Psi4 exiting successfully. Buy a developer a beer!
