                               Psi4 1.4a3.dev225

  ==> Input File <==

--------------------------------------------------------------------------
#psi4
#
memory 32 gb

molecule  {
0 1
  O        2.5396650    -0.5551780     0.7057380
  C        0.3025760    -0.4378200    -0.2720190
  C       -0.0927650     0.9034730    -0.0869930
  C        1.7537560    -0.7902540    -0.4711970
  C       -0.6504930    -1.4595100    -0.1921940
  C       -1.4454780     1.1756780     0.1425470
  C        0.9085990     2.0263450    -0.1815640
  C       -1.9974120    -1.1732570     0.0382800
  C       -2.3931980     0.1517110     0.2151080
  H        1.8374090    -1.8385530    -0.7929100
  H        2.2124050    -0.1698090    -1.2460060
  H       -0.3343640    -2.4925800    -0.3335330
  H       -1.7609160     2.2085530     0.2816270
  H        1.8025664     1.7728865     0.3918619
  H        1.2313290     2.1813940    -1.2178320
  H        0.4699250     2.9630620     0.1727880
  H       -2.7264860    -1.9781040     0.0926730
  H       -3.4380290     0.3918270     0.3981780
  H        2.0803190    -1.0071740     1.4349120
units angstrom
no_reorient  #important for SAPT in psi4, default
symmetry c1  #important for SAPT in psi4, default
}

set PROPERTIES_ORIGIN ["COM"]
properties('MP2/aug-cc-pvtz', properties = ['dipole'])
--------------------------------------------------------------------------

    Molecular point group: c1
  Charge       = 0
  Multiplicity = 1
  Basis Set: AUG-CC-PVTZ
    Blend: AUG-CC-PVTZ
  Basis Set: (AUG-CC-PVTZ AUX)
    Blend: AUG-CC-PVTZ-JKFIT

    Orbital Energies [Eh]
    ---------------------

    Doubly Occupied:

       1A    -20.561214     2A    -11.282939     3A    -11.245739
       4A    -11.240153     5A    -11.238735     6A    -11.238096
       7A    -11.235062     8A    -11.233409     9A    -11.219790
      10A     -1.357664    11A     -1.157567    12A     -1.049460
      13A     -1.032649    14A     -0.943637    15A     -0.908696
      16A     -0.818202    17A     -0.792310    18A     -0.701178
      19A     -0.674918    20A     -0.644857    21A     -0.625324
      22A     -0.605385    23A     -0.586849    24A     -0.572997
      25A     -0.566853    26A     -0.545255    27A     -0.527146
      28A     -0.494250    29A     -0.487723    30A     -0.478143
      31A     -0.447639    32A     -0.337539    33A     -0.325366

  @DF-RHF Final Energy:  -383.75932647835702

   => Energetics <=

    Nuclear Repulsion Energy =            426.9776887636526794
    One-Electron Energy =               -1367.1205481435486035
    Two-Electron Energy =                 556.3835329015389561
    Total Energy =                       -383.7593264783570248
  Basis Set: (AUG-CC-PVTZ AUX)
    Blend: AUG-CC-PVTZ-RI
    Molecular point group: c1

    Geometry (in Angstrom), charge = 0, multiplicity = 1:

       Center              X                  Y                   Z               Mass
    ------------   -----------------  -----------------  -----------------  -----------------
         O            2.550857827921    -0.538169891485     0.699453316620    15.994914619570
         C            0.313768827921    -0.420811891485    -0.278303683380    12.000000000000
         C           -0.081572172079     0.920481108515    -0.093277683380    12.000000000000
         C            1.764948827921    -0.773245891485    -0.477481683380    12.000000000000
         C           -0.639300172079    -1.442501891485    -0.198478683380    12.000000000000
         C           -1.434285172079     1.192686108515     0.136262316620    12.000000000000
         C            0.919791827921     2.043353108515    -0.187848683380    12.000000000000
         C           -1.986219172079    -1.156248891485     0.031995316620    12.000000000000
         C           -2.382005172079     0.168719108515     0.208823316620    12.000000000000
         H            1.848601827921    -1.821544891485    -0.799194683380     1.007825032230
         H            2.223597827921    -0.152800891485    -1.252290683380     1.007825032230
         H           -0.323171172079    -2.475571891485    -0.339817683380     1.007825032230
         H           -1.749723172079     2.225561108515     0.275342316620     1.007825032230
         H            1.813759227921     1.789894608515     0.385577216620     1.007825032230
         H            1.242521827921     2.198402108515    -1.224116683380     1.007825032230
         H            0.481117827921     2.980070108515     0.166503316620     1.007825032230
         H           -2.715293172079    -1.961095891485     0.086388316620     1.007825032230
         H           -3.426836172079     0.408835108515     0.391893316620     1.007825032230
         H            2.091511827921    -0.990165891485     1.428627316620     1.007825032230

  Basis Set: AUG-CC-PVTZ
    Blend: AUG-CC-PVTZ
  Basis Set: (AUG-CC-PVTZ AUX)
    Blend: AUG-CC-PVTZ-JKFIT
	 Reference Energy          =    -383.7593264783570248 [Eh]
	 Singles Energy            =      -0.0000000000000000 [Eh]
	 Same-Spin Energy          =      -0.4132379440302603 [Eh]
	 Opposite-Spin Energy      =      -1.3208283885033754 [Eh]
	 Correlation Energy        =      -1.7340663325336356 [Eh]
	 Total Energy              =    -385.4933928108906684 [Eh]

	 ================> DF-SCS-MP2 Energies <==================
	-----------------------------------------------------------
	 SCS Same-Spin Scale       =       0.3333333333333333 [-]
	 SCS Opposite-Spin Scale   =       1.2000000000000000 [-]
	 SCS Same-Spin Energy      =      -0.1377459813434201 [Eh]
	 SCS Opposite-Spin Energy  =      -1.5849940662040505 [Eh]
	 SCS Correlation Energy    =      -1.7227400475474706 [Eh]
	 SCS Total Energy          =    -385.4820665259044858 [Eh]
	-----------------------------------------------------------

  Dipole Moment: [D]
     X:    -1.1947      Y:    -0.4093      Z:    -0.1106     Total:     1.2677

*** Psi4 exiting successfully. Buy a developer a beer!
