                               Psi4 1.4a3.dev225

  ==> Input File <==

--------------------------------------------------------------------------
#psi4
#
memory 32 gb

molecule  {
0 1
  O        2.5396650    -0.5551780     0.7057380
  C        0.3025760    -0.4378200    -0.2720190
  C       -0.0927650     0.9034730    -0.0869930
  C        1.7537560    -0.7902540    -0.4711970
  C       -0.6504930    -1.4595100    -0.1921940
  C       -1.4454780     1.1756780     0.1425470
  C        0.9085990     2.0263450    -0.1815640
  C       -1.9974120    -1.1732570     0.0382800
  C       -2.3931980     0.1517110     0.2151080
  H        1.8374090    -1.8385530    -0.7929100
  H        2.2124050    -0.1698090    -1.2460060
  H       -0.3343640    -2.4925800    -0.3335330
  H       -1.7609160     2.2085530     0.2816270
  H        1.7161664     1.8249183     0.3579907
  H        1.2313290     2.1813940    -1.2178320
  H        0.4699250     2.9630620     0.1727880
  H       -2.7264860    -1.9781040     0.0926730
  H       -3.4380290     0.3918270     0.3981780
  H        2.0803190    -1.0071740     1.4349120
units angstrom
no_reorient  #important for SAPT in psi4, default
symmetry c1  #important for SAPT in psi4, default
}

set PROPERTIES_ORIGIN ["COM"]
properties('MP2/aug-cc-pvtz', properties = ['dipole'])
--------------------------------------------------------------------------

    Molecular point group: c1
  Charge       = 0
  Multiplicity = 1
  Basis Set: AUG-CC-PVTZ
    Blend: AUG-CC-PVTZ
  Basis Set: (AUG-CC-PVTZ AUX)
    Blend: AUG-CC-PVTZ-JKFIT

    Orbital Energies [Eh]
    ---------------------

    Doubly Occupied:

       1A    -20.561014     2A    -11.282836     3A    -11.245358
       4A    -11.240023     5A    -11.238549     6A    -11.238046
       7A    -11.235014     8A    -11.233205     9A    -11.208618
      10A     -1.357310    11A     -1.157645    12A     -1.051539
      13A     -1.032917    14A     -0.949529    15A     -0.910916
      16A     -0.818329    17A     -0.794362    18A     -0.701765
      19A     -0.674511    20A     -0.646207    21A     -0.625095
      22A     -0.606036    23A     -0.586504    24A     -0.582633
      25A     -0.572386    26A     -0.545101    27A     -0.528564
      28A     -0.493919    29A     -0.489442    30A     -0.478111
      31A     -0.448402    32A     -0.337380    33A     -0.325956

  @DF-RHF Final Energy:  -383.75365980505586

   => Energetics <=

    Nuclear Repulsion Energy =            427.3166027153102959
    One-Electron Energy =               -1367.7460811124387874
    Two-Electron Energy =                 556.6758185920726874
    Total Energy =                       -383.7536598050558041
  Basis Set: (AUG-CC-PVTZ AUX)
    Blend: AUG-CC-PVTZ-RI
    Molecular point group: c1

    Geometry (in Angstrom), charge = 0, multiplicity = 1:

       Center              X                  Y                   Z               Mass
    ------------   -----------------  -----------------  -----------------  -----------------
         O            2.551571138523    -0.538599461330     0.699732954191    15.994914619570
         C            0.314482138523    -0.421241461330    -0.278024045809    12.000000000000
         C           -0.080858861477     0.920051538670    -0.092998045809    12.000000000000
         C            1.765662138523    -0.773675461330    -0.477202045809    12.000000000000
         C           -0.638586861477    -1.442931461330    -0.198199045809    12.000000000000
         C           -1.433571861477     1.192256538670     0.136541954191    12.000000000000
         C            0.920505138523     2.042923538670    -0.187569045809    12.000000000000
         C           -1.985505861477    -1.156678461330     0.032274954191    12.000000000000
         C           -2.381291861477     0.168289538670     0.209102954191    12.000000000000
         H            1.849315138523    -1.821974461330    -0.798915045809     1.007825032230
         H            2.224311138523    -0.153230461330    -1.252011045809     1.007825032230
         H           -0.322457861477    -2.476001461330    -0.339538045809     1.007825032230
         H           -1.749009861477     2.225131538670     0.275621954191     1.007825032230
         H            1.728072538523     1.841496838670     0.351985654191     1.007825032230
         H            1.243235138523     2.197972538670    -1.223837045809     1.007825032230
         H            0.481831138523     2.979640538670     0.166782954191     1.007825032230
         H           -2.714579861477    -1.961525461330     0.086667954191     1.007825032230
         H           -3.426122861477     0.408405538670     0.392172954191     1.007825032230
         H            2.092225138523    -0.990595461330     1.428906954191     1.007825032230

  Basis Set: AUG-CC-PVTZ
    Blend: AUG-CC-PVTZ
  Basis Set: (AUG-CC-PVTZ AUX)
    Blend: AUG-CC-PVTZ-JKFIT
	 Reference Energy          =    -383.7536598050558609 [Eh]
	 Singles Energy            =      -0.0000000000000000 [Eh]
	 Same-Spin Energy          =      -0.4130507760926385 [Eh]
	 Opposite-Spin Energy      =      -1.3201726381611207 [Eh]
	 Correlation Energy        =      -1.7332234142537593 [Eh]
	 Total Energy              =    -385.4868832193096182 [Eh]

	 ================> DF-SCS-MP2 Energies <==================
	-----------------------------------------------------------
	 SCS Same-Spin Scale       =       0.3333333333333333 [-]
	 SCS Opposite-Spin Scale   =       1.2000000000000000 [-]
	 SCS Same-Spin Energy      =      -0.1376835920308795 [Eh]
	 SCS Opposite-Spin Energy  =      -1.5842071657933448 [Eh]
	 SCS Correlation Energy    =      -1.7218907578242242 [Eh]
	 SCS Total Energy          =    -385.4755505628800734 [Eh]
	-----------------------------------------------------------

  Dipole Moment: [D]
     X:    -1.1884      Y:    -0.3791      Z:    -0.1006     Total:     1.2515

*** Psi4 exiting successfully. Buy a developer a beer!
