                               Psi4 1.4a3.dev225

  ==> Input File <==

--------------------------------------------------------------------------
#psi4
#
memory 32 gb

molecule  {
0 1
  O        2.5396650    -0.5551780     0.7057380
  C        0.3025760    -0.4378200    -0.2720190
  C       -0.0927650     0.9034730    -0.0869930
  C        1.7537560    -0.7902540    -0.4711970
  C       -0.6504930    -1.4595100    -0.1921940
  C       -1.4454780     1.1756780     0.1425470
  C        0.9085990     2.0263450    -0.1815640
  C       -1.9974120    -1.1732570     0.0382800
  C       -2.3931980     0.1517110     0.2151080
  H        1.8374090    -1.8385530    -0.7929100
  H        2.2124050    -0.1698090    -1.2460060
  H       -0.3343640    -2.4925800    -0.3335330
  H       -1.7609160     2.2085530     0.2816270
  H        1.7975830     1.8046110     0.4123870
  H        1.2313290     2.1813940    -1.2178320
  H        0.4298034     3.0487351     0.2051974
  H       -2.7264860    -1.9781040     0.0926730
  H       -3.4380290     0.3918270     0.3981780
  H        2.0803190    -1.0071740     1.4349120
units angstrom
no_reorient  #important for SAPT in psi4, default
symmetry c1  #important for SAPT in psi4, default
}

set PROPERTIES_ORIGIN ["COM"]
properties('MP2/aug-cc-pvtz', properties = ['dipole'])
--------------------------------------------------------------------------

    Molecular point group: c1
  Charge       = 0
  Multiplicity = 1
  Basis Set: AUG-CC-PVTZ
    Blend: AUG-CC-PVTZ
  Basis Set: (AUG-CC-PVTZ AUX)
    Blend: AUG-CC-PVTZ-JKFIT

    Orbital Energies [Eh]
    ---------------------

    Doubly Occupied:

       1A    -20.561508     2A    -11.283433     3A    -11.246847
       4A    -11.240645     5A    -11.239015     6A    -11.238905
       7A    -11.235594     8A    -11.233784     9A    -11.231708
      10A     -1.357925    11A     -1.157922    12A     -1.048682
      13A     -1.032423    14A     -0.940260    15A     -0.907427
      16A     -0.817393    17A     -0.791909    18A     -0.701523
      19A     -0.673764    20A     -0.645232    21A     -0.623797
      22A     -0.605880    23A     -0.587238    24A     -0.573782
      25A     -0.569880    26A     -0.535040    27A     -0.518107
      28A     -0.492873    29A     -0.488589    30A     -0.478939
      31A     -0.447819    32A     -0.337851    33A     -0.326222

  @DF-RHF Final Energy:  -383.75291446113920

   => Energetics <=

    Nuclear Repulsion Energy =            426.4754508962488444
    One-Electron Energy =               -1366.1128989236949565
    Two-Electron Energy =                 555.8845335663069136
    Total Energy =                       -383.7529144611391985
  Basis Set: (AUG-CC-PVTZ AUX)
    Blend: AUG-CC-PVTZ-RI
    Molecular point group: c1

    Geometry (in Angstrom), charge = 0, multiplicity = 1:

       Center              X                  Y                   Z               Mass
    ------------   -----------------  -----------------  -----------------  -----------------
         O            2.551230210730    -0.539139115475     0.699016294166    15.994914619570
         C            0.314141210730    -0.421781115475    -0.278740705834    12.000000000000
         C           -0.081199789270     0.919511884525    -0.093714705834    12.000000000000
         C            1.765321210730    -0.774215115475    -0.477918705834    12.000000000000
         C           -0.638927789270    -1.443471115475    -0.198915705834    12.000000000000
         C           -1.433912789270     1.191716884525     0.135825294166    12.000000000000
         C            0.920164210730     2.042383884525    -0.188285705834    12.000000000000
         C           -1.985846789270    -1.157218115475     0.031558294166    12.000000000000
         C           -2.381632789270     0.167749884525     0.208386294166    12.000000000000
         H            1.848974210730    -1.822514115475    -0.799631705834     1.007825032230
         H            2.223970210730    -0.153770115475    -1.252727705834     1.007825032230
         H           -0.322798789270    -2.476541115475    -0.340254705834     1.007825032230
         H           -1.749350789270     2.224591884525     0.274905294166     1.007825032230
         H            1.809148210730     1.820649884525     0.405665294166     1.007825032230
         H            1.242894210730     2.197432884525    -1.224553705834     1.007825032230
         H            0.441368610730     3.064773984525     0.198475694166     1.007825032230
         H           -2.714920789270    -1.962065115475     0.085951294166     1.007825032230
         H           -3.426463789270     0.407865884525     0.391456294166     1.007825032230
         H            2.091884210730    -0.991135115475     1.428190294166     1.007825032230

  Basis Set: AUG-CC-PVTZ
    Blend: AUG-CC-PVTZ
  Basis Set: (AUG-CC-PVTZ AUX)
    Blend: AUG-CC-PVTZ-JKFIT
	 Reference Energy          =    -383.7529144611391985 [Eh]
	 Singles Energy            =      -0.0000000000000000 [Eh]
	 Same-Spin Energy          =      -0.4132220790506602 [Eh]
	 Opposite-Spin Energy      =      -1.3215963837884062 [Eh]
	 Correlation Energy        =      -1.7348184628390664 [Eh]
	 Total Energy              =    -385.4877329239782853 [Eh]

	 ================> DF-SCS-MP2 Energies <==================
	-----------------------------------------------------------
	 SCS Same-Spin Scale       =       0.3333333333333333 [-]
	 SCS Opposite-Spin Scale   =       1.2000000000000000 [-]
	 SCS Same-Spin Energy      =      -0.1377406930168867 [Eh]
	 SCS Opposite-Spin Energy  =      -1.5859156605460873 [Eh]
	 SCS Correlation Energy    =      -1.7236563535629741 [Eh]
	 SCS Total Energy          =    -385.4765708147021996 [Eh]
	-----------------------------------------------------------

  Dipole Moment: [D]
     X:    -1.1981      Y:    -0.4706      Z:    -0.1152     Total:     1.2924

*** Psi4 exiting successfully. Buy a developer a beer!
