                               Psi4 1.4a3.dev225

  ==> Input File <==

--------------------------------------------------------------------------
#psi4
#
memory 32 gb

molecule  {
0 1
  O        2.5396650    -0.5551780     0.7057380
  C        0.3025760    -0.4378200    -0.2720190
  C       -0.0927650     0.9034730    -0.0869930
  C        1.7537560    -0.7902540    -0.4711970
  C       -0.6504930    -1.4595100    -0.1921940
  C       -1.3487721     1.1562180     0.1261371
  C        0.9085990     2.0263450    -0.1815640
  C       -1.9974120    -1.1732570     0.0382800
  C       -2.3931980     0.1517110     0.2151080
  H        1.8374090    -1.8385530    -0.7929100
  H        2.2124050    -0.1698090    -1.2460060
  H       -0.3343640    -2.4925800    -0.3335330
  H       -1.7609160     2.2085530     0.2816270
  H        1.7975830     1.8046110     0.4123870
  H        1.2313290     2.1813940    -1.2178320
  H        0.4699250     2.9630620     0.1727880
  H       -2.7264860    -1.9781040     0.0926730
  H       -3.4380290     0.3918270     0.3981780
  H        2.0803190    -1.0071740     1.4349120
units angstrom
no_reorient  #important for SAPT in psi4, default
symmetry c1  #important for SAPT in psi4, default
}

set PROPERTIES_ORIGIN ["COM"]
properties('MP2/aug-cc-pvtz', properties = ['dipole'])
--------------------------------------------------------------------------

    Molecular point group: c1
  Charge       = 0
  Multiplicity = 1
  Basis Set: AUG-CC-PVTZ
    Blend: AUG-CC-PVTZ
  Basis Set: (AUG-CC-PVTZ AUX)
    Blend: AUG-CC-PVTZ-JKFIT

    Orbital Energies [Eh]
    ---------------------

    Doubly Occupied:

       1A    -20.561241     2A    -11.282969     3A    -11.243779
       4A    -11.240730     5A    -11.239212     6A    -11.235912
       7A    -11.232876     8A    -11.230699     9A    -11.218261
      10A     -1.357629    11A     -1.165106    12A     -1.054093
      13A     -1.031106    14A     -0.940361    15A     -0.913617
      16A     -0.815875    17A     -0.796022    18A     -0.701189
      19A     -0.673412    20A     -0.647945    21A     -0.621091
      22A     -0.602441    23A     -0.585583    24A     -0.574343
      25A     -0.569834    26A     -0.545692    27A     -0.527323
      28A     -0.491480    29A     -0.489744    30A     -0.468052
      31A     -0.449225    32A     -0.344527    33A     -0.326156

  @DF-RHF Final Energy:  -383.74643097702159

   => Energetics <=

    Nuclear Repulsion Energy =            428.2934027675438529
    One-Electron Energy =               -1369.7246220020040255
    Two-Electron Energy =                 557.6847882574386404
    Total Energy =                       -383.7464309770215323
  Basis Set: (AUG-CC-PVTZ AUX)
    Blend: AUG-CC-PVTZ-RI
    Molecular point group: c1

    Geometry (in Angstrom), charge = 0, multiplicity = 1:

       Center              X                  Y                   Z               Mass
    ------------   -----------------  -----------------  -----------------  -----------------
         O            2.541392615765    -0.536518854954     0.700896984363    15.994914619570
         C            0.304303615765    -0.419160854954    -0.276860015637    12.000000000000
         C           -0.091037384235     0.922132145046    -0.091834015637    12.000000000000
         C            1.755483615765    -0.771594854954    -0.476038015637    12.000000000000
         C           -0.648765384235    -1.440850854954    -0.197035015637    12.000000000000
         C           -1.347044484235     1.174877145046     0.121296084363    12.000000000000
         C            0.910326615765     2.045004145046    -0.186405015637    12.000000000000
         C           -1.995684384235    -1.154597854954     0.033438984363    12.000000000000
         C           -2.391470384235     0.170370145046     0.210266984363    12.000000000000
         H            1.839136615765    -1.819893854954    -0.797751015637     1.007825032230
         H            2.214132615765    -0.151149854954    -1.250847015637     1.007825032230
         H           -0.332636384235    -2.473920854954    -0.338374015637     1.007825032230
         H           -1.759188384235     2.227212145046     0.276785984363     1.007825032230
         H            1.799310615765     1.823270145046     0.407545984363     1.007825032230
         H            1.233056615765     2.200053145046    -1.222673015637     1.007825032230
         H            0.471652615765     2.981721145046     0.167946984363     1.007825032230
         H           -2.724758384235    -1.959444854954     0.087831984363     1.007825032230
         H           -3.436301384235     0.410486145046     0.393336984363     1.007825032230
         H            2.082046615765    -0.988514854954     1.430070984363     1.007825032230

  Basis Set: AUG-CC-PVTZ
    Blend: AUG-CC-PVTZ
  Basis Set: (AUG-CC-PVTZ AUX)
    Blend: AUG-CC-PVTZ-JKFIT
	 Reference Energy          =    -383.7464309770215891 [Eh]
	 Singles Energy            =      -0.0000000000000000 [Eh]
	 Same-Spin Energy          =      -0.4128988999299696 [Eh]
	 Opposite-Spin Energy      =      -1.3211960373762188 [Eh]
	 Correlation Energy        =      -1.7340949373061885 [Eh]
	 Total Energy              =    -385.4805259143277567 [Eh]

	 ================> DF-SCS-MP2 Energies <==================
	-----------------------------------------------------------
	 SCS Same-Spin Scale       =       0.3333333333333333 [-]
	 SCS Opposite-Spin Scale   =       1.2000000000000000 [-]
	 SCS Same-Spin Energy      =      -0.1376329666433232 [Eh]
	 SCS Opposite-Spin Energy  =      -1.5854352448514626 [Eh]
	 SCS Correlation Energy    =      -1.7230682114947857 [Eh]
	 SCS Total Energy          =    -385.4694991885163518 [Eh]
	-----------------------------------------------------------

  Dipole Moment: [D]
     X:    -1.2466      Y:    -0.4797      Z:    -0.1016     Total:     1.3396

*** Psi4 exiting successfully. Buy a developer a beer!
