                               Psi4 1.4a3.dev225

  ==> Input File <==

--------------------------------------------------------------------------
#psi4
#
memory 32 gb

molecule  {
0 1
  O        2.5396650    -0.5551780     0.7057380
  C        0.3025760    -0.4378200    -0.2720190
  C       -0.0927650     0.9034730    -0.0869930
  C        1.7537560    -0.7902540    -0.4711970
  C       -0.6504930    -1.4595100    -0.1921940
  C       -1.4454780     1.1756780     0.1425470
  C        0.9085990     2.0263450    -0.1815640
  C       -1.9974120    -1.1732570     0.0382800
  C       -2.3931980     0.1517110     0.2151080
  H        1.8374090    -1.8385530    -0.7929100
  H        2.2124050    -0.1698090    -1.2460060
  H       -0.3053497    -2.5873951    -0.3465051
  H       -1.7609160     2.2085530     0.2816270
  H        1.7975830     1.8046110     0.4123870
  H        1.2313290     2.1813940    -1.2178320
  H        0.4699250     2.9630620     0.1727880
  H       -2.7264860    -1.9781040     0.0926730
  H       -3.4380290     0.3918270     0.3981780
  H        2.0803190    -1.0071740     1.4349120
units angstrom
no_reorient  #important for SAPT in psi4, default
symmetry c1  #important for SAPT in psi4, default
}

set PROPERTIES_ORIGIN ["COM"]
properties('MP2/aug-cc-pvtz', properties = ['dipole'])
--------------------------------------------------------------------------

    Molecular point group: c1
  Charge       = 0
  Multiplicity = 1
  Basis Set: AUG-CC-PVTZ
    Blend: AUG-CC-PVTZ
  Basis Set: (AUG-CC-PVTZ AUX)
    Blend: AUG-CC-PVTZ-JKFIT

    Orbital Energies [Eh]
    ---------------------

    Doubly Occupied:

       1A    -20.560855     2A    -11.282644     3A    -11.251320
       4A    -11.246781     5A    -11.239618     6A    -11.239481
       7A    -11.236379     8A    -11.234117     9A    -11.220326
      10A     -1.357248    11A     -1.157851    12A     -1.049833
      13A     -1.030970    14A     -0.943359    15A     -0.908534
      16A     -0.812766    17A     -0.792686    18A     -0.700961
      19A     -0.671946    20A     -0.642534    21A     -0.621828
      22A     -0.603936    23A     -0.582865    24A     -0.571071
      25A     -0.568609    26A     -0.543808    27A     -0.526578
      28A     -0.489002    29A     -0.488716    30A     -0.478596
      31A     -0.447557    32A     -0.338227    33A     -0.326408

  @DF-RHF Final Energy:  -383.75220733857304

   => Energetics <=

    Nuclear Repulsion Energy =            426.4270990252055071
    One-Electron Energy =               -1366.0237941216939817
    Two-Electron Energy =                 555.8444877579154308
    Total Energy =                       -383.7522073385730437
  Basis Set: (AUG-CC-PVTZ AUX)
    Blend: AUG-CC-PVTZ-RI
    Molecular point group: c1

    Geometry (in Angstrom), charge = 0, multiplicity = 1:

       Center              X                  Y                   Z               Mass
    ------------   -----------------  -----------------  -----------------  -----------------
         O            2.550659430979    -0.537649021185     0.699390959734    15.994914619570
         C            0.313570430979    -0.420291021185    -0.278366040266    12.000000000000
         C           -0.081770569021     0.921001978815    -0.093340040266    12.000000000000
         C            1.764750430979    -0.772725021185    -0.477544040266    12.000000000000
         C           -0.639498569021    -1.441981021185    -0.198541040266    12.000000000000
         C           -1.434483569021     1.193206978815     0.136199959734    12.000000000000
         C            0.919593430979     2.043873978815    -0.187911040266    12.000000000000
         C           -1.986417569021    -1.155728021185     0.031932959734    12.000000000000
         C           -2.382203569021     0.169239978815     0.208760959734    12.000000000000
         H            1.848403430979    -1.821024021185    -0.799257040266     1.007825032230
         H            2.223399430979    -0.152280021185    -1.252353040266     1.007825032230
         H           -0.294355269021    -2.569866121185    -0.352852140266     1.007825032230
         H           -1.749921569021     2.226081978815     0.275279959734     1.007825032230
         H            1.808577430979     1.822139978815     0.406039959734     1.007825032230
         H            1.242323430979     2.198922978815    -1.224179040266     1.007825032230
         H            0.480919430979     2.980590978815     0.166440959734     1.007825032230
         H           -2.715491569021    -1.960575021185     0.086325959734     1.007825032230
         H           -3.427034569021     0.409355978815     0.391830959734     1.007825032230
         H            2.091313430979    -0.989645021185     1.428564959734     1.007825032230

  Basis Set: AUG-CC-PVTZ
    Blend: AUG-CC-PVTZ
  Basis Set: (AUG-CC-PVTZ AUX)
    Blend: AUG-CC-PVTZ-JKFIT
	 Reference Energy          =    -383.7522073385730437 [Eh]
	 Singles Energy            =      -0.0000000000000000 [Eh]
	 Same-Spin Energy          =      -0.4134553804276108 [Eh]
	 Opposite-Spin Energy      =      -1.3217301369360595 [Eh]
	 Correlation Energy        =      -1.7351855173636703 [Eh]
	 Total Energy              =    -385.4873928559367187 [Eh]

	 ================> DF-SCS-MP2 Energies <==================
	-----------------------------------------------------------
	 SCS Same-Spin Scale       =       0.3333333333333333 [-]
	 SCS Opposite-Spin Scale   =       1.2000000000000000 [-]
	 SCS Same-Spin Energy      =      -0.1378184601425369 [Eh]
	 SCS Opposite-Spin Energy  =      -1.5860761643232713 [Eh]
	 SCS Correlation Energy    =      -1.7238946244658082 [Eh]
	 SCS Total Energy          =    -385.4761019630388432 [Eh]
	-----------------------------------------------------------

  Dipole Moment: [D]
     X:    -1.2167      Y:    -0.3478      Z:    -0.0959     Total:     1.2690

*** Psi4 exiting successfully. Buy a developer a beer!
