                               Psi4 1.4a3.dev225

  ==> Input File <==

--------------------------------------------------------------------------
#psi4
#
memory 32 gb

molecule  {
0 1
  O        2.5396650    -0.5551780     0.7057380
  C        0.3025760    -0.4378200    -0.2720190
  C       -0.0927650     0.9034730    -0.0869930
  C        1.7537560    -0.7902540    -0.4711970
  C       -0.6504930    -1.4595100    -0.1921940
  C       -1.4454780     1.1756780     0.1425470
  C        0.9085990     2.0263450    -0.1815640
  C       -1.9974120    -1.1732570     0.0382800
  C       -2.3931980     0.1517110     0.2151080
  H        1.8374090    -1.8385530    -0.7929100
  H        2.2124050    -0.1698090    -1.2460060
  H       -0.3343640    -2.4925800    -0.3335330
  H       -1.7609160     2.2085530     0.2816270
  H        1.8789996     1.7843037     0.4667833
  H        1.2313290     2.1813940    -1.2178320
  H        0.4699250     2.9630620     0.1727880
  H       -2.7264860    -1.9781040     0.0926730
  H       -3.4380290     0.3918270     0.3981780
  H        2.0803190    -1.0071740     1.4349120
units angstrom
no_reorient  #important for SAPT in psi4, default
symmetry c1  #important for SAPT in psi4, default
}

set PROPERTIES_ORIGIN ["COM"]
properties('MP2/aug-cc-pvtz', properties = ['dipole'])
--------------------------------------------------------------------------

    Molecular point group: c1
  Charge       = 0
  Multiplicity = 1
  Basis Set: AUG-CC-PVTZ
    Blend: AUG-CC-PVTZ
  Basis Set: (AUG-CC-PVTZ AUX)
    Blend: AUG-CC-PVTZ-JKFIT

    Orbital Energies [Eh]
    ---------------------

    Doubly Occupied:

       1A    -20.560787     2A    -11.282700     3A    -11.246529
       4A    -11.240331     5A    -11.239061     6A    -11.238373
       7A    -11.235496     8A    -11.234110     9A    -11.230277
      10A     -1.357301    11A     -1.157704    12A     -1.048102
      13A     -1.032634    14A     -0.939937    15A     -0.906359
      16A     -0.818397    17A     -0.791007    18A     -0.700537
      19A     -0.674936    20A     -0.643935    21A     -0.625546
      22A     -0.604936    23A     -0.587038    24A     -0.573342
      25A     -0.559750    26A     -0.540708    27A     -0.521274
      28A     -0.494526    29A     -0.485971    30A     -0.478302
      31A     -0.445917    32A     -0.337820    33A     -0.325400

  @DF-RHF Final Energy:  -383.75272394921848

   => Energetics <=

    Nuclear Repulsion Energy =            426.5497794401705960
    One-Electron Energy =               -1366.2869138811836365
    Two-Electron Energy =                 555.9844104917946197
    Total Energy =                       -383.7527239492184208
  Basis Set: (AUG-CC-PVTZ AUX)
    Blend: AUG-CC-PVTZ-RI
    Molecular point group: c1

    Geometry (in Angstrom), charge = 0, multiplicity = 1:

       Center              X                  Y                   Z               Mass
    ------------   -----------------  -----------------  -----------------  -----------------
         O            2.550226802320    -0.538264150858     0.698834772304    15.994914619570
         C            0.313137802320    -0.420906150858    -0.278922227696    12.000000000000
         C           -0.082203197680     0.920386849142    -0.093896227696    12.000000000000
         C            1.764317802320    -0.773340150858    -0.478100227696    12.000000000000
         C           -0.639931197680    -1.442596150858    -0.199097227696    12.000000000000
         C           -1.434916197680     1.192591849142     0.135643772304    12.000000000000
         C            0.919160802320     2.043258849142    -0.188467227696    12.000000000000
         C           -1.986850197680    -1.156343150858     0.031376772304    12.000000000000
         C           -2.382636197680     0.168624849142     0.208204772304    12.000000000000
         H            1.847970802320    -1.821639150858    -0.799813227696     1.007825032230
         H            2.222966802320    -0.152895150858    -1.252909227696     1.007825032230
         H           -0.323802197680    -2.475666150858    -0.340436227696     1.007825032230
         H           -1.750354197680     2.225466849142     0.274723772304     1.007825032230
         H            1.889561402320     1.801217549142     0.459880072304     1.007825032230
         H            1.241890802320     2.198307849142    -1.224735227696     1.007825032230
         H            0.480486802320     2.979975849142     0.165884772304     1.007825032230
         H           -2.715924197680    -1.961190150858     0.085769772304     1.007825032230
         H           -3.427467197680     0.408740849142     0.391274772304     1.007825032230
         H            2.090880802320    -0.990260150858     1.428008772304     1.007825032230

  Basis Set: AUG-CC-PVTZ
    Blend: AUG-CC-PVTZ
  Basis Set: (AUG-CC-PVTZ AUX)
    Blend: AUG-CC-PVTZ-JKFIT
	 Reference Energy          =    -383.7527239492184776 [Eh]
	 Singles Energy            =      -0.0000000000000000 [Eh]
	 Same-Spin Energy          =      -0.4133657117966182 [Eh]
	 Opposite-Spin Energy      =      -1.3216507375313051 [Eh]
	 Correlation Energy        =      -1.7350164493279232 [Eh]
	 Total Energy              =    -385.4877403985464071 [Eh]

	 ================> DF-SCS-MP2 Energies <==================
	-----------------------------------------------------------
	 SCS Same-Spin Scale       =       0.3333333333333333 [-]
	 SCS Opposite-Spin Scale   =       1.2000000000000000 [-]
	 SCS Same-Spin Energy      =      -0.1377885705988727 [Eh]
	 SCS Opposite-Spin Energy  =      -1.5859808850375661 [Eh]
	 SCS Correlation Energy    =      -1.7237694556364387 [Eh]
	 SCS Total Energy          =    -385.4764934048549208 [Eh]
	-----------------------------------------------------------

  Dipole Moment: [D]
     X:    -1.2239      Y:    -0.4294      Z:    -0.1074     Total:     1.3015

*** Psi4 exiting successfully. Buy a developer a beer!
