                               Psi4 1.4a3.dev225

  ==> Input File <==

--------------------------------------------------------------------------
#psi4
#
memory 32 gb

molecule  {
0 1
  O        2.5396650    -0.5551780     0.7057380
  C        0.3025760    -0.4378200    -0.2720190
  C       -0.0704121     1.0479997    -0.0799582
  C        1.7537560    -0.7902540    -0.4711970
  C       -0.6504930    -1.4595100    -0.1921940
  C       -1.4454780     1.1756780     0.1425470
  C        0.9085990     2.0263450    -0.1815640
  C       -1.9974120    -1.1732570     0.0382800
  C       -2.3931980     0.1517110     0.2151080
  H        1.8374090    -1.8385530    -0.7929100
  H        2.2124050    -0.1698090    -1.2460060
  H       -0.3343640    -2.4925800    -0.3335330
  H       -1.7609160     2.2085530     0.2816270
  H        1.7975830     1.8046110     0.4123870
  H        1.2313290     2.1813940    -1.2178320
  H        0.4699250     2.9630620     0.1727880
  H       -2.7264860    -1.9781040     0.0926730
  H       -3.4380290     0.3918270     0.3981780
  H        2.0803190    -1.0071740     1.4349120
units angstrom
no_reorient  #important for SAPT in psi4, default
symmetry c1  #important for SAPT in psi4, default
}

set PROPERTIES_ORIGIN ["COM"]
properties('MP2/aug-cc-pvtz', properties = ['dipole'])
--------------------------------------------------------------------------

    Molecular point group: c1
  Charge       = 0
  Multiplicity = 1
  Basis Set: AUG-CC-PVTZ
    Blend: AUG-CC-PVTZ
  Basis Set: (AUG-CC-PVTZ AUX)
    Blend: AUG-CC-PVTZ-JKFIT

    Orbital Energies [Eh]
    ---------------------

    Doubly Occupied:

       1A    -20.560582     2A    -11.281648     3A    -11.254634
       4A    -11.249166     5A    -11.239268     6A    -11.239059
       7A    -11.235631     8A    -11.233748     9A    -11.217672
      10A     -1.356821    11A     -1.149780    12A     -1.065641
      13A     -1.030724    14A     -0.954202    15A     -0.905241
      16A     -0.799840    17A     -0.794867    18A     -0.701426
      19A     -0.670725    20A     -0.650233    21A     -0.630168
      22A     -0.606492    23A     -0.585244    24A     -0.583460
      25A     -0.575550    26A     -0.547755    27A     -0.535532
      28A     -0.487683    29A     -0.481904    30A     -0.480059
      31A     -0.434785    32A     -0.340217    33A     -0.311239

  @DF-RHF Final Energy:  -383.73135411825712

   => Energetics <=

    Nuclear Repulsion Energy =            425.6587494133910923
    One-Electron Energy =               -1364.3982178425326310
    Two-Electron Energy =                 555.0081143108844799
    Total Energy =                       -383.7313541182570589
  Basis Set: (AUG-CC-PVTZ AUX)
    Blend: AUG-CC-PVTZ-RI
    Molecular point group: c1

    Geometry (in Angstrom), charge = 0, multiplicity = 1:

       Center              X                  Y                   Z               Mass
    ------------   -----------------  -----------------  -----------------  -----------------
         O            2.548701642285    -0.552639026827     0.698592330427    15.994914619570
         C            0.311612642285    -0.435281026827    -0.279164669573    12.000000000000
         C           -0.061375457715     1.050538673173    -0.087103869573    12.000000000000
         C            1.762792642285    -0.787715026827    -0.478342669573    12.000000000000
         C           -0.641456357715    -1.456971026827    -0.199339669573    12.000000000000
         C           -1.436441357715     1.178216973173     0.135401330427    12.000000000000
         C            0.917635642285     2.028883973173    -0.188709669573    12.000000000000
         C           -1.988375357715    -1.170718026827     0.031134330427    12.000000000000
         C           -2.384161357715     0.154249973173     0.207962330427    12.000000000000
         H            1.846445642285    -1.836014026827    -0.800055669573     1.007825032230
         H            2.221441642285    -0.167270026827    -1.253151669573     1.007825032230
         H           -0.325327357715    -2.490041026827    -0.340678669573     1.007825032230
         H           -1.751879357715     2.211091973173     0.274481330427     1.007825032230
         H            1.806619642285     1.807149973173     0.405241330427     1.007825032230
         H            1.240365642285     2.183932973173    -1.224977669573     1.007825032230
         H            0.478961642285     2.965600973173     0.165642330427     1.007825032230
         H           -2.717449357715    -1.975565026827     0.085527330427     1.007825032230
         H           -3.428992357715     0.394365973173     0.391032330427     1.007825032230
         H            2.089355642285    -1.004635026827     1.427766330427     1.007825032230

  Basis Set: AUG-CC-PVTZ
    Blend: AUG-CC-PVTZ
  Basis Set: (AUG-CC-PVTZ AUX)
    Blend: AUG-CC-PVTZ-JKFIT
	 Reference Energy          =    -383.7313541182571157 [Eh]
	 Singles Energy            =      -0.0000000000000000 [Eh]
	 Same-Spin Energy          =      -0.4148366908560159 [Eh]
	 Opposite-Spin Energy      =      -1.3239270630941493 [Eh]
	 Correlation Energy        =      -1.7387637539501652 [Eh]
	 Total Energy              =    -385.4701178722072541 [Eh]

	 ================> DF-SCS-MP2 Energies <==================
	-----------------------------------------------------------
	 SCS Same-Spin Scale       =       0.3333333333333333 [-]
	 SCS Opposite-Spin Scale   =       1.2000000000000000 [-]
	 SCS Same-Spin Energy      =      -0.1382788969520053 [Eh]
	 SCS Opposite-Spin Energy  =      -1.5887124757129791 [Eh]
	 SCS Correlation Energy    =      -1.7269913726649844 [Eh]
	 SCS Total Energy          =    -385.4583454909221132 [Eh]
	-----------------------------------------------------------

  Dipole Moment: [D]
     X:    -1.0573      Y:    -0.2774      Z:    -0.1304     Total:     1.1009

*** Psi4 exiting successfully. Buy a developer a beer!
