                               Psi4 1.4a3.dev225

  ==> Input File <==

--------------------------------------------------------------------------
#psi4
#
memory 32 gb

molecule  {
0 1
  O        2.5396650    -0.5551780     0.7057380
  C        0.3025760    -0.4378200    -0.2720190
  C       -0.0927650     0.9034730    -0.0869930
  C        1.7537560    -0.7902540    -0.4711970
  C       -0.6504930    -1.4595100    -0.1921940
  C       -1.4454780     1.1756780     0.1425470
  C        0.9085990     2.0263450    -0.1815640
  C       -1.9974120    -1.1732570     0.0382800
  C       -2.3931980     0.1517110     0.2151080
  H        1.8374090    -1.8385530    -0.7929100
  H        2.2124050    -0.1698090    -1.2460060
  H       -0.3343640    -2.4925800    -0.3335330
  H       -1.7609160     2.2085530     0.2816270
  H        1.7975830     1.8046110     0.4123870
  H        1.2313290     2.1813940    -1.2178320
  H        0.4699250     2.9630620     0.1727880
  H       -2.7264860    -1.9781040     0.0926730
  H       -3.4380290     0.3918270     0.3981780
  H        2.0803190    -1.0071740     1.4349120
units angstrom
no_reorient  #important for SAPT in psi4, default
symmetry c1  #important for SAPT in psi4, default
}

set PROPERTIES_ORIGIN ["COM"]
properties('MP2/aug-cc-pvtz', properties = ['dipole'])
--------------------------------------------------------------------------

    Molecular point group: c1
  Charge       = 0
  Multiplicity = 1
  Basis Set: AUG-CC-PVTZ
    Blend: AUG-CC-PVTZ
  Basis Set: (AUG-CC-PVTZ AUX)
    Blend: AUG-CC-PVTZ-JKFIT

    Orbital Energies [Eh]
    ---------------------

    Doubly Occupied:

       1A    -20.560910     2A    -11.282759     3A    -11.245876
       4A    -11.240139     5A    -11.238762     6A    -11.238152
       7A    -11.235194     8A    -11.233579     9A    -11.219844
      10A     -1.357311    11A     -1.157577    12A     -1.049322
      13A     -1.032669    14A     -0.943651    15A     -0.908569
      16A     -0.818275    17A     -0.792430    18A     -0.701004
      19A     -0.674694    20A     -0.644729    21A     -0.625272
      22A     -0.605224    23A     -0.586719    24A     -0.573070
      25A     -0.568616    26A     -0.543449    27A     -0.526236
      28A     -0.494175    29A     -0.488161    30A     -0.478232
      31A     -0.447473    32A     -0.337560    33A     -0.325672

  @DF-RHF Final Energy:  -383.75958986032941

   => Energetics <=

    Nuclear Repulsion Energy =            426.9078382073307694
    One-Electron Energy =               -1366.9842475839786857
    Two-Electron Energy =                 556.3168195163184464
    Total Energy =                       -383.7595898603294700
  Basis Set: (AUG-CC-PVTZ AUX)
    Blend: AUG-CC-PVTZ-RI
    Molecular point group: c1

    Geometry (in Angstrom), charge = 0, multiplicity = 1:

       Center              X                  Y                   Z               Mass
    ------------   -----------------  -----------------  -----------------  -----------------
         O            2.550898970421    -0.538431806094     0.699283863247    15.994914619570
         C            0.313809970421    -0.421073806094    -0.278473136753    12.000000000000
         C           -0.081531029579     0.920219193906    -0.093447136753    12.000000000000
         C            1.764989970421    -0.773507806094    -0.477651136753    12.000000000000
         C           -0.639259029579    -1.442763806094    -0.198648136753    12.000000000000
         C           -1.434244029579     1.192424193906     0.136092863247    12.000000000000
         C            0.919832970421     2.043091193906    -0.188018136753    12.000000000000
         C           -1.986178029579    -1.156510806094     0.031825863247    12.000000000000
         C           -2.381964029579     0.168457193906     0.208653863247    12.000000000000
         H            1.848642970421    -1.821806806094    -0.799364136753     1.007825032230
         H            2.223638970421    -0.153062806094    -1.252460136753     1.007825032230
         H           -0.323130029579    -2.475833806094    -0.339987136753     1.007825032230
         H           -1.749682029579     2.225299193906     0.275172863247     1.007825032230
         H            1.808816970421     1.821357193906     0.405932863247     1.007825032230
         H            1.242562970421     2.198140193906    -1.224286136753     1.007825032230
         H            0.481158970421     2.979808193906     0.166333863247     1.007825032230
         H           -2.715252029579    -1.961357806094     0.086218863247     1.007825032230
         H           -3.426795029579     0.408573193906     0.391723863247     1.007825032230
         H            2.091552970421    -0.990427806094     1.428457863247     1.007825032230

  Basis Set: AUG-CC-PVTZ
    Blend: AUG-CC-PVTZ
  Basis Set: (AUG-CC-PVTZ AUX)
    Blend: AUG-CC-PVTZ-JKFIT
	 Reference Energy          =    -383.7595898603294131 [Eh]
	 Singles Energy            =      -0.0000000000000000 [Eh]
	 Same-Spin Energy          =      -0.4131798657581000 [Eh]
	 Opposite-Spin Energy      =      -1.3207732426606280 [Eh]
	 Correlation Energy        =      -1.7339531084187279 [Eh]
	 Total Energy              =    -385.4935429687481587 [Eh]

	 ================> DF-SCS-MP2 Energies <==================
	-----------------------------------------------------------
	 SCS Same-Spin Scale       =       0.3333333333333333 [-]
	 SCS Opposite-Spin Scale   =       1.2000000000000000 [-]
	 SCS Same-Spin Energy      =      -0.1377266219193666 [Eh]
	 SCS Opposite-Spin Energy  =      -1.5849278911927536 [Eh]
	 SCS Correlation Energy    =      -1.7226545131121203 [Eh]
	 SCS Total Energy          =    -385.4822443734415174 [Eh]
	-----------------------------------------------------------

  Dipole Moment: [D]
     X:    -1.2015      Y:    -0.4006      Z:    -0.1022     Total:     1.2706

*** Psi4 exiting successfully. Buy a developer a beer!
