                               Psi4 1.4a3.dev225

  ==> Input File <==

--------------------------------------------------------------------------
#psi4
#
memory 32 gb

molecule  {
0 1
  O        2.5396650    -0.5551780     0.7057380
  C        0.3025760    -0.4378200    -0.2720190
  C       -0.0927650     0.9034730    -0.0869930
  C        1.7537560    -0.7902540    -0.4711970
  C       -0.6263165    -1.3156644    -0.1832312
  C       -1.4454780     1.1756780     0.1425470
  C        0.9085990     2.0263450    -0.1815640
  C       -1.9974120    -1.1732570     0.0382800
  C       -2.3931980     0.1517110     0.2151080
  H        1.8374090    -1.8385530    -0.7929100
  H        2.2124050    -0.1698090    -1.2460060
  H       -0.3343640    -2.4925800    -0.3335330
  H       -1.7609160     2.2085530     0.2816270
  H        1.7975830     1.8046110     0.4123870
  H        1.2313290     2.1813940    -1.2178320
  H        0.4699250     2.9630620     0.1727880
  H       -2.7264860    -1.9781040     0.0926730
  H       -3.4380290     0.3918270     0.3981780
  H        2.0803190    -1.0071740     1.4349120
units angstrom
no_reorient  #important for SAPT in psi4, default
symmetry c1  #important for SAPT in psi4, default
}

set PROPERTIES_ORIGIN ["COM"]
properties('MP2/aug-cc-pvtz', properties = ['dipole'])
--------------------------------------------------------------------------

    Molecular point group: c1
  Charge       = 0
  Multiplicity = 1
  Basis Set: AUG-CC-PVTZ
    Blend: AUG-CC-PVTZ
  Basis Set: (AUG-CC-PVTZ AUX)
    Blend: AUG-CC-PVTZ-JKFIT

    Orbital Energies [Eh]
    ---------------------

    Doubly Occupied:

       1A    -20.562573     2A    -11.284706     3A    -11.247421
       4A    -11.239161     5A    -11.238180     6A    -11.234633
       7A    -11.230326     8A    -11.224805     9A    -11.219945
      10A     -1.358946    11A     -1.173105    12A     -1.052466
      13A     -1.039557    14A     -0.941514    15A     -0.917042
      16A     -0.808262    17A     -0.801649    18A     -0.706822
      19A     -0.670434    20A     -0.651955    21A     -0.620763
      22A     -0.608590    23A     -0.584660    24A     -0.570391
      25A     -0.564900    26A     -0.542806    27A     -0.528581
      28A     -0.498230    29A     -0.489803    30A     -0.469636
      31A     -0.442753    32A     -0.351484    33A     -0.323371

  @DF-RHF Final Energy:  -383.73289163624531

   => Energetics <=

    Nuclear Repulsion Energy =            429.5572067397438900
    One-Electron Energy =               -1372.1812539314371406
    Two-Electron Energy =                 558.8911555554479946
    Total Energy =                       -383.7328916362453128
  Basis Set: (AUG-CC-PVTZ AUX)
    Blend: AUG-CC-PVTZ-RI
    Molecular point group: c1

    Geometry (in Angstrom), charge = 0, multiplicity = 1:

       Center              X                  Y                   Z               Mass
    ------------   -----------------  -----------------  -----------------  -----------------
         O            2.548522379300    -0.552572073537     0.698402804744    15.994914619570
         C            0.311433379300    -0.435214073537    -0.279354195256    12.000000000000
         C           -0.083907620700     0.906078926463    -0.094328195256    12.000000000000
         C            1.762613379300    -0.787648073537    -0.478532195256    12.000000000000
         C           -0.617459120700    -1.313058473537    -0.190566395256    12.000000000000
         C           -1.436620620700     1.178283926463     0.135211804744    12.000000000000
         C            0.917456379300     2.028950926463    -0.188899195256    12.000000000000
         C           -1.988554620700    -1.170651073537     0.030944804744    12.000000000000
         C           -2.384340620700     0.154316926463     0.207772804744    12.000000000000
         H            1.846266379300    -1.835947073537    -0.800245195256     1.007825032230
         H            2.221262379300    -0.167203073537    -1.253341195256     1.007825032230
         H           -0.325506620700    -2.489974073537    -0.340868195256     1.007825032230
         H           -1.752058620700     2.211158926463     0.274291804744     1.007825032230
         H            1.806440379300     1.807216926463     0.405051804744     1.007825032230
         H            1.240186379300     2.183999926463    -1.225167195256     1.007825032230
         H            0.478782379300     2.965667926463     0.165452804744     1.007825032230
         H           -2.717628620700    -1.975498073537     0.085337804744     1.007825032230
         H           -3.429171620700     0.394432926463     0.390842804744     1.007825032230
         H            2.089176379300    -1.004568073537     1.427576804744     1.007825032230

  Basis Set: AUG-CC-PVTZ
    Blend: AUG-CC-PVTZ
  Basis Set: (AUG-CC-PVTZ AUX)
    Blend: AUG-CC-PVTZ-JKFIT
	 Reference Energy          =    -383.7328916362453128 [Eh]
	 Singles Energy            =      -0.0000000000000000 [Eh]
	 Same-Spin Energy          =      -0.4133712358867149 [Eh]
	 Opposite-Spin Energy      =      -1.3214938677106582 [Eh]
	 Correlation Energy        =      -1.7348651035973730 [Eh]
	 Total Energy              =    -385.4677567398426845 [Eh]

	 ================> DF-SCS-MP2 Energies <==================
	-----------------------------------------------------------
	 SCS Same-Spin Scale       =       0.3333333333333333 [-]
	 SCS Opposite-Spin Scale   =       1.2000000000000000 [-]
	 SCS Same-Spin Energy      =      -0.1377904119622383 [Eh]
	 SCS Opposite-Spin Energy  =      -1.5857926412527898 [Eh]
	 SCS Correlation Energy    =      -1.7235830532150280 [Eh]
	 SCS Total Energy          =    -385.4564746894603218 [Eh]
	-----------------------------------------------------------

  Dipole Moment: [D]
     X:    -1.2226      Y:    -0.3183      Z:    -0.0806     Total:     1.2659

*** Psi4 exiting successfully. Buy a developer a beer!
