                               Psi4 1.4a3.dev225

  ==> Input File <==

--------------------------------------------------------------------------
#psi4
#
memory 32 gb

molecule  {
0 1
  O        2.5396650    -0.5551780     0.7057380
  C        0.3025760    -0.4378200    -0.2720190
  C       -0.0927650     0.9034730    -0.0869930
  C        1.7537560    -0.7902540    -0.4711970
  C       -0.6504930    -1.4595100    -0.1921940
  C       -1.4454780     1.1756780     0.1425470
  C        0.9085990     2.0263450    -0.1815640
  C       -1.9974120    -1.1732570     0.0382800
  C       -2.3931980     0.1517110     0.2151080
  H        1.8374090    -1.8385530    -0.7929100
  H        2.2124050    -0.1698090    -1.2460060
  H       -0.3343640    -2.4925800    -0.3335330
  H       -1.7609160     2.2085530     0.2816270
  H        1.8092611     1.7104022     0.3487418
  H        1.2313290     2.1813940    -1.2178320
  H        0.4699250     2.9630620     0.1727880
  H       -2.7264860    -1.9781040     0.0926730
  H       -3.4380290     0.3918270     0.3981780
  H        2.0803190    -1.0071740     1.4349120
units angstrom
no_reorient  #important for SAPT in psi4, default
symmetry c1  #important for SAPT in psi4, default
}

set PROPERTIES_ORIGIN ["COM"]
properties('MP2/aug-cc-pvtz', properties = ['dipole'])
--------------------------------------------------------------------------

    Molecular point group: c1
  Charge       = 0
  Multiplicity = 1
  Basis Set: AUG-CC-PVTZ
    Blend: AUG-CC-PVTZ
  Basis Set: (AUG-CC-PVTZ AUX)
    Blend: AUG-CC-PVTZ-JKFIT

    Orbital Energies [Eh]
    ---------------------

    Doubly Occupied:

       1A    -20.561832     2A    -11.283327     3A    -11.245491
       4A    -11.240192     5A    -11.238680     6A    -11.237990
       7A    -11.234798     8A    -11.233055     9A    -11.219684
      10A     -1.358392    11A     -1.157565    12A     -1.049795
      13A     -1.032619    14A     -0.943666    15A     -0.909010
      16A     -0.818096    17A     -0.792080    18A     -0.701572
      19A     -0.675464    20A     -0.645150    21A     -0.625555
      22A     -0.605734    23A     -0.587124    24A     -0.572921
      25A     -0.563690    26A     -0.548707    27A     -0.528345
      28A     -0.494425    29A     -0.486732    30A     -0.477849
      31A     -0.447914    32A     -0.337502    33A     -0.324719

  @DF-RHF Final Energy:  -383.75791523849978

   => Energetics <=

    Nuclear Repulsion Energy =            427.1226867460581502
    One-Electron Energy =               -1367.4018542881274243
    Two-Electron Energy =                 556.5212523035694403
    Total Energy =                       -383.7579152384997769
  Basis Set: (AUG-CC-PVTZ AUX)
    Blend: AUG-CC-PVTZ-RI
    Molecular point group: c1

    Geometry (in Angstrom), charge = 0, multiplicity = 1:

       Center              X                  Y                   Z               Mass
    ------------   -----------------  -----------------  -----------------  -----------------
         O            2.550802557082    -0.537654026743     0.699809312274    15.994914619570
         C            0.313713557082    -0.420296026743    -0.277947687726    12.000000000000
         C           -0.081627442918     0.920996973257    -0.092921687726    12.000000000000
         C            1.764893557082    -0.772730026743    -0.477125687726    12.000000000000
         C           -0.639355442918    -1.441986026743    -0.198122687726    12.000000000000
         C           -1.434340442918     1.193201973257     0.136618312274    12.000000000000
         C            0.919736557082     2.043868973257    -0.187492687726    12.000000000000
         C           -1.986274442918    -1.155733026743     0.032351312274    12.000000000000
         C           -2.382060442918     0.169234973257     0.209179312274    12.000000000000
         H            1.848546557082    -1.821029026743    -0.798838687726     1.007825032230
         H            2.223542557082    -0.152285026743    -1.251934687726     1.007825032230
         H           -0.323226442918    -2.475056026743    -0.339461687726     1.007825032230
         H           -1.749778442918     2.226076973257     0.275698312274     1.007825032230
         H            1.820398657082     1.727926173257     0.342813112274     1.007825032230
         H            1.242466557082     2.198917973257    -1.223760687726     1.007825032230
         H            0.481062557082     2.980585973257     0.166859312274     1.007825032230
         H           -2.715348442918    -1.960580026743     0.086744312274     1.007825032230
         H           -3.426891442918     0.409350973257     0.392249312274     1.007825032230
         H            2.091456557082    -0.989650026743     1.428983312274     1.007825032230

  Basis Set: AUG-CC-PVTZ
    Blend: AUG-CC-PVTZ
  Basis Set: (AUG-CC-PVTZ AUX)
    Blend: AUG-CC-PVTZ-JKFIT
	 Reference Energy          =    -383.7579152384997769 [Eh]
	 Singles Energy            =      -0.0000000000000000 [Eh]
	 Same-Spin Energy          =      -0.4134011794377788 [Eh]
	 Opposite-Spin Energy      =      -1.3210017659130477 [Eh]
	 Correlation Energy        =      -1.7344029453508265 [Eh]
	 Total Energy              =    -385.4923181838506139 [Eh]

	 ================> DF-SCS-MP2 Energies <==================
	-----------------------------------------------------------
	 SCS Same-Spin Scale       =       0.3333333333333333 [-]
	 SCS Opposite-Spin Scale   =       1.2000000000000000 [-]
	 SCS Same-Spin Energy      =      -0.1378003931459262 [Eh]
	 SCS Opposite-Spin Energy  =      -1.5852021190956573 [Eh]
	 SCS Correlation Energy    =      -1.7230025122415835 [Eh]
	 SCS Total Energy          =    -385.4809177507413551 [Eh]
	-----------------------------------------------------------

  Dipole Moment: [D]
     X:    -1.1825      Y:    -0.4261      Z:    -0.1273     Total:     1.2633

*** Psi4 exiting successfully. Buy a developer a beer!
