                               Psi4 1.4a3.dev225

  ==> Input File <==

--------------------------------------------------------------------------
#psi4
#
memory 32 gb

molecule  {
0 1
  O        2.5396650    -0.5551780     0.7057380
  C        0.3025760    -0.4378200    -0.2720190
  C       -0.0927650     0.9034730    -0.0869930
  C        1.7537560    -0.7902540    -0.4711970
  C       -0.6504930    -1.4595100    -0.1921940
  C       -1.4454780     1.1756780     0.1425470
  C        0.9085990     2.0263450    -0.1815640
  C       -1.9974120    -1.1732570     0.0382800
  C       -2.3931980     0.1517110     0.2151080
  H        1.8374090    -1.8385530    -0.7929100
  H        2.2124050    -0.1698090    -1.2460060
  H       -0.3343640    -2.4925800    -0.3335330
  H       -1.7609160     2.2085530     0.2816270
  H        1.7975830     1.8046110     0.4123870
  H        1.2313290     2.1813940    -1.2178320
  H        0.4899858     2.9202254     0.1565833
  H       -2.7264860    -1.9781040     0.0926730
  H       -3.4380290     0.3918270     0.3981780
  H        2.0803190    -1.0071740     1.4349120
units angstrom
no_reorient  #important for SAPT in psi4, default
symmetry c1  #important for SAPT in psi4, default
}

set PROPERTIES_ORIGIN ["COM"]
properties('MP2/aug-cc-pvtz', properties = ['dipole'])
--------------------------------------------------------------------------

    Molecular point group: c1
  Charge       = 0
  Multiplicity = 1
  Basis Set: AUG-CC-PVTZ
    Blend: AUG-CC-PVTZ
  Basis Set: (AUG-CC-PVTZ AUX)
    Blend: AUG-CC-PVTZ-JKFIT

    Orbital Energies [Eh]
    ---------------------

    Doubly Occupied:

       1A    -20.560660     2A    -11.282473     3A    -11.245471
       4A    -11.239935     5A    -11.238693     6A    -11.237812
       7A    -11.235036     8A    -11.233516     9A    -11.213681
      10A     -1.357053    11A     -1.157486    12A     -1.050008
      13A     -1.032896    14A     -0.946130    15A     -0.909259
      16A     -0.818880    17A     -0.792815    18A     -0.700803
      19A     -0.675434    20A     -0.644533    21A     -0.626328
      22A     -0.604953    23A     -0.586510    24A     -0.572792
      25A     -0.568283    26A     -0.550551    27A     -0.527419
      28A     -0.494406    29A     -0.487967    30A     -0.477931
      31A     -0.447307    32A     -0.337449    33A     -0.325453

  @DF-RHF Final Energy:  -383.75867519168020

   => Energetics <=

    Nuclear Repulsion Energy =            427.1435157688540585
    One-Electron Energy =               -1367.4445392552447629
    Two-Electron Energy =                 556.5423482947105640
    Total Energy =                       -383.7586751916801404
  Basis Set: (AUG-CC-PVTZ AUX)
    Blend: AUG-CC-PVTZ-RI
    Molecular point group: c1

    Geometry (in Angstrom), charge = 0, multiplicity = 1:

       Center              X                  Y                   Z               Mass
    ------------   -----------------  -----------------  -----------------  -----------------
         O            2.550733350267    -0.538078150990     0.699417647788    15.994914619570
         C            0.313644350267    -0.420720150990    -0.278339352212    12.000000000000
         C           -0.081696649733     0.920572849010    -0.093313352212    12.000000000000
         C            1.764824350267    -0.773154150990    -0.477517352212    12.000000000000
         C           -0.639424649733    -1.442410150990    -0.198514352212    12.000000000000
         C           -1.434409649733     1.192777849010     0.136226647788    12.000000000000
         C            0.919667350267     2.043444849010    -0.187884352212    12.000000000000
         C           -1.986343649733    -1.156157150990     0.031959647788    12.000000000000
         C           -2.382129649733     0.168810849010     0.208787647788    12.000000000000
         H            1.848477350267    -1.821453150990    -0.799230352212     1.007825032230
         H            2.223473350267    -0.152709150990    -1.252326352212     1.007825032230
         H           -0.323295649733    -2.475480150990    -0.339853352212     1.007825032230
         H           -1.749847649733     2.225652849010     0.275306647788     1.007825032230
         H            1.808651350267     1.821710849010     0.406066647788     1.007825032230
         H            1.242397350267     2.198493849010    -1.224152352212     1.007825032230
         H            0.501054150267     2.937325249010     0.150262947788     1.007825032230
         H           -2.715417649733    -1.961004150990     0.086352647788     1.007825032230
         H           -3.426960649733     0.408926849010     0.391857647788     1.007825032230
         H            2.091387350267    -0.990074150990     1.428591647788     1.007825032230

  Basis Set: AUG-CC-PVTZ
    Blend: AUG-CC-PVTZ
  Basis Set: (AUG-CC-PVTZ AUX)
    Blend: AUG-CC-PVTZ-JKFIT
	 Reference Energy          =    -383.7586751916801973 [Eh]
	 Singles Energy            =      -0.0000000000000000 [Eh]
	 Same-Spin Energy          =      -0.4131667769089871 [Eh]
	 Opposite-Spin Energy      =      -1.3204415244102652 [Eh]
	 Correlation Energy        =      -1.7336083013192523 [Eh]
	 Total Energy              =    -385.4922834929994337 [Eh]

	 ================> DF-SCS-MP2 Energies <==================
	-----------------------------------------------------------
	 SCS Same-Spin Scale       =       0.3333333333333333 [-]
	 SCS Opposite-Spin Scale   =       1.2000000000000000 [-]
	 SCS Same-Spin Energy      =      -0.1377222589696623 [Eh]
	 SCS Opposite-Spin Energy  =      -1.5845298292923182 [Eh]
	 SCS Correlation Energy    =      -1.7222520882619805 [Eh]
	 SCS Total Energy          =    -385.4809272799421933 [Eh]
	-----------------------------------------------------------

  Dipole Moment: [D]
     X:    -1.2027      Y:    -0.3713      Z:    -0.0970     Total:     1.2625

*** Psi4 exiting successfully. Buy a developer a beer!
