                               Psi4 1.4a3.dev225

  ==> Input File <==

--------------------------------------------------------------------------
#psi4
#
memory 32 gb

molecule  {
0 1
  O        2.5396650    -0.5551780     0.7057380
  C        0.3025760    -0.4378200    -0.2720190
  C       -0.0927650     0.9034730    -0.0869930
  C        1.7537560    -0.7902540    -0.4711970
  C       -0.6504930    -1.4595100    -0.1921940
  C       -1.4648192     1.1795700     0.1458290
  C        0.9085990     2.0263450    -0.1815640
  C       -1.9974120    -1.1732570     0.0382800
  C       -2.3931980     0.1517110     0.2151080
  H        1.8374090    -1.8385530    -0.7929100
  H        2.2124050    -0.1698090    -1.2460060
  H       -0.3343640    -2.4925800    -0.3335330
  H       -1.7609160     2.2085530     0.2816270
  H        1.7975830     1.8046110     0.4123870
  H        1.2313290     2.1813940    -1.2178320
  H        0.4699250     2.9630620     0.1727880
  H       -2.7264860    -1.9781040     0.0926730
  H       -3.4380290     0.3918270     0.3981780
  H        2.0803190    -1.0071740     1.4349120
units angstrom
no_reorient  #important for SAPT in psi4, default
symmetry c1  #important for SAPT in psi4, default
}

set PROPERTIES_ORIGIN ["COM"]
properties('MP2/aug-cc-pvtz', properties = ['dipole'])
--------------------------------------------------------------------------

    Molecular point group: c1
  Charge       = 0
  Multiplicity = 1
  Basis Set: AUG-CC-PVTZ
    Blend: AUG-CC-PVTZ
  Basis Set: (AUG-CC-PVTZ AUX)
    Blend: AUG-CC-PVTZ-JKFIT

    Orbital Energies [Eh]
    ---------------------

    Doubly Occupied:

       1A    -20.560847     2A    -11.282721     3A    -11.248193
       4A    -11.240240     5A    -11.237856     6A    -11.237751
       7A    -11.235045     8A    -11.233835     9A    -11.220169
      10A     -1.357251    11A     -1.156451    12A     -1.049135
      13A     -1.032595    14A     -0.944422    15A     -0.907526
      16A     -0.819087    17A     -0.791310    18A     -0.701168
      19A     -0.674822    20A     -0.643990    21A     -0.626666
      22A     -0.605794    23A     -0.586791    24A     -0.572936
      25A     -0.568456    26A     -0.543620    27A     -0.525437
      28A     -0.495138    29A     -0.487950    30A     -0.478620
      31A     -0.446826    32A     -0.338542    33A     -0.323775

  @DF-RHF Final Energy:  -383.75898523185884

   => Energetics <=

    Nuclear Repulsion Energy =            426.6504827512393945
    One-Electron Energy =               -1366.4690042723034367
    Two-Electron Energy =                 556.0595362892050844
    Total Energy =                       -383.7589852318589010
  Basis Set: (AUG-CC-PVTZ AUX)
    Blend: AUG-CC-PVTZ-RI
    Molecular point group: c1

    Geometry (in Angstrom), charge = 0, multiplicity = 1:

       Center              X                  Y                   Z               Mass
    ------------   -----------------  -----------------  -----------------  -----------------
         O            2.552800243319    -0.538814396321     0.698961237058    15.994914619570
         C            0.315711243319    -0.421456396321    -0.278795762942    12.000000000000
         C           -0.079629756681     0.919836603679    -0.093769762942    12.000000000000
         C            1.766891243319    -0.773890396321    -0.477973762942    12.000000000000
         C           -0.637357756681    -1.443146396321    -0.198970762942    12.000000000000
         C           -1.451683956681     1.195933603679     0.139052237058    12.000000000000
         C            0.921734243319     2.042708603679    -0.188340762942    12.000000000000
         C           -1.984276756681    -1.156893396321     0.031503237058    12.000000000000
         C           -2.380062756681     0.168074603679     0.208331237058    12.000000000000
         H            1.850544243319    -1.822189396321    -0.799686762942     1.007825032230
         H            2.225540243319    -0.153445396321    -1.252782762942     1.007825032230
         H           -0.321228756681    -2.476216396321    -0.340309762942     1.007825032230
         H           -1.747780756681     2.224916603679     0.274850237058     1.007825032230
         H            1.810718243319     1.820974603679     0.405610237058     1.007825032230
         H            1.244464243319     2.197757603679    -1.224608762942     1.007825032230
         H            0.483060243319     2.979425603679     0.166011237058     1.007825032230
         H           -2.713350756681    -1.961740396321     0.085896237058     1.007825032230
         H           -3.424893756681     0.408190603679     0.391401237058     1.007825032230
         H            2.093454243319    -0.990810396321     1.428135237058     1.007825032230

  Basis Set: AUG-CC-PVTZ
    Blend: AUG-CC-PVTZ
  Basis Set: (AUG-CC-PVTZ AUX)
    Blend: AUG-CC-PVTZ-JKFIT
	 Reference Energy          =    -383.7589852318588441 [Eh]
	 Singles Energy            =      -0.0000000000000000 [Eh]
	 Same-Spin Energy          =      -0.4131958479794535 [Eh]
	 Opposite-Spin Energy      =      -1.3208037214257331 [Eh]
	 Correlation Energy        =      -1.7339995694051866 [Eh]
	 Total Energy              =    -385.4929848012640150 [Eh]

	 ================> DF-SCS-MP2 Energies <==================
	-----------------------------------------------------------
	 SCS Same-Spin Scale       =       0.3333333333333333 [-]
	 SCS Opposite-Spin Scale   =       1.2000000000000000 [-]
	 SCS Same-Spin Energy      =      -0.1377319493264845 [Eh]
	 SCS Opposite-Spin Energy  =      -1.5849644657108797 [Eh]
	 SCS Correlation Energy    =      -1.7226964150373643 [Eh]
	 SCS Total Energy          =    -385.4816816468962202 [Eh]
	-----------------------------------------------------------

  Dipole Moment: [D]
     X:    -1.1924      Y:    -0.3882      Z:    -0.1025     Total:     1.2582

*** Psi4 exiting successfully. Buy a developer a beer!
