                               Psi4 1.4a3.dev225

  ==> Input File <==

--------------------------------------------------------------------------
#psi4
#
memory 32 gb

molecule  {
0 1
  O        2.5396650    -0.5551780     0.7057380
  C        0.3025760    -0.4378200    -0.2720190
  C       -0.0927650     0.9034730    -0.0869930
  C        1.7537560    -0.7902540    -0.4711970
  C       -0.6504930    -1.4595100    -0.1921940
  C       -1.4454780     1.1756780     0.1425470
  C        0.9085990     2.0263450    -0.1815640
  C       -2.1903589    -1.1322511     0.0712955
  C       -2.3931980     0.1517110     0.2151080
  H        1.8374090    -1.8385530    -0.7929100
  H        2.2124050    -0.1698090    -1.2460060
  H       -0.3343640    -2.4925800    -0.3335330
  H       -1.7609160     2.2085530     0.2816270
  H        1.7975830     1.8046110     0.4123870
  H        1.2313290     2.1813940    -1.2178320
  H        0.4699250     2.9630620     0.1727880
  H       -2.7264860    -1.9781040     0.0926730
  H       -3.4380290     0.3918270     0.3981780
  H        2.0803190    -1.0071740     1.4349120
units angstrom
no_reorient  #important for SAPT in psi4, default
symmetry c1  #important for SAPT in psi4, default
}

set PROPERTIES_ORIGIN ["COM"]
properties('MP2/aug-cc-pvtz', properties = ['dipole'])
--------------------------------------------------------------------------

    Molecular point group: c1
  Charge       = 0
  Multiplicity = 1
  Basis Set: AUG-CC-PVTZ
    Blend: AUG-CC-PVTZ
  Basis Set: (AUG-CC-PVTZ AUX)
    Blend: AUG-CC-PVTZ-JKFIT

    Orbital Energies [Eh]
    ---------------------

    Doubly Occupied:

       1A    -20.561077     2A    -11.283290     3A    -11.255449
       4A    -11.248815     5A    -11.239750     6A    -11.237723
       7A    -11.232823     8A    -11.230287     9A    -11.220777
      10A     -1.357579    11A     -1.152162    12A     -1.059024
      13A     -1.023384    14A     -0.937780    15A     -0.912939
      16A     -0.822414    17A     -0.792213    18A     -0.705576
      19A     -0.678642    20A     -0.646850    21A     -0.624060
      22A     -0.610745    23A     -0.601470    24A     -0.570352
      25A     -0.561001    26A     -0.536706    27A     -0.525149
      28A     -0.503113    29A     -0.483795    30A     -0.464098
      31A     -0.438661    32A     -0.349087    33A     -0.315593

  @DF-RHF Final Energy:  -383.71907376184038

   => Energetics <=

    Nuclear Repulsion Energy =            424.8685501178224513
    One-Electron Energy =               -1362.8104794540515741
    Two-Electron Energy =                 554.2228555743887455
    Total Energy =                       -383.7190737618403773
  Basis Set: (AUG-CC-PVTZ AUX)
    Blend: AUG-CC-PVTZ-RI
    Molecular point group: c1

    Geometry (in Angstrom), charge = 0, multiplicity = 1:

       Center              X                  Y                   Z               Mass
    ------------   -----------------  -----------------  -----------------  -----------------
         O            2.569865979273    -0.542462755895     0.696038383373    15.994914619570
         C            0.332776979273    -0.425104755895    -0.281718616627    12.000000000000
         C           -0.062564020727     0.916188244105    -0.096692616627    12.000000000000
         C            1.783956979273    -0.777538755895    -0.480896616627    12.000000000000
         C           -0.620292020727    -1.446794755895    -0.201893616627    12.000000000000
         C           -1.415277020727     1.188393244105     0.132847383373    12.000000000000
         C            0.938799979273     2.039060244105    -0.191263616627    12.000000000000
         C           -2.160157920727    -1.119535855895     0.061595883373    12.000000000000
         C           -2.362997020727     0.164426244105     0.205408383373    12.000000000000
         H            1.867609979273    -1.825837755895    -0.802609616627     1.007825032230
         H            2.242605979273    -0.157093755895    -1.255705616627     1.007825032230
         H           -0.304163020727    -2.479864755895    -0.343232616627     1.007825032230
         H           -1.730715020727     2.221268244105     0.271927383373     1.007825032230
         H            1.827783979273     1.817326244105     0.402687383373     1.007825032230
         H            1.261529979273     2.194109244105    -1.227531616627     1.007825032230
         H            0.500125979273     2.975777244105     0.163088383373     1.007825032230
         H           -2.696285020727    -1.965388755895     0.082973383373     1.007825032230
         H           -3.407828020727     0.404542244105     0.388478383373     1.007825032230
         H            2.110519979273    -0.994458755895     1.425212383373     1.007825032230

  Basis Set: AUG-CC-PVTZ
    Blend: AUG-CC-PVTZ
  Basis Set: (AUG-CC-PVTZ AUX)
    Blend: AUG-CC-PVTZ-JKFIT
	 Reference Energy          =    -383.7190737618403773 [Eh]
	 Singles Energy            =      -0.0000000000000000 [Eh]
	 Same-Spin Energy          =      -0.4122823190561614 [Eh]
	 Opposite-Spin Energy      =      -1.3228432806342136 [Eh]
	 Correlation Energy        =      -1.7351255996903752 [Eh]
	 Total Energy              =    -385.4541993615307547 [Eh]

	 ================> DF-SCS-MP2 Energies <==================
	-----------------------------------------------------------
	 SCS Same-Spin Scale       =       0.3333333333333333 [-]
	 SCS Opposite-Spin Scale   =       1.2000000000000000 [-]
	 SCS Same-Spin Energy      =      -0.1374274396853871 [Eh]
	 SCS Opposite-Spin Energy  =      -1.5874119367610564 [Eh]
	 SCS Correlation Energy    =      -1.7248393764464436 [Eh]
	 SCS Total Energy          =    -385.4439131382868027 [Eh]
	-----------------------------------------------------------

  Dipole Moment: [D]
     X:    -1.1744      Y:    -0.4465      Z:    -0.1104     Total:     1.2612

*** Psi4 exiting successfully. Buy a developer a beer!
