                               Psi4 1.4a3.dev225

  ==> Input File <==

--------------------------------------------------------------------------
#psi4
#
memory 32 gb

molecule  {
0 1
  O        2.5396650    -0.5551780     0.7057380
  C        0.3025760    -0.4378200    -0.2720190
  C       -0.0927650     0.9034730    -0.0869930
  C        1.7537560    -0.7902540    -0.4711970
  C       -0.6504930    -1.4595100    -0.1921940
  C       -1.4454780     1.1756780     0.1425470
  C        0.9085990     2.0263450    -0.1815640
  C       -1.9974120    -1.1732570     0.0382800
  C       -2.3931980     0.1517110     0.2151080
  H        1.8374090    -1.8385530    -0.7929100
  H        2.2124050    -0.1698090    -1.2460060
  H       -0.3343640    -2.4925800    -0.3335330
  H       -1.7609160     2.2085530     0.2816270
  H        1.7975830     1.8046110     0.4123870
  H        1.2313290     2.1813940    -1.2178320
  H        0.4699250     2.9630620     0.1727880
  H       -2.7264860    -1.9781040     0.0926730
  H       -3.4188152     0.3874114     0.3948115
  H        2.0803190    -1.0071740     1.4349120
units angstrom
no_reorient  #important for SAPT in psi4, default
symmetry c1  #important for SAPT in psi4, default
}

set PROPERTIES_ORIGIN ["COM"]
properties('MP2/aug-cc-pvtz', properties = ['dipole'])
--------------------------------------------------------------------------

    Molecular point group: c1
  Charge       = 0
  Multiplicity = 1
  Basis Set: AUG-CC-PVTZ
    Blend: AUG-CC-PVTZ
  Basis Set: (AUG-CC-PVTZ AUX)
    Blend: AUG-CC-PVTZ-JKFIT

    Orbital Energies [Eh]
    ---------------------

    Doubly Occupied:

       1A    -20.560864     2A    -11.282703     3A    -11.245741
       4A    -11.240007     5A    -11.238081     6A    -11.236580
       7A    -11.234885     8A    -11.233339     9A    -11.219763
      10A     -1.357263    11A     -1.157555    12A     -1.049544
      13A     -1.032795    14A     -0.943664    15A     -0.908996
      16A     -0.818323    17A     -0.793506    18A     -0.701106
      19A     -0.675433    20A     -0.646268    21A     -0.625270
      22A     -0.605165    23A     -0.586921    24A     -0.573238
      25A     -0.568543    26A     -0.544013    27A     -0.526687
      28A     -0.494317    29A     -0.488034    30A     -0.478333
      31A     -0.447494    32A     -0.337456    33A     -0.325568

  @DF-RHF Final Energy:  -383.75971862280142

   => Energetics <=

    Nuclear Repulsion Energy =            427.0107227383043096
    One-Electron Energy =               -1367.1859721461682966
    Two-Electron Energy =                 556.4155307850625150
    Total Energy =                       -383.7597186228014152
  Basis Set: (AUG-CC-PVTZ AUX)
    Blend: AUG-CC-PVTZ-RI
    Molecular point group: c1

    Geometry (in Angstrom), charge = 0, multiplicity = 1:

       Center              X                  Y                   Z               Mass
    ------------   -----------------  -----------------  -----------------  -----------------
         O            2.550740343023    -0.538395351298     0.699311656767    15.994914619570
         C            0.313651343023    -0.421037351298    -0.278445343233    12.000000000000
         C           -0.081689656977     0.920255648702    -0.093419343233    12.000000000000
         C            1.764831343023    -0.773471351298    -0.477623343233    12.000000000000
         C           -0.639417656977    -1.442727351298    -0.198620343233    12.000000000000
         C           -1.434402656977     1.192460648702     0.136120656767    12.000000000000
         C            0.919674343023     2.043127648702    -0.187990343233    12.000000000000
         C           -1.986336656977    -1.156474351298     0.031853656767    12.000000000000
         C           -2.382122656977     0.168493648702     0.208681656767    12.000000000000
         H            1.848484343023    -1.821770351298    -0.799336343233     1.007825032230
         H            2.223480343023    -0.153026351298    -1.252432343233     1.007825032230
         H           -0.323288656977    -2.475797351298    -0.339959343233     1.007825032230
         H           -1.749840656977     2.225335648702     0.275200656767     1.007825032230
         H            1.808658343023     1.821393648702     0.405960656767     1.007825032230
         H            1.242404343023     2.198176648702    -1.224258343233     1.007825032230
         H            0.481000343023     2.979844648702     0.166361656767     1.007825032230
         H           -2.715410656977    -1.961321351298     0.086246656767     1.007825032230
         H           -3.407739856977     0.404194048702     0.388385156767     1.007825032230
         H            2.091394343023    -0.990391351298     1.428485656767     1.007825032230

  Basis Set: AUG-CC-PVTZ
    Blend: AUG-CC-PVTZ
  Basis Set: (AUG-CC-PVTZ AUX)
    Blend: AUG-CC-PVTZ-JKFIT
	 Reference Energy          =    -383.7597186228014152 [Eh]
	 Singles Energy            =      -0.0000000000000000 [Eh]
	 Same-Spin Energy          =      -0.4131461237628456 [Eh]
	 Opposite-Spin Energy      =      -1.3206310796047962 [Eh]
	 Correlation Energy        =      -1.7337772033676417 [Eh]
	 Total Energy              =    -385.4934958261690667 [Eh]

	 ================> DF-SCS-MP2 Energies <==================
	-----------------------------------------------------------
	 SCS Same-Spin Scale       =       0.3333333333333333 [-]
	 SCS Opposite-Spin Scale   =       1.2000000000000000 [-]
	 SCS Same-Spin Energy      =      -0.1377153745876152 [Eh]
	 SCS Opposite-Spin Energy  =      -1.5847572955257554 [Eh]
	 SCS Correlation Energy    =      -1.7224726701133706 [Eh]
	 SCS Total Energy          =    -385.4821912929147629 [Eh]
	-----------------------------------------------------------

  Dipole Moment: [D]
     X:    -1.2097      Y:    -0.3995      Z:    -0.1008     Total:     1.2780

*** Psi4 exiting successfully. Buy a developer a beer!
