                               Psi4 1.4a3.dev225

  ==> Input File <==

--------------------------------------------------------------------------
#psi4
#
memory 32 gb

molecule  {
0 1
  O        2.5396650    -0.5551780     0.7057380
  C        0.3257108    -0.4302639    -0.2757255
  C       -0.0927650     0.9034730    -0.0869930
  C        1.7537560    -0.7902540    -0.4711970
  C       -0.6504930    -1.4595100    -0.1921940
  C       -1.4454780     1.1756780     0.1425470
  C        0.9085990     2.0263450    -0.1815640
  C       -1.9974120    -1.1732570     0.0382800
  C       -2.3931980     0.1517110     0.2151080
  H        1.8374090    -1.8385530    -0.7929100
  H        2.2124050    -0.1698090    -1.2460060
  H       -0.3343640    -2.4925800    -0.3335330
  H       -1.7609160     2.2085530     0.2816270
  H        1.7975830     1.8046110     0.4123870
  H        1.2313290     2.1813940    -1.2178320
  H        0.4699250     2.9630620     0.1727880
  H       -2.7264860    -1.9781040     0.0926730
  H       -3.4380290     0.3918270     0.3981780
  H        2.0803190    -1.0071740     1.4349120
units angstrom
no_reorient  #important for SAPT in psi4, default
symmetry c1  #important for SAPT in psi4, default
}

set PROPERTIES_ORIGIN ["COM"]
properties('MP2/aug-cc-pvtz', properties = ['dipole'])
--------------------------------------------------------------------------

    Molecular point group: c1
  Charge       = 0
  Multiplicity = 1
  Basis Set: AUG-CC-PVTZ
    Blend: AUG-CC-PVTZ
  Basis Set: (AUG-CC-PVTZ AUX)
    Blend: AUG-CC-PVTZ-JKFIT

    Orbital Energies [Eh]
    ---------------------

    Doubly Occupied:

       1A    -20.560893     2A    -11.282020     3A    -11.246193
       4A    -11.242426     5A    -11.239369     6A    -11.239303
       7A    -11.235409     8A    -11.233899     9A    -11.219226
      10A     -1.357851    11A     -1.156120    12A     -1.050641
      13A     -1.032054    14A     -0.944775    15A     -0.908605
      16A     -0.818607    17A     -0.791009    18A     -0.701415
      19A     -0.675442    20A     -0.646210    21A     -0.624617
      22A     -0.605474    23A     -0.587793    24A     -0.572960
      25A     -0.568584    26A     -0.543065    27A     -0.526161
      28A     -0.495214    29A     -0.486674    30A     -0.475494
      31A     -0.450586    32A     -0.335355    33A     -0.326213

  @DF-RHF Final Energy:  -383.75822628456183

   => Energetics <=

    Nuclear Repulsion Energy =            426.8524580915670299
    One-Electron Energy =               -1366.8620494932731617
    Two-Electron Energy =                 556.2513651171442461
    Total Energy =                       -383.7582262845618288
  Basis Set: (AUG-CC-PVTZ AUX)
    Blend: AUG-CC-PVTZ-RI
    Molecular point group: c1

    Geometry (in Angstrom), charge = 0, multiplicity = 1:

       Center              X                  Y                   Z               Mass
    ------------   -----------------  -----------------  -----------------  -----------------
         O            2.548624780184    -0.539174583591     0.699648218509    15.994914619570
         C            0.334670580184    -0.414260483591    -0.281815281491    12.000000000000
         C           -0.083805219816     0.919476416409    -0.093082781491    12.000000000000
         C            1.762715780184    -0.774250583591    -0.477286781491    12.000000000000
         C           -0.641533219816    -1.443506583591    -0.198283781491    12.000000000000
         C           -1.436518219816     1.191681416409     0.136457218509    12.000000000000
         C            0.917558780184     2.042348416409    -0.187653781491    12.000000000000
         C           -1.988452219816    -1.157253583591     0.032190218509    12.000000000000
         C           -2.384238219816     0.167714416409     0.209018218509    12.000000000000
         H            1.846368780184    -1.822549583591    -0.798999781491     1.007825032230
         H            2.221364780184    -0.153805583591    -1.252095781491     1.007825032230
         H           -0.325404219816    -2.476576583591    -0.339622781491     1.007825032230
         H           -1.751956219816     2.224556416409     0.275537218509     1.007825032230
         H            1.806542780184     1.820614416409     0.406297218509     1.007825032230
         H            1.240288780184     2.197397416409    -1.223921781491     1.007825032230
         H            0.478884780184     2.979065416409     0.166698218509     1.007825032230
         H           -2.717526219816    -1.962100583591     0.086583218509     1.007825032230
         H           -3.429069219816     0.407830416409     0.392088218509     1.007825032230
         H            2.089278780184    -0.991170583591     1.428822218509     1.007825032230

  Basis Set: AUG-CC-PVTZ
    Blend: AUG-CC-PVTZ
  Basis Set: (AUG-CC-PVTZ AUX)
    Blend: AUG-CC-PVTZ-JKFIT
	 Reference Energy          =    -383.7582262845618288 [Eh]
	 Singles Energy            =      -0.0000000000000000 [Eh]
	 Same-Spin Energy          =      -0.4134262080296554 [Eh]
	 Opposite-Spin Energy      =      -1.3211278179596011 [Eh]
	 Correlation Energy        =      -1.7345540259892565 [Eh]
	 Total Energy              =    -385.4927803105510975 [Eh]

	 ================> DF-SCS-MP2 Energies <==================
	-----------------------------------------------------------
	 SCS Same-Spin Scale       =       0.3333333333333333 [-]
	 SCS Opposite-Spin Scale   =       1.2000000000000000 [-]
	 SCS Same-Spin Energy      =      -0.1378087360098851 [Eh]
	 SCS Opposite-Spin Energy  =      -1.5853533815515213 [Eh]
	 SCS Correlation Energy    =      -1.7231621175614065 [Eh]
	 SCS Total Energy          =    -385.4813884021232298 [Eh]
	-----------------------------------------------------------

  Dipole Moment: [D]
     X:    -1.2108      Y:    -0.4056      Z:    -0.1047     Total:     1.2812

*** Psi4 exiting successfully. Buy a developer a beer!
