                               Psi4 1.4a3.dev225

  ==> Input File <==

--------------------------------------------------------------------------
#psi4
#
memory 32 gb

molecule  {
0 1
  O        2.5396650    -0.5551780     0.7057380
  C        0.3025760    -0.4378200    -0.2720190
  C       -0.0927650     0.9034730    -0.0869930
  C        1.7537560    -0.7902540    -0.4711970
  C       -0.6504930    -1.4595100    -0.1921940
  C       -1.4454780     1.1756780     0.1425470
  C        0.9085990     2.0263450    -0.1815640
  C       -1.9974120    -1.1732570     0.0382800
  C       -2.3931980     0.1517110     0.2151080
  H        1.8374090    -1.8385530    -0.7929100
  H        2.2124050    -0.1698090    -1.2460060
  H       -0.3343640    -2.4925800    -0.3335330
  H       -1.7609160     2.2085530     0.2816270
  H        1.7568747     1.8147646     0.3851888
  H        1.2313290     2.1813940    -1.2178320
  H        0.4699250     2.9630620     0.1727880
  H       -2.7264860    -1.9781040     0.0926730
  H       -3.4380290     0.3918270     0.3981780
  H        2.0803190    -1.0071740     1.4349120
units angstrom
no_reorient  #important for SAPT in psi4, default
symmetry c1  #important for SAPT in psi4, default
}

set PROPERTIES_ORIGIN ["COM"]
properties('MP2/aug-cc-pvtz', properties = ['dipole'])
--------------------------------------------------------------------------

    Molecular point group: c1
  Charge       = 0
  Multiplicity = 1
  Basis Set: AUG-CC-PVTZ
    Blend: AUG-CC-PVTZ
  Basis Set: (AUG-CC-PVTZ AUX)
    Blend: AUG-CC-PVTZ-JKFIT

    Orbital Energies [Eh]
    ---------------------

    Doubly Occupied:

       1A    -20.560966     2A    -11.282796     3A    -11.245599
       4A    -11.240072     5A    -11.238645     6A    -11.238086
       7A    -11.235089     8A    -11.233373     9A    -11.214303
      10A     -1.357313    11A     -1.157584    12A     -1.050275
      13A     -1.032766    14A     -0.946281    15A     -0.909747
      16A     -0.818278    17A     -0.793334    18A     -0.701344
      19A     -0.674595    20A     -0.645360    21A     -0.625172
      22A     -0.605523    23A     -0.586590    24A     -0.575792
      25A     -0.572263    26A     -0.544412    27A     -0.527628
      28A     -0.494035    29A     -0.488882    30A     -0.478168
      31A     -0.447994    32A     -0.337460    33A     -0.325811

  @DF-RHF Final Energy:  -383.75869848077224

   => Energetics <=

    Nuclear Repulsion Energy =            427.1049886925414398
    One-Electron Energy =               -1367.3563062877065022
    Two-Electron Energy =                 556.4926191143928236
    Total Energy =                       -383.7586984807722956
  Basis Set: (AUG-CC-PVTZ AUX)
    Blend: AUG-CC-PVTZ-RI
    Molecular point group: c1

    Geometry (in Angstrom), charge = 0, multiplicity = 1:

       Center              X                  Y                   Z               Mass
    ------------   -----------------  -----------------  -----------------  -----------------
         O            2.551235054472    -0.538515633299     0.699508409132    15.994914619570
         C            0.314146054472    -0.421157633299    -0.278248590868    12.000000000000
         C           -0.081194945528     0.920135366701    -0.093222590868    12.000000000000
         C            1.765326054472    -0.773591633299    -0.477426590868    12.000000000000
         C           -0.638922945528    -1.442847633299    -0.198423590868    12.000000000000
         C           -1.433907945528     1.192340366701     0.136317409132    12.000000000000
         C            0.920169054472     2.043007366701    -0.187793590868    12.000000000000
         C           -1.985841945528    -1.156594633299     0.032050409132    12.000000000000
         C           -2.381627945528     0.168373366701     0.208878409132    12.000000000000
         H            1.848979054472    -1.821890633299    -0.799139590868     1.007825032230
         H            2.223975054472    -0.153146633299    -1.252235590868     1.007825032230
         H           -0.322793945528    -2.475917633299    -0.339762590868     1.007825032230
         H           -1.749345945528     2.225215366701     0.275397409132     1.007825032230
         H            1.768444754472     1.831426966701     0.378959209132     1.007825032230
         H            1.242899054472     2.198056366701    -1.224061590868     1.007825032230
         H            0.481495054472     2.979724366701     0.166558409132     1.007825032230
         H           -2.714915945528    -1.961441633299     0.086443409132     1.007825032230
         H           -3.426458945528     0.408489366701     0.391948409132     1.007825032230
         H            2.091889054472    -0.990511633299     1.428682409132     1.007825032230

  Basis Set: AUG-CC-PVTZ
    Blend: AUG-CC-PVTZ
  Basis Set: (AUG-CC-PVTZ AUX)
    Blend: AUG-CC-PVTZ-JKFIT
	 Reference Energy          =    -383.7586984807722388 [Eh]
	 Singles Energy            =      -0.0000000000000000 [Eh]
	 Same-Spin Energy          =      -0.4131061863203693 [Eh]
	 Opposite-Spin Energy      =      -1.3204321771041960 [Eh]
	 Correlation Energy        =      -1.7335383634245654 [Eh]
	 Total Energy              =    -385.4922368441967819 [Eh]

	 ================> DF-SCS-MP2 Energies <==================
	-----------------------------------------------------------
	 SCS Same-Spin Scale       =       0.3333333333333333 [-]
	 SCS Opposite-Spin Scale   =       1.2000000000000000 [-]
	 SCS Same-Spin Energy      =      -0.1377020621067898 [Eh]
	 SCS Opposite-Spin Energy  =      -1.5845186125250352 [Eh]
	 SCS Correlation Energy    =      -1.7222206746318249 [Eh]
	 SCS Total Energy          =    -385.4809191554040808 [Eh]
	-----------------------------------------------------------

  Dipole Moment: [D]
     X:    -1.1938      Y:    -0.3890      Z:    -0.1009     Total:     1.2596

*** Psi4 exiting successfully. Buy a developer a beer!
