                               Psi4 1.4a3.dev225

  ==> Input File <==

--------------------------------------------------------------------------
#psi4
#
memory 32 gb

molecule  {
0 1
  O        2.5396650    -0.5551780     0.7057380
  C        0.3025760    -0.4378200    -0.2720190
  C       -0.0927650     0.9034730    -0.0869930
  C        1.7537560    -0.7902540    -0.4711970
  C       -0.6504930    -1.4595100    -0.1921940
  C       -1.4454780     1.1756780     0.1425470
  C        0.9085990     2.0263450    -0.1815640
  C       -1.9974120    -1.1732570     0.0382800
  C       -2.3931980     0.1517110     0.2151080
  H        1.8374090    -1.8385530    -0.7929100
  H        2.2124050    -0.1698090    -1.2460060
  H       -0.3343640    -2.4925800    -0.3335330
  H       -1.7609160     2.2085530     0.2816270
  H        1.7946847     1.8205770     0.4223797
  H        1.2313290     2.1813940    -1.2178320
  H        0.4699250     2.9630620     0.1727880
  H       -2.7264860    -1.9781040     0.0926730
  H       -3.4380290     0.3918270     0.3981780
  H        2.0803190    -1.0071740     1.4349120
units angstrom
no_reorient  #important for SAPT in psi4, default
symmetry c1  #important for SAPT in psi4, default
}

set PROPERTIES_ORIGIN ["COM"]
properties('MP2/aug-cc-pvtz', properties = ['dipole'])
--------------------------------------------------------------------------

    Molecular point group: c1
  Charge       = 0
  Multiplicity = 1
  Basis Set: AUG-CC-PVTZ
    Blend: AUG-CC-PVTZ
  Basis Set: (AUG-CC-PVTZ AUX)
    Blend: AUG-CC-PVTZ-JKFIT

    Orbital Energies [Eh]
    ---------------------

    Doubly Occupied:

       1A    -20.560761     2A    -11.282671     3A    -11.245947
       4A    -11.240133     5A    -11.238776     6A    -11.238181
       7A    -11.235259     8A    -11.233662     9A    -11.219871
      10A     -1.357138    11A     -1.157583    12A     -1.049260
      13A     -1.032680    14A     -0.943665    15A     -0.908513
      16A     -0.818316    17A     -0.792491    18A     -0.700924
      19A     -0.674593    20A     -0.644669    21A     -0.625263
      22A     -0.605148    23A     -0.586656    24A     -0.573127
      25A     -0.569502    26A     -0.542577    27A     -0.525683
      28A     -0.494143    29A     -0.488357    30A     -0.478266
      31A     -0.447384    32A     -0.337571    33A     -0.325821

  @DF-RHF Final Energy:  -383.75961219805527

   => Energetics <=

    Nuclear Repulsion Energy =            426.8736145833364617
    One-Electron Energy =               -1366.9172703107831239
    Two-Electron Energy =                 556.2840435293913970
    Total Energy =                       -383.7596121980552653
  Basis Set: (AUG-CC-PVTZ AUX)
    Blend: AUG-CC-PVTZ-RI
    Molecular point group: c1

    Geometry (in Angstrom), charge = 0, multiplicity = 1:

       Center              X                  Y                   Z               Mass
    ------------   -----------------  -----------------  -----------------  -----------------
         O            2.550922898524    -0.538563619949     0.699201364418    15.994914619570
         C            0.313833898524    -0.421205619949    -0.278555635582    12.000000000000
         C           -0.081507101476     0.920087380051    -0.093529635582    12.000000000000
         C            1.765013898524    -0.773639619949    -0.477733635582    12.000000000000
         C           -0.639235101476    -1.442895619949    -0.198730635582    12.000000000000
         C           -1.434220101476     1.192292380051     0.136010364418    12.000000000000
         C            0.919856898524     2.042959380051    -0.188100635582    12.000000000000
         C           -1.986154101476    -1.156642619949     0.031743364418    12.000000000000
         C           -2.381940101476     0.168325380051     0.208571364418    12.000000000000
         H            1.848666898524    -1.821938619949    -0.799446635582     1.007825032230
         H            2.223662898524    -0.153194619949    -1.252542635582     1.007825032230
         H           -0.323106101476    -2.475965619949    -0.340069635582     1.007825032230
         H           -1.749658101476     2.225167380051     0.275090364418     1.007825032230
         H            1.805942598524     1.837191380051     0.415843064418     1.007825032230
         H            1.242586898524     2.198008380051    -1.224368635582     1.007825032230
         H            0.481182898524     2.979676380051     0.166251364418     1.007825032230
         H           -2.715228101476    -1.961489619949     0.086136364418     1.007825032230
         H           -3.426771101476     0.408441380051     0.391641364418     1.007825032230
         H            2.091576898524    -0.990559619949     1.428375364418     1.007825032230

  Basis Set: AUG-CC-PVTZ
    Blend: AUG-CC-PVTZ
  Basis Set: (AUG-CC-PVTZ AUX)
    Blend: AUG-CC-PVTZ-JKFIT
	 Reference Energy          =    -383.7596121980552653 [Eh]
	 Singles Energy            =      -0.0000000000000000 [Eh]
	 Same-Spin Energy          =      -0.4131567310504368 [Eh]
	 Opposite-Spin Energy      =      -1.3207534582895868 [Eh]
	 Correlation Energy        =      -1.7339101893400235 [Eh]
	 Total Energy              =    -385.4935223873952737 [Eh]

	 ================> DF-SCS-MP2 Energies <==================
	-----------------------------------------------------------
	 SCS Same-Spin Scale       =       0.3333333333333333 [-]
	 SCS Opposite-Spin Scale   =       1.2000000000000000 [-]
	 SCS Same-Spin Energy      =      -0.1377189103501456 [Eh]
	 SCS Opposite-Spin Energy  =      -1.5849041499475041 [Eh]
	 SCS Correlation Energy    =      -1.7226230602976496 [Eh]
	 SCS Total Energy          =    -385.4822352583528868 [Eh]
	-----------------------------------------------------------

  Dipole Moment: [D]
     X:    -1.2051      Y:    -0.3962      Z:    -0.0979     Total:     1.2723

*** Psi4 exiting successfully. Buy a developer a beer!
