                               Psi4 1.4a3.dev225

  ==> Input File <==

--------------------------------------------------------------------------
#psi4
#
memory 32 gb

molecule  {
0 1
  O        2.5396650    -0.5551780     0.7057380
  C        0.3025760    -0.4378200    -0.2720190
  C       -0.0983706     0.9224913    -0.0843695
  C        1.7537560    -0.7902540    -0.4711970
  C       -0.6504930    -1.4595100    -0.1921940
  C       -1.4454780     1.1756780     0.1425470
  C        0.9085990     2.0263450    -0.1815640
  C       -1.9974120    -1.1732570     0.0382800
  C       -2.3931980     0.1517110     0.2151080
  H        1.8374090    -1.8385530    -0.7929100
  H        2.2124050    -0.1698090    -1.2460060
  H       -0.3343640    -2.4925800    -0.3335330
  H       -1.7609160     2.2085530     0.2816270
  H        1.7975830     1.8046110     0.4123870
  H        1.2313290     2.1813940    -1.2178320
  H        0.4699250     2.9630620     0.1727880
  H       -2.7264860    -1.9781040     0.0926730
  H       -3.4380290     0.3918270     0.3981780
  H        2.0803190    -1.0071740     1.4349120
units angstrom
no_reorient  #important for SAPT in psi4, default
symmetry c1  #important for SAPT in psi4, default
}

set PROPERTIES_ORIGIN ["COM"]
properties('MP2/aug-cc-pvtz', properties = ['dipole'])
--------------------------------------------------------------------------

    Molecular point group: c1
  Charge       = 0
  Multiplicity = 1
  Basis Set: AUG-CC-PVTZ
    Blend: AUG-CC-PVTZ
  Basis Set: (AUG-CC-PVTZ AUX)
    Blend: AUG-CC-PVTZ-JKFIT

    Orbital Energies [Eh]
    ---------------------

    Doubly Occupied:

       1A    -20.560906     2A    -11.282851     3A    -11.246493
       4A    -11.240735     5A    -11.239453     6A    -11.238832
       7A    -11.235232     8A    -11.232506     9A    -11.219677
      10A     -1.357284    11A     -1.156637    12A     -1.049606
      13A     -1.033432    14A     -0.944799    15A     -0.908395
      16A     -0.815293    17A     -0.793661    18A     -0.701198
      19A     -0.674069    20A     -0.645235    21A     -0.625449
      22A     -0.605051    23A     -0.585702    24A     -0.574624
      25A     -0.569494    26A     -0.543473    27A     -0.527657
      28A     -0.492128    29A     -0.487630    30A     -0.479480
      31A     -0.447273    32A     -0.338403    33A     -0.323991

  @DF-RHF Final Energy:  -383.75889714622303

   => Energetics <=

    Nuclear Repulsion Energy =            426.7410436349723000
    One-Electron Energy =               -1366.6465802806840202
    Two-Electron Energy =                 556.1466394994886286
    Total Energy =                       -383.7588971462230347
  Basis Set: (AUG-CC-PVTZ AUX)
    Blend: AUG-CC-PVTZ-RI
    Molecular point group: c1

    Geometry (in Angstrom), charge = 0, multiplicity = 1:

       Center              X                  Y                   Z               Mass
    ------------   -----------------  -----------------  -----------------  -----------------
         O            2.551450010447    -0.540301337371     0.699025968730    15.994914619570
         C            0.314361010447    -0.422943337371    -0.278731031270    12.000000000000
         C           -0.086585589553     0.937367962629    -0.091081531270    12.000000000000
         C            1.765541010447    -0.775377337371    -0.477909031270    12.000000000000
         C           -0.638707989553    -1.444633337371    -0.198906031270    12.000000000000
         C           -1.433692989553     1.190554662629     0.135834968730    12.000000000000
         C            0.920384010447     2.041221662629    -0.188276031270    12.000000000000
         C           -1.985626989553    -1.158380337371     0.031567968730    12.000000000000
         C           -2.381412989553     0.166587662629     0.208395968730    12.000000000000
         H            1.849194010447    -1.823676337371    -0.799622031270     1.007825032230
         H            2.224190010447    -0.154932337371    -1.252718031270     1.007825032230
         H           -0.322578989553    -2.477703337371    -0.340245031270     1.007825032230
         H           -1.749130989553     2.223429662629     0.274914968730     1.007825032230
         H            1.809368010447     1.819487662629     0.405674968730     1.007825032230
         H            1.243114010447     2.196270662629    -1.224544031270     1.007825032230
         H            0.481710010447     2.977938662629     0.166075968730     1.007825032230
         H           -2.714700989553    -1.963227337371     0.085960968730     1.007825032230
         H           -3.426243989553     0.406703662629     0.391465968730     1.007825032230
         H            2.092104010447    -0.992297337371     1.428199968730     1.007825032230

  Basis Set: AUG-CC-PVTZ
    Blend: AUG-CC-PVTZ
  Basis Set: (AUG-CC-PVTZ AUX)
    Blend: AUG-CC-PVTZ-JKFIT
	 Reference Energy          =    -383.7588971462230347 [Eh]
	 Singles Energy            =      -0.0000000000000000 [Eh]
	 Same-Spin Energy          =      -0.4132351653683824 [Eh]
	 Opposite-Spin Energy      =      -1.3209021305604183 [Eh]
	 Correlation Energy        =      -1.7341372959288006 [Eh]
	 Total Energy              =    -385.4930344421518384 [Eh]

	 ================> DF-SCS-MP2 Energies <==================
	-----------------------------------------------------------
	 SCS Same-Spin Scale       =       0.3333333333333333 [-]
	 SCS Opposite-Spin Scale   =       1.2000000000000000 [-]
	 SCS Same-Spin Energy      =      -0.1377450551227941 [Eh]
	 SCS Opposite-Spin Energy  =      -1.5850825566725020 [Eh]
	 SCS Correlation Energy    =      -1.7228276117952961 [Eh]
	 SCS Total Energy          =    -385.4817247580183448 [Eh]
	-----------------------------------------------------------

  Dipole Moment: [D]
     X:    -1.1881      Y:    -0.3958      Z:    -0.1055     Total:     1.2567

*** Psi4 exiting successfully. Buy a developer a beer!
