                               Psi4 1.4a3.dev225

  ==> Input File <==

--------------------------------------------------------------------------
#psi4
#
memory 32 gb

molecule  {
0 1
  O        2.5396650    -0.5551780     0.7057380
  C        0.3025760    -0.4378200    -0.2720190
  C       -0.0927650     0.9034730    -0.0869930
  C        1.7537560    -0.7902540    -0.4711970
  C       -0.6504930    -1.4595100    -0.1921940
  C       -1.4938309     1.1854080     0.1507519
  C        0.9085990     2.0263450    -0.1815640
  C       -1.9974120    -1.1732570     0.0382800
  C       -2.3931980     0.1517110     0.2151080
  H        1.8374090    -1.8385530    -0.7929100
  H        2.2124050    -0.1698090    -1.2460060
  H       -0.3343640    -2.4925800    -0.3335330
  H       -1.7609160     2.2085530     0.2816270
  H        1.7975830     1.8046110     0.4123870
  H        1.2313290     2.1813940    -1.2178320
  H        0.4699250     2.9630620     0.1727880
  H       -2.7264860    -1.9781040     0.0926730
  H       -3.4380290     0.3918270     0.3981780
  H        2.0803190    -1.0071740     1.4349120
units angstrom
no_reorient  #important for SAPT in psi4, default
symmetry c1  #important for SAPT in psi4, default
}

set PROPERTIES_ORIGIN ["COM"]
properties('MP2/aug-cc-pvtz', properties = ['dipole'])
--------------------------------------------------------------------------

    Molecular point group: c1
  Charge       = 0
  Multiplicity = 1
  Basis Set: AUG-CC-PVTZ
    Blend: AUG-CC-PVTZ
  Basis Set: (AUG-CC-PVTZ AUX)
    Blend: AUG-CC-PVTZ-JKFIT

    Orbital Energies [Eh]
    ---------------------

    Doubly Occupied:

       1A    -20.560750     2A    -11.282663     3A    -11.251430
       4A    -11.240449     5A    -11.237306     6A    -11.236450
       7A    -11.234825     8A    -11.234023     9A    -11.220644
      10A     -1.357160    11A     -1.154954    12A     -1.049310
      13A     -1.032253    14A     -0.945599    15A     -0.905996
      16A     -0.820358    17A     -0.789600    18A     -0.701546
      19A     -0.674930    20A     -0.642868    21A     -0.629138
      22A     -0.606558    23A     -0.586820    24A     -0.572781
      25A     -0.568251    26A     -0.544240    27A     -0.523962
      28A     -0.496504    29A     -0.487711    30A     -0.478438
      31A     -0.445621    32A     -0.340575    33A     -0.320710

  @DF-RHF Final Energy:  -383.75636121264972

   => Energetics <=

    Nuclear Repulsion Energy =            426.2749005138037433
    One-Electron Energy =               -1365.7136789770602263
    Two-Electron Energy =                 555.6824172506068180
    Total Energy =                       -383.7563612126497219
  Basis Set: (AUG-CC-PVTZ AUX)
    Blend: AUG-CC-PVTZ-RI
    Molecular point group: c1

    Geometry (in Angstrom), charge = 0, multiplicity = 1:

       Center              X                  Y                   Z               Mass
    ------------   -----------------  -----------------  -----------------  -----------------
         O            2.555652142835    -0.539388281663     0.698477307605    15.994914619570
         C            0.318563142835    -0.422030281663    -0.279279692395    12.000000000000
         C           -0.076777857165     0.919262718337    -0.094253692395    12.000000000000
         C            1.769743142835    -0.774464281663    -0.478457692395    12.000000000000
         C           -0.634505857165    -1.443720281663    -0.199454692395    12.000000000000
         C           -1.477843757165     1.201197718337     0.143491207605    12.000000000000
         C            0.924586142835     2.042134718337    -0.188824692395    12.000000000000
         C           -1.981424857165    -1.157467281663     0.031019307605    12.000000000000
         C           -2.377210857165     0.167500718337     0.207847307605    12.000000000000
         H            1.853396142835    -1.822763281663    -0.800170692395     1.007825032230
         H            2.228392142835    -0.154019281663    -1.253266692395     1.007825032230
         H           -0.318376857165    -2.476790281663    -0.340793692395     1.007825032230
         H           -1.744928857165     2.224342718337     0.274366307605     1.007825032230
         H            1.813570142835     1.820400718337     0.405126307605     1.007825032230
         H            1.247316142835     2.197183718337    -1.225092692395     1.007825032230
         H            0.485912142835     2.978851718337     0.165527307605     1.007825032230
         H           -2.710498857165    -1.962314281663     0.085412307605     1.007825032230
         H           -3.422041857165     0.407616718337     0.390917307605     1.007825032230
         H            2.096306142835    -0.991384281663     1.427651307605     1.007825032230

  Basis Set: AUG-CC-PVTZ
    Blend: AUG-CC-PVTZ
  Basis Set: (AUG-CC-PVTZ AUX)
    Blend: AUG-CC-PVTZ-JKFIT
	 Reference Energy          =    -383.7563612126497219 [Eh]
	 Singles Energy            =      -0.0000000000000000 [Eh]
	 Same-Spin Energy          =      -0.4131958848435745 [Eh]
	 Opposite-Spin Energy      =      -1.3209246219675763 [Eh]
	 Correlation Energy        =      -1.7341205068111507 [Eh]
	 Total Energy              =    -385.4904817194608881 [Eh]

	 ================> DF-SCS-MP2 Energies <==================
	-----------------------------------------------------------
	 SCS Same-Spin Scale       =       0.3333333333333333 [-]
	 SCS Opposite-Spin Scale   =       1.2000000000000000 [-]
	 SCS Same-Spin Energy      =      -0.1377319616145248 [Eh]
	 SCS Opposite-Spin Energy  =      -1.5851095463610916 [Eh]
	 SCS Correlation Energy    =      -1.7228415079756163 [Eh]
	 SCS Total Energy          =    -385.4792027206253238 [Eh]
	-----------------------------------------------------------

  Dipole Moment: [D]
     X:    -1.1792      Y:    -0.3714      Z:    -0.1032     Total:     1.2406

*** Psi4 exiting successfully. Buy a developer a beer!
