                               Psi4 1.4a3.dev225

  ==> Input File <==

--------------------------------------------------------------------------
#psi4
#
memory 32 gb

molecule  {
0 1
  O        2.5396650    -0.5551780     0.7057380
  C        0.1931735    -0.3441712    -0.2451969
  C       -0.0927650     0.9034730    -0.0869930
  C        1.7537560    -0.7902540    -0.4711970
  C       -0.6504930    -1.4595100    -0.1921940
  C       -1.4454780     1.1756780     0.1425470
  C        0.9085990     2.0263450    -0.1815640
  C       -1.9974120    -1.1732570     0.0382800
  C       -2.3931980     0.1517110     0.2151080
  H        1.8374090    -1.8385530    -0.7929100
  H        2.2124050    -0.1698090    -1.2460060
  H       -0.3343640    -2.4925800    -0.3335330
  H       -1.7609160     2.2085530     0.2816270
  H        1.7975830     1.8046110     0.4123870
  H        1.2313290     2.1813940    -1.2178320
  H        0.4699250     2.9630620     0.1727880
  H       -2.7264860    -1.9781040     0.0926730
  H       -3.4380290     0.3918270     0.3981780
  H        2.0803190    -1.0071740     1.4349120
units angstrom
no_reorient  #important for SAPT in psi4, default
symmetry c1  #important for SAPT in psi4, default
}

set PROPERTIES_ORIGIN ["COM"]
properties('MP2/aug-cc-pvtz', properties = ['dipole'])
--------------------------------------------------------------------------

    Molecular point group: c1
  Charge       = 0
  Multiplicity = 1
  Basis Set: AUG-CC-PVTZ
    Blend: AUG-CC-PVTZ
  Basis Set: (AUG-CC-PVTZ AUX)
    Blend: AUG-CC-PVTZ-JKFIT

    Orbital Energies [Eh]
    ---------------------

    Doubly Occupied:

       1A    -20.559193     2A    -11.284647     3A    -11.238737
       4A    -11.236361     5A    -11.235623     6A    -11.234511
       7A    -11.232149     8A    -11.229012     9A    -11.220699
      10A     -1.353332    11A     -1.171404    12A     -1.055555
      13A     -1.021364    14A     -0.940060    15A     -0.904669
      16A     -0.834544    17A     -0.787675    18A     -0.695971
      19A     -0.676045    20A     -0.635086    21A     -0.629702
      22A     -0.600402    23A     -0.586925    24A     -0.574335
      25A     -0.570074    26A     -0.542825    27A     -0.525708
      28A     -0.504354    29A     -0.495606    30A     -0.471838
      31A     -0.422164    32A     -0.341486    33A     -0.332395

  @DF-RHF Final Energy:  -383.73562820554577

   => Energetics <=

    Nuclear Repulsion Energy =            427.9235910901072089
    One-Electron Energy =               -1369.0295327163469210
    Two-Electron Energy =                 557.3703134206939467
    Total Energy =                       -383.7356282055457086
  Basis Set: (AUG-CC-PVTZ AUX)
    Blend: AUG-CC-PVTZ-RI
    Molecular point group: c1

    Geometry (in Angstrom), charge = 0, multiplicity = 1:

       Center              X                  Y                   Z               Mass
    ------------   -----------------  -----------------  -----------------  -----------------
         O            2.561653422480    -0.547637642614     0.696647205140    15.994914619570
         C            0.215161922480    -0.336630842614    -0.254287694860    12.000000000000
         C           -0.070776577520     0.911013357386    -0.096083794860    12.000000000000
         C            1.775744422480    -0.782713642614    -0.480287794860    12.000000000000
         C           -0.628504577520    -1.451969642614    -0.201284794860    12.000000000000
         C           -1.423489577520     1.183218357386     0.133456205140    12.000000000000
         C            0.930587422480     2.033885357386    -0.190654794860    12.000000000000
         C           -1.975423577520    -1.165716642614     0.029189205140    12.000000000000
         C           -2.371209577520     0.159251357386     0.206017205140    12.000000000000
         H            1.859397422480    -1.831012642614    -0.802000794860     1.007825032230
         H            2.234393422480    -0.162268642614    -1.255096794860     1.007825032230
         H           -0.312375577520    -2.485039642614    -0.342623794860     1.007825032230
         H           -1.738927577520     2.216093357386     0.272536205140     1.007825032230
         H            1.819571422480     1.812151357386     0.403296205140     1.007825032230
         H            1.253317422480     2.188934357386    -1.226922794860     1.007825032230
         H            0.491913422480     2.970602357386     0.163697205140     1.007825032230
         H           -2.704497577520    -1.970563642614     0.083582205140     1.007825032230
         H           -3.416040577520     0.399367357386     0.389087205140     1.007825032230
         H            2.102307422480    -0.999633642614     1.425821205140     1.007825032230

  Basis Set: AUG-CC-PVTZ
    Blend: AUG-CC-PVTZ
  Basis Set: (AUG-CC-PVTZ AUX)
    Blend: AUG-CC-PVTZ-JKFIT
	 Reference Energy          =    -383.7356282055457655 [Eh]
	 Singles Energy            =      -0.0000000000000000 [Eh]
	 Same-Spin Energy          =      -0.4128868531868164 [Eh]
	 Opposite-Spin Energy      =      -1.3210064977289118 [Eh]
	 Correlation Energy        =      -1.7338933509157282 [Eh]
	 Total Energy              =    -385.4695215564614728 [Eh]

	 ================> DF-SCS-MP2 Energies <==================
	-----------------------------------------------------------
	 SCS Same-Spin Scale       =       0.3333333333333333 [-]
	 SCS Opposite-Spin Scale   =       1.2000000000000000 [-]
	 SCS Same-Spin Energy      =      -0.1376289510622721 [Eh]
	 SCS Opposite-Spin Energy  =      -1.5852077972746941 [Eh]
	 SCS Correlation Energy    =      -1.7228367483369662 [Eh]
	 SCS Total Energy          =    -385.4584649538827534 [Eh]
	-----------------------------------------------------------

  Dipole Moment: [D]
     X:    -1.2022      Y:    -0.4396      Z:    -0.0944     Total:     1.2835

*** Psi4 exiting successfully. Buy a developer a beer!
