                               Psi4 1.4a3.dev225

  ==> Input File <==

--------------------------------------------------------------------------
#psi4
#
memory 32 gb

molecule  {
0 1
  O        2.5396650    -0.5551780     0.7057380
  C        0.3025760    -0.4378200    -0.2720190
  C       -0.0927650     0.9034730    -0.0869930
  C        1.7537560    -0.7902540    -0.4711970
  C       -0.6504930    -1.4595100    -0.1921940
  C       -1.4454780     1.1756780     0.1425470
  C        0.9085990     2.0263450    -0.1815640
  C       -2.0167067    -1.1691564     0.0415816
  C       -2.3931980     0.1517110     0.2151080
  H        1.8374090    -1.8385530    -0.7929100
  H        2.2124050    -0.1698090    -1.2460060
  H       -0.3343640    -2.4925800    -0.3335330
  H       -1.7609160     2.2085530     0.2816270
  H        1.7975830     1.8046110     0.4123870
  H        1.2313290     2.1813940    -1.2178320
  H        0.4699250     2.9630620     0.1727880
  H       -2.7264860    -1.9781040     0.0926730
  H       -3.4380290     0.3918270     0.3981780
  H        2.0803190    -1.0071740     1.4349120
units angstrom
no_reorient  #important for SAPT in psi4, default
symmetry c1  #important for SAPT in psi4, default
}

set PROPERTIES_ORIGIN ["COM"]
properties('MP2/aug-cc-pvtz', properties = ['dipole'])
--------------------------------------------------------------------------

    Molecular point group: c1
  Charge       = 0
  Multiplicity = 1
  Basis Set: AUG-CC-PVTZ
    Blend: AUG-CC-PVTZ
  Basis Set: (AUG-CC-PVTZ AUX)
    Blend: AUG-CC-PVTZ-JKFIT

    Orbital Energies [Eh]
    ---------------------

    Doubly Occupied:

       1A    -20.560955     2A    -11.282853     3A    -11.246105
       4A    -11.242177     5A    -11.238468     6A    -11.237873
       7A    -11.235396     8A    -11.233454     9A    -11.219912
      10A     -1.357366    11A     -1.156749    12A     -1.049729
      13A     -1.031765    14A     -0.942528    15A     -0.909432
      16A     -0.818712    17A     -0.792205    18A     -0.701471
      19A     -0.674793    20A     -0.644520    21A     -0.625176
      22A     -0.605445    23A     -0.587807    24A     -0.572263
      25A     -0.568836    26A     -0.543246    27A     -0.526184
      28A     -0.495122    29A     -0.487403    30A     -0.478281
      31A     -0.447234    32A     -0.336995    33A     -0.325807

  @DF-RHF Final Energy:  -383.75912145244104

   => Energetics <=

    Nuclear Repulsion Energy =            426.6862593869303737
    One-Electron Energy =               -1366.5382389755229724
    Two-Electron Energy =                 556.0928581361515626
    Total Energy =                       -383.7591214524410361
  Basis Set: (AUG-CC-PVTZ AUX)
    Blend: AUG-CC-PVTZ-RI
    Molecular point group: c1

    Geometry (in Angstrom), charge = 0, multiplicity = 1:

       Center              X                  Y                   Z               Mass
    ------------   -----------------  -----------------  -----------------  -----------------
         O            2.552795672289    -0.538834902057     0.698959310345    15.994914619570
         C            0.315706672289    -0.421476902057    -0.278797689655    12.000000000000
         C           -0.079634327711     0.919816097943    -0.093771689655    12.000000000000
         C            1.766886672289    -0.773910902057    -0.477975689655    12.000000000000
         C           -0.637362327711    -1.443166902057    -0.198972689655    12.000000000000
         C           -1.432347327711     1.192021097943     0.135768310345    12.000000000000
         C            0.921729672289     2.042688097943    -0.188342689655    12.000000000000
         C           -2.003576027711    -1.152813302057     0.034802910345    12.000000000000
         C           -2.380067327711     0.168054097943     0.208329310345    12.000000000000
         H            1.850539672289    -1.822209902057    -0.799688689655     1.007825032230
         H            2.225535672289    -0.153465902057    -1.252784689655     1.007825032230
         H           -0.321233327711    -2.476236902057    -0.340311689655     1.007825032230
         H           -1.747785327711     2.224896097943     0.274848310345     1.007825032230
         H            1.810713672289     1.820954097943     0.405608310345     1.007825032230
         H            1.244459672289     2.197737097943    -1.224610689655     1.007825032230
         H            0.483055672289     2.979405097943     0.166009310345     1.007825032230
         H           -2.713355327711    -1.961760902057     0.085894310345     1.007825032230
         H           -3.424898327711     0.408170097943     0.391399310345     1.007825032230
         H            2.093449672289    -0.990830902057     1.428133310345     1.007825032230

  Basis Set: AUG-CC-PVTZ
    Blend: AUG-CC-PVTZ
  Basis Set: (AUG-CC-PVTZ AUX)
    Blend: AUG-CC-PVTZ-JKFIT
	 Reference Energy          =    -383.7591214524410361 [Eh]
	 Singles Energy            =      -0.0000000000000000 [Eh]
	 Same-Spin Energy          =      -0.4131036046446790 [Eh]
	 Opposite-Spin Energy      =      -1.3207899112285575 [Eh]
	 Correlation Energy        =      -1.7338935158732365 [Eh]
	 Total Energy              =    -385.4930149683142986 [Eh]

	 ================> DF-SCS-MP2 Energies <==================
	-----------------------------------------------------------
	 SCS Same-Spin Scale       =       0.3333333333333333 [-]
	 SCS Opposite-Spin Scale   =       1.2000000000000000 [-]
	 SCS Same-Spin Energy      =      -0.1377012015482263 [Eh]
	 SCS Opposite-Spin Energy  =      -1.5849478934742689 [Eh]
	 SCS Correlation Energy    =      -1.7226490950224953 [Eh]
	 SCS Total Energy          =    -385.4817705474635545 [Eh]
	-----------------------------------------------------------

  Dipole Moment: [D]
     X:    -1.1990      Y:    -0.4070      Z:    -0.1031     Total:     1.2704

*** Psi4 exiting successfully. Buy a developer a beer!
