                               Psi4 1.4a3.dev225

  ==> Input File <==

--------------------------------------------------------------------------
#psi4
#
memory 32 gb

molecule  {
0 1
  O        2.5396650    -0.5551780     0.7057380
  C        0.3025760    -0.4378200    -0.2720190
  C       -0.0927650     0.9034730    -0.0869930
  C        1.7537560    -0.7902540    -0.4711970
  C       -0.6504930    -1.4595100    -0.1921940
  C       -1.4454780     1.1756780     0.1425470
  C        0.9085990     2.0263450    -0.1815640
  C       -1.9974120    -1.1732570     0.0382800
  C       -2.3931980     0.1517110     0.2151080
  H        1.8374090    -1.8385530    -0.7929100
  H        2.2124050    -0.1698090    -1.2460060
  H       -0.3343640    -2.4925800    -0.3335330
  H       -1.7609160     2.2085530     0.2816270
  H        1.7812997     1.8086725     0.4015077
  H        1.2313290     2.1813940    -1.2178320
  H        0.4699250     2.9630620     0.1727880
  H       -2.7264860    -1.9781040     0.0926730
  H       -3.4380290     0.3918270     0.3981780
  H        2.0803190    -1.0071740     1.4349120
units angstrom
no_reorient  #important for SAPT in psi4, default
symmetry c1  #important for SAPT in psi4, default
}

set PROPERTIES_ORIGIN ["COM"]
properties('MP2/aug-cc-pvtz', properties = ['dipole'])
--------------------------------------------------------------------------

    Molecular point group: c1
  Charge       = 0
  Multiplicity = 1
  Basis Set: AUG-CC-PVTZ
    Blend: AUG-CC-PVTZ
  Basis Set: (AUG-CC-PVTZ AUX)
    Blend: AUG-CC-PVTZ-JKFIT

    Orbital Energies [Eh]
    ---------------------

    Doubly Occupied:

       1A    -20.560933     2A    -11.282773     3A    -11.245761
       4A    -11.240110     5A    -11.238713     6A    -11.238122
       7A    -11.235148     8A    -11.233492     9A    -11.217650
      10A     -1.357312    11A     -1.157574    12A     -1.049670
      13A     -1.032701    14A     -0.944633    15A     -0.909038
      16A     -0.818271    17A     -0.792776    18A     -0.701131
      19A     -0.674653    20A     -0.644959    21A     -0.625229
      22A     -0.605326    23A     -0.586664    24A     -0.573319
      25A     -0.570796    26A     -0.543872    27A     -0.526861
      28A     -0.494116    29A     -0.488472    30A     -0.478206
      31A     -0.447697    32A     -0.337518    33A     -0.325727

  @DF-RHF Final Energy:  -383.75966068578350

   => Energetics <=

    Nuclear Repulsion Energy =            426.9850894226723312
    One-Electron Energy =               -1367.1310516511227888
    Two-Electron Energy =                 556.3863015426669563
    Total Energy =                       -383.7596606857835013
  Basis Set: (AUG-CC-PVTZ AUX)
    Blend: AUG-CC-PVTZ-RI
    Molecular point group: c1

    Geometry (in Angstrom), charge = 0, multiplicity = 1:

       Center              X                  Y                   Z               Mass
    ------------   -----------------  -----------------  -----------------  -----------------
         O            2.551033403876    -0.538465337471     0.699373681766    15.994914619570
         C            0.313944403876    -0.421107337471    -0.278383318234    12.000000000000
         C           -0.081396596124     0.920185662529    -0.093357318234    12.000000000000
         C            1.765124403876    -0.773541337471    -0.477561318234    12.000000000000
         C           -0.639124596124    -1.442797337471    -0.198558318234    12.000000000000
         C           -1.434109596124     1.192390662529     0.136182681766    12.000000000000
         C            0.919967403876     2.043057662529    -0.187928318234    12.000000000000
         C           -1.986043596124    -1.156544337471     0.031915681766    12.000000000000
         C           -2.381829596124     0.168423662529     0.208743681766    12.000000000000
         H            1.848777403876    -1.821840337471    -0.799274318234     1.007825032230
         H            2.223773403876    -0.153096337471    -1.252370318234     1.007825032230
         H           -0.322995596124    -2.475867337471    -0.339897318234     1.007825032230
         H           -1.749547596124     2.225265662529     0.275262681766     1.007825032230
         H            1.792668103876     1.825385162529     0.395143381766     1.007825032230
         H            1.242697403876     2.198106662529    -1.224196318234     1.007825032230
         H            0.481293403876     2.979774662529     0.166423681766     1.007825032230
         H           -2.715117596124    -1.961391337471     0.086308681766     1.007825032230
         H           -3.426660596124     0.408539662529     0.391813681766     1.007825032230
         H            2.091687403876    -0.990461337471     1.428547681766     1.007825032230

  Basis Set: AUG-CC-PVTZ
    Blend: AUG-CC-PVTZ
  Basis Set: (AUG-CC-PVTZ AUX)
    Blend: AUG-CC-PVTZ-JKFIT
	 Reference Energy          =    -383.7596606857835013 [Eh]
	 Singles Energy            =      -0.0000000000000000 [Eh]
	 Same-Spin Energy          =      -0.4131484749717065 [Eh]
	 Opposite-Spin Energy      =      -1.3206278394809641 [Eh]
	 Correlation Energy        =      -1.7337763144526706 [Eh]
	 Total Energy              =    -385.4934370002361561 [Eh]

	 ================> DF-SCS-MP2 Energies <==================
	-----------------------------------------------------------
	 SCS Same-Spin Scale       =       0.3333333333333333 [-]
	 SCS Opposite-Spin Scale   =       1.2000000000000000 [-]
	 SCS Same-Spin Energy      =      -0.1377161583239022 [Eh]
	 SCS Opposite-Spin Energy  =      -1.5847534073771568 [Eh]
	 SCS Correlation Energy    =      -1.7224695657010589 [Eh]
	 SCS Total Energy          =    -385.4821302514845343 [Eh]
	-----------------------------------------------------------

  Dipole Moment: [D]
     X:    -1.1981      Y:    -0.3958      Z:    -0.1015     Total:     1.2659

*** Psi4 exiting successfully. Buy a developer a beer!
