                               Psi4 1.4a3.dev225

  ==> Input File <==

--------------------------------------------------------------------------
#psi4
#
memory 32 gb

molecule  {
0 1
  O        2.5396650    -0.5551780     0.7057380
  C        0.3025760    -0.4378200    -0.2720190
  C       -0.0927650     0.9034730    -0.0869930
  C        1.9464007    -0.8370397    -0.4976380
  C       -0.6504930    -1.4595100    -0.1921940
  C       -1.4454780     1.1756780     0.1425470
  C        0.9085990     2.0263450    -0.1815640
  C       -1.9974120    -1.1732570     0.0382800
  C       -2.3931980     0.1517110     0.2151080
  H        1.8374090    -1.8385530    -0.7929100
  H        2.2124050    -0.1698090    -1.2460060
  H       -0.3343640    -2.4925800    -0.3335330
  H       -1.7609160     2.2085530     0.2816270
  H        1.7975830     1.8046110     0.4123870
  H        1.2313290     2.1813940    -1.2178320
  H        0.4699250     2.9630620     0.1727880
  H       -2.7264860    -1.9781040     0.0926730
  H       -3.4380290     0.3918270     0.3981780
  H        2.0803190    -1.0071740     1.4349120
units angstrom
no_reorient  #important for SAPT in psi4, default
symmetry c1  #important for SAPT in psi4, default
}

set PROPERTIES_ORIGIN ["COM"]
properties('MP2/aug-cc-pvtz', properties = ['dipole'])
--------------------------------------------------------------------------

    Molecular point group: c1
  Charge       = 0
  Multiplicity = 1
  Basis Set: AUG-CC-PVTZ
    Blend: AUG-CC-PVTZ
  Basis Set: (AUG-CC-PVTZ AUX)
    Blend: AUG-CC-PVTZ-JKFIT

    Orbital Energies [Eh]
    ---------------------

    Doubly Occupied:

       1A    -20.568727     2A    -11.289163     3A    -11.240336
       4A    -11.238403     5A    -11.234132     6A    -11.232942
       7A    -11.231284     8A    -11.229736     9A    -11.217654
      10A     -1.383547    11A     -1.148703    12A     -1.041854
      13A     -1.016200    14A     -0.938603    15A     -0.914302
      16A     -0.812589    17A     -0.789626    18A     -0.714639
      19A     -0.675526    20A     -0.649210    21A     -0.626406
      22A     -0.618096    23A     -0.592261    24A     -0.569751
      25A     -0.569120    26A     -0.543123    27A     -0.519215
      28A     -0.497620    29A     -0.485012    30A     -0.481813
      31A     -0.409581    32A     -0.332626    33A     -0.320786

  @DF-RHF Final Energy:  -383.73278421262319

   => Energetics <=

    Nuclear Repulsion Energy =            424.4629708437270210
    One-Electron Energy =               -1362.1263447724666094
    Two-Electron Energy =                 553.9305897161164012
    Total Energy =                       -383.7327842126231872
  Basis Set: (AUG-CC-PVTZ AUX)
    Blend: AUG-CC-PVTZ-RI
    Molecular point group: c1

    Geometry (in Angstrom), charge = 0, multiplicity = 1:

       Center              X                  Y                   Z               Mass
    ------------   -----------------  -----------------  -----------------  -----------------
         O            2.531961668344    -0.533832692109     0.701883058575    15.994914619570
         C            0.294872668344    -0.416474692109    -0.275873941425    12.000000000000
         C           -0.100468331656     0.924818307891    -0.090847941425    12.000000000000
         C            1.938697368344    -0.815694392109    -0.501492941425    12.000000000000
         C           -0.658196331656    -1.438164692109    -0.196048941425    12.000000000000
         C           -1.453181331656     1.197023307891     0.138692058575    12.000000000000
         C            0.900895668344     2.047690307891    -0.185418941425    12.000000000000
         C           -2.005115331656    -1.151911692109     0.034425058575    12.000000000000
         C           -2.400901331656     0.173056307891     0.211253058575    12.000000000000
         H            1.829705668344    -1.817207692109    -0.796764941425     1.007825032230
         H            2.204701668344    -0.148463692109    -1.249860941425     1.007825032230
         H           -0.342067331656    -2.471234692109    -0.337387941425     1.007825032230
         H           -1.768619331656     2.229898307891     0.277772058575     1.007825032230
         H            1.789879668344     1.825956307891     0.408532058575     1.007825032230
         H            1.223625668344     2.202739307891    -1.221686941425     1.007825032230
         H            0.462221668344     2.984407307891     0.168933058575     1.007825032230
         H           -2.734189331656    -1.956758692109     0.088818058575     1.007825032230
         H           -3.445732331656     0.413172307891     0.394323058575     1.007825032230
         H            2.072615668344    -0.985828692109     1.431057058575     1.007825032230

  Basis Set: AUG-CC-PVTZ
    Blend: AUG-CC-PVTZ
  Basis Set: (AUG-CC-PVTZ AUX)
    Blend: AUG-CC-PVTZ-JKFIT
	 Reference Energy          =    -383.7327842126231872 [Eh]
	 Singles Energy            =      -0.0000000000000000 [Eh]
	 Same-Spin Energy          =      -0.4128566339419154 [Eh]
	 Opposite-Spin Energy      =      -1.3204732709548095 [Eh]
	 Correlation Energy        =      -1.7333299048967250 [Eh]
	 Total Energy              =    -385.4661141175199077 [Eh]

	 ================> DF-SCS-MP2 Energies <==================
	-----------------------------------------------------------
	 SCS Same-Spin Scale       =       0.3333333333333333 [-]
	 SCS Opposite-Spin Scale   =       1.2000000000000000 [-]
	 SCS Same-Spin Energy      =      -0.1376188779806385 [Eh]
	 SCS Opposite-Spin Energy  =      -1.5845679251457714 [Eh]
	 SCS Correlation Energy    =      -1.7221868031264098 [Eh]
	 SCS Total Energy          =    -385.4549710157496065 [Eh]
	-----------------------------------------------------------

  Dipole Moment: [D]
     X:    -0.6494      Y:    -0.5357      Z:    -0.0083     Total:     0.8418

*** Psi4 exiting successfully. Buy a developer a beer!
