                               Psi4 1.4a3.dev225

  ==> Input File <==

--------------------------------------------------------------------------
#psi4
#
memory 32 gb

molecule  {
0 1
  O        2.5396650    -0.5551780     0.7057380
  C        0.2672118    -0.4053067    -0.2631611
  C       -0.0927650     0.9034730    -0.0869930
  C        1.7537560    -0.7902540    -0.4711970
  C       -0.6504930    -1.4595100    -0.1921940
  C       -1.4454780     1.1756780     0.1425470
  C        0.9085990     2.0263450    -0.1815640
  C       -1.9974120    -1.1732570     0.0382800
  C       -2.3931980     0.1517110     0.2151080
  H        1.8374090    -1.8385530    -0.7929100
  H        2.2124050    -0.1698090    -1.2460060
  H       -0.3343640    -2.4925800    -0.3335330
  H       -1.7609160     2.2085530     0.2816270
  H        1.7975830     1.8046110     0.4123870
  H        1.2313290     2.1813940    -1.2178320
  H        0.4699250     2.9630620     0.1727880
  H       -2.7264860    -1.9781040     0.0926730
  H       -3.4380290     0.3918270     0.3981780
  H        2.0803190    -1.0071740     1.4349120
units angstrom
no_reorient  #important for SAPT in psi4, default
symmetry c1  #important for SAPT in psi4, default
}

set PROPERTIES_ORIGIN ["COM"]
properties('MP2/aug-cc-pvtz', properties = ['dipole'])
--------------------------------------------------------------------------

    Molecular point group: c1
  Charge       = 0
  Multiplicity = 1
  Basis Set: AUG-CC-PVTZ
    Blend: AUG-CC-PVTZ
  Basis Set: (AUG-CC-PVTZ AUX)
    Blend: AUG-CC-PVTZ-JKFIT

    Orbital Energies [Eh]
    ---------------------

    Doubly Occupied:

       1A    -20.560411     2A    -11.283909     3A    -11.240610
       4A    -11.239322     5A    -11.237600     6A    -11.235947
       7A    -11.235242     8A    -11.233936     9A    -11.220020
      10A     -1.356034    11A     -1.161481    12A     -1.050834
      13A     -1.028603    14A     -0.941396    15A     -0.907843
      16A     -0.824035    17A     -0.790836    18A     -0.698697
      19A     -0.675193    20A     -0.640937    21A     -0.626759
      22A     -0.603595    23A     -0.586793    24A     -0.573557
      25A     -0.569147    26A     -0.543284    27A     -0.525739
      28A     -0.497219    29A     -0.490327    30A     -0.476006
      31A     -0.442060    32A     -0.336395    33A     -0.329957

  @DF-RHF Final Energy:  -383.75763454523241

   => Energetics <=

    Nuclear Repulsion Energy =            427.2181474078503243
    One-Electron Energy =               -1367.6241165479095798
    Two-Electron Energy =                 556.6483345948267925
    Total Energy =                       -383.7576345452324631
  Basis Set: (AUG-CC-PVTZ AUX)
    Blend: AUG-CC-PVTZ-RI
    Molecular point group: c1

    Geometry (in Angstrom), charge = 0, multiplicity = 1:

       Center              X                  Y                   Z               Mass
    ------------   -----------------  -----------------  -----------------  -----------------
         O            2.554375331505    -0.541627918853     0.698413116593    15.994914619570
         C            0.281922131505    -0.391756618853    -0.270485983407    12.000000000000
         C           -0.078054668495     0.917023081147    -0.094317883407    12.000000000000
         C            1.768466331505    -0.776703918853    -0.478521883407    12.000000000000
         C           -0.635782668495    -1.445959918853    -0.199518883407    12.000000000000
         C           -1.430767668495     1.189228081147     0.135222116593    12.000000000000
         C            0.923309331505     2.039895081147    -0.188888883407    12.000000000000
         C           -1.982701668495    -1.159706918853     0.030955116593    12.000000000000
         C           -2.378487668495     0.165261081147     0.207783116593    12.000000000000
         H            1.852119331505    -1.825002918853    -0.800234883407     1.007825032230
         H            2.227115331505    -0.156258918853    -1.253330883407     1.007825032230
         H           -0.319653668495    -2.479029918853    -0.340857883407     1.007825032230
         H           -1.746205668495     2.222103081147     0.274302116593     1.007825032230
         H            1.812293331505     1.818161081147     0.405062116593     1.007825032230
         H            1.246039331505     2.194944081147    -1.225156883407     1.007825032230
         H            0.484635331505     2.976612081147     0.165463116593     1.007825032230
         H           -2.711775668495    -1.964553918853     0.085348116593     1.007825032230
         H           -3.423318668495     0.405377081147     0.390853116593     1.007825032230
         H            2.095029331505    -0.993623918853     1.427587116593     1.007825032230

  Basis Set: AUG-CC-PVTZ
    Blend: AUG-CC-PVTZ
  Basis Set: (AUG-CC-PVTZ AUX)
    Blend: AUG-CC-PVTZ-JKFIT
	 Reference Energy          =    -383.7576345452324063 [Eh]
	 Singles Energy            =      -0.0000000000000000 [Eh]
	 Same-Spin Energy          =      -0.4129352243784371 [Eh]
	 Opposite-Spin Energy      =      -1.3204850888084660 [Eh]
	 Correlation Energy        =      -1.7334203131869033 [Eh]
	 Total Energy              =    -385.4910548584193180 [Eh]

	 ================> DF-SCS-MP2 Energies <==================
	-----------------------------------------------------------
	 SCS Same-Spin Scale       =       0.3333333333333333 [-]
	 SCS Opposite-Spin Scale   =       1.2000000000000000 [-]
	 SCS Same-Spin Energy      =      -0.1376450747928123 [Eh]
	 SCS Opposite-Spin Energy  =      -1.5845821065701593 [Eh]
	 SCS Correlation Energy    =      -1.7222271813629717 [Eh]
	 SCS Total Energy          =    -385.4798617265954022 [Eh]
	-----------------------------------------------------------

  Dipole Moment: [D]
     X:    -1.1951      Y:    -0.4166      Z:    -0.1014     Total:     1.2697

*** Psi4 exiting successfully. Buy a developer a beer!
