                               Psi4 1.4a3.dev225

  ==> Input File <==

--------------------------------------------------------------------------
#psi4
#
memory 32 gb

molecule  {
0 1
  O        2.5396650    -0.5551780     0.7057380
  C        0.3025760    -0.4378200    -0.2720190
  C       -0.0927650     0.9034730    -0.0869930
  C        1.7537560    -0.7902540    -0.4711970
  C       -0.6504930    -1.4595100    -0.1921940
  C       -1.4454780     1.1756780     0.1425470
  C        0.9085990     2.0263450    -0.1815640
  C       -1.9974120    -1.1732570     0.0382800
  C       -2.3931980     0.1517110     0.2151080
  H        1.8374090    -1.8385530    -0.7929100
  H        2.2124050    -0.1698090    -1.2460060
  H       -0.3343640    -2.4925800    -0.3335330
  H       -1.7609160     2.2085530     0.2816270
  H        1.7975830     1.8046110     0.4123870
  H        1.2313290     2.1813940    -1.2178320
  H        0.4699250     2.9630620     0.1727880
  H       -2.7264860    -1.9781040     0.0926730
  H       -3.3419601     0.3697491     0.3813453
  H        2.0803190    -1.0071740     1.4349120
units angstrom
no_reorient  #important for SAPT in psi4, default
symmetry c1  #important for SAPT in psi4, default
}

set PROPERTIES_ORIGIN ["COM"]
properties('MP2/aug-cc-pvtz', properties = ['dipole'])
--------------------------------------------------------------------------

    Molecular point group: c1
  Charge       = 0
  Multiplicity = 1
  Basis Set: AUG-CC-PVTZ
    Blend: AUG-CC-PVTZ
  Basis Set: (AUG-CC-PVTZ AUX)
    Blend: AUG-CC-PVTZ-JKFIT

    Orbital Energies [Eh]
    ---------------------

    Doubly Occupied:

       1A    -20.560720     2A    -11.282530     3A    -11.245268
       4A    -11.239561     5A    -11.237838     6A    -11.234573
       7A    -11.232930     8A    -11.226430     9A    -11.219482
      10A     -1.357115    11A     -1.157653    12A     -1.050932
      13A     -1.033440    14A     -0.943907    15A     -0.911147
      16A     -0.818902    17A     -0.798490    18A     -0.701829
      19A     -0.679464    20A     -0.651900    21A     -0.625231
      22A     -0.604963    23A     -0.587767    24A     -0.573872
      25A     -0.568290    26A     -0.546182    27A     -0.527996
      28A     -0.494791    29A     -0.487613    30A     -0.478607
      31A     -0.447573    32A     -0.337128    33A     -0.325224

  @DF-RHF Final Energy:  -383.75374892797760

   => Energetics <=

    Nuclear Repulsion Energy =            427.4491551328865739
    One-Electron Energy =               -1368.0271079950530293
    Two-Electron Energy =                 556.8242039341889722
    Total Energy =                       -383.7537489279775400
  Basis Set: (AUG-CC-PVTZ AUX)
    Blend: AUG-CC-PVTZ-RI
    Molecular point group: c1

    Geometry (in Angstrom), charge = 0, multiplicity = 1:

       Center              X                  Y                   Z               Mass
    ------------   -----------------  -----------------  -----------------  -----------------
         O            2.550105834253    -0.538249532944     0.699422832499    15.994914619570
         C            0.313016834253    -0.420891532944    -0.278334167501    12.000000000000
         C           -0.082324165747     0.920401467056    -0.093308167501    12.000000000000
         C            1.764196834253    -0.773325532944    -0.477512167501    12.000000000000
         C           -0.640052165747    -1.442581532944    -0.198509167501    12.000000000000
         C           -1.435037165747     1.192606467056     0.136231832499    12.000000000000
         C            0.919039834253     2.043273467056    -0.187879167501    12.000000000000
         C           -1.986971165747    -1.156328532944     0.031964832499    12.000000000000
         C           -2.382757165747     0.168639467056     0.208792832499    12.000000000000
         H            1.847849834253    -1.821624532944    -0.799225167501     1.007825032230
         H            2.222845834253    -0.152880532944    -1.252321167501     1.007825032230
         H           -0.323923165747    -2.475651532944    -0.339848167501     1.007825032230
         H           -1.750475165747     2.225481467056     0.275311832499     1.007825032230
         H            1.808023834253     1.821539467056     0.406071832499     1.007825032230
         H            1.241769834253     2.198322467056    -1.224147167501     1.007825032230
         H            0.480365834253     2.979990467056     0.166472832499     1.007825032230
         H           -2.716045165747    -1.961175532944     0.086357832499     1.007825032230
         H           -3.331519265747     0.386677567056     0.375030132499     1.007825032230
         H            2.090759834253    -0.990245532944     1.428596832499     1.007825032230

  Basis Set: AUG-CC-PVTZ
    Blend: AUG-CC-PVTZ
  Basis Set: (AUG-CC-PVTZ AUX)
    Blend: AUG-CC-PVTZ-JKFIT
	 Reference Energy          =    -383.7537489279775968 [Eh]
	 Singles Energy            =      -0.0000000000000000 [Eh]
	 Same-Spin Energy          =      -0.4130477548777511 [Eh]
	 Opposite-Spin Energy      =      -1.3202583148929876 [Eh]
	 Correlation Energy        =      -1.7333060697707388 [Eh]
	 Total Energy              =    -385.4870549977483165 [Eh]

	 ================> DF-SCS-MP2 Energies <==================
	-----------------------------------------------------------
	 SCS Same-Spin Scale       =       0.3333333333333333 [-]
	 SCS Opposite-Spin Scale   =       1.2000000000000000 [-]
	 SCS Same-Spin Energy      =      -0.1376825849592503 [Eh]
	 SCS Opposite-Spin Energy  =      -1.5843099778715850 [Eh]
	 SCS Correlation Energy    =      -1.7219925628308355 [Eh]
	 SCS Total Energy          =    -385.4757414908084456 [Eh]
	-----------------------------------------------------------

  Dipole Moment: [D]
     X:    -1.2352      Y:    -0.3964      Z:    -0.0967     Total:     1.3009

*** Psi4 exiting successfully. Buy a developer a beer!
