                               Psi4 1.4a3.dev225

  ==> Input File <==

--------------------------------------------------------------------------
#psi4
#
memory 32 gb

molecule  {
0 1
  O        2.5396650    -0.5551780     0.7057380
  C        0.3025760    -0.4378200    -0.2720190
  C       -0.0927650     0.9034730    -0.0869930
  C        1.5611113    -0.7434683    -0.4447560
  C       -0.6504930    -1.4595100    -0.1921940
  C       -1.4454780     1.1756780     0.1425470
  C        0.9085990     2.0263450    -0.1815640
  C       -1.9974120    -1.1732570     0.0382800
  C       -2.3931980     0.1517110     0.2151080
  H        1.8374090    -1.8385530    -0.7929100
  H        2.2124050    -0.1698090    -1.2460060
  H       -0.3343640    -2.4925800    -0.3335330
  H       -1.7609160     2.2085530     0.2816270
  H        1.7975830     1.8046110     0.4123870
  H        1.2313290     2.1813940    -1.2178320
  H        0.4699250     2.9630620     0.1727880
  H       -2.7264860    -1.9781040     0.0926730
  H       -3.4380290     0.3918270     0.3981780
  H        2.0803190    -1.0071740     1.4349120
units angstrom
no_reorient  #important for SAPT in psi4, default
symmetry c1  #important for SAPT in psi4, default
}

set PROPERTIES_ORIGIN ["COM"]
properties('MP2/aug-cc-pvtz', properties = ['dipole'])
--------------------------------------------------------------------------

    Molecular point group: c1
  Charge       = 0
  Multiplicity = 1
  Basis Set: AUG-CC-PVTZ
    Blend: AUG-CC-PVTZ
  Basis Set: (AUG-CC-PVTZ AUX)
    Blend: AUG-CC-PVTZ-JKFIT

    Orbital Energies [Eh]
    ---------------------

    Doubly Occupied:

       1A    -20.553080     2A    -11.284293     3A    -11.253097
       4A    -11.247080     5A    -11.246462     6A    -11.238967
       7A    -11.237528     8A    -11.227730     9A    -11.222024
      10A     -1.329096    11A     -1.172839    12A     -1.072183
      13A     -1.047035    14A     -0.952937    15A     -0.907306
      16A     -0.823805    17A     -0.788785    18A     -0.707213
      19A     -0.671626    20A     -0.656618    21A     -0.616805
      22A     -0.598629    23A     -0.582912    24A     -0.576283
      25A     -0.558256    26A     -0.544700    27A     -0.523483
      28A     -0.501826    29A     -0.487691    30A     -0.479688
      31A     -0.435999    32A     -0.340962    33A     -0.329369

  @DF-RHF Final Energy:  -383.70487438498947

   => Energetics <=

    Nuclear Repulsion Energy =            429.6534639501272750
    One-Electron Energy =               -1372.2840572668503683
    Two-Electron Energy =                 558.9257189317336270
    Total Energy =                       -383.7048743849894663
  Basis Set: (AUG-CC-PVTZ AUX)
    Blend: AUG-CC-PVTZ-RI
    Molecular point group: c1

    Geometry (in Angstrom), charge = 0, multiplicity = 1:

       Center              X                  Y                   Z               Mass
    ------------   -----------------  -----------------  -----------------  -----------------
         O            2.569836272498    -0.543030920078     0.696684667919    15.994914619570
         C            0.332747272498    -0.425672920078    -0.281072332081    12.000000000000
         C           -0.062593727502     0.915620079922    -0.096046332081    12.000000000000
         C            1.591282572498    -0.731321220078    -0.453809332081    12.000000000000
         C           -0.620321727502    -1.447362920078    -0.201247332081    12.000000000000
         C           -1.415306727502     1.187825079922     0.133493667919    12.000000000000
         C            0.938770272498     2.038492079922    -0.190617332081    12.000000000000
         C           -1.967240727502    -1.161109920078     0.029226667919    12.000000000000
         C           -2.363026727502     0.163858079922     0.206054667919    12.000000000000
         H            1.867580272498    -1.826405920078    -0.801963332081     1.007825032230
         H            2.242576272498    -0.157661920078    -1.255059332081     1.007825032230
         H           -0.304192727502    -2.480432920078    -0.342586332081     1.007825032230
         H           -1.730744727502     2.220700079922     0.272573667919     1.007825032230
         H            1.827754272498     1.816758079922     0.403333667919     1.007825032230
         H            1.261500272498     2.193541079922    -1.226885332081     1.007825032230
         H            0.500096272498     2.975209079922     0.163734667919     1.007825032230
         H           -2.696314727502    -1.965956920078     0.083619667919     1.007825032230
         H           -3.407857727502     0.403974079922     0.389124667919     1.007825032230
         H            2.110490272498    -0.995026920078     1.425858667919     1.007825032230

  Basis Set: AUG-CC-PVTZ
    Blend: AUG-CC-PVTZ
  Basis Set: (AUG-CC-PVTZ AUX)
    Blend: AUG-CC-PVTZ-JKFIT
	 Reference Energy          =    -383.7048743849894663 [Eh]
	 Singles Energy            =      -0.0000000000000000 [Eh]
	 Same-Spin Energy          =      -0.4175927573176000 [Eh]
	 Opposite-Spin Energy      =      -1.3280433089393289 [Eh]
	 Correlation Energy        =      -1.7456360662569288 [Eh]
	 Total Energy              =    -385.4505104512463731 [Eh]

	 ================> DF-SCS-MP2 Energies <==================
	-----------------------------------------------------------
	 SCS Same-Spin Scale       =       0.3333333333333333 [-]
	 SCS Opposite-Spin Scale   =       1.2000000000000000 [-]
	 SCS Same-Spin Energy      =      -0.1391975857725333 [Eh]
	 SCS Opposite-Spin Energy  =      -1.5936519707271946 [Eh]
	 SCS Correlation Energy    =      -1.7328495564997279 [Eh]
	 SCS Total Energy          =    -385.4377239414891960 [Eh]
	-----------------------------------------------------------

  Dipole Moment: [D]
     X:    -1.8564      Y:    -0.2284      Z:    -0.1359     Total:     1.8753

*** Psi4 exiting successfully. Buy a developer a beer!
