                               Psi4 1.4a3.dev225

  ==> Input File <==

--------------------------------------------------------------------------
#psi4
#
memory 32 gb

molecule  {
0 1
  O        2.5396650    -0.5551780     0.7057380
  C        0.3025760    -0.4378200    -0.2720190
  C       -0.0761978     0.9995900    -0.0825783
  C        1.7537560    -0.7902540    -0.4711970
  C       -0.6504930    -1.4595100    -0.1921940
  C       -1.4454780     1.1756780     0.1425470
  C        0.9085990     2.0263450    -0.1815640
  C       -1.9974120    -1.1732570     0.0382800
  C       -2.3931980     0.1517110     0.2151080
  H        1.8374090    -1.8385530    -0.7929100
  H        2.2124050    -0.1698090    -1.2460060
  H       -0.3343640    -2.4925800    -0.3335330
  H       -1.7609160     2.2085530     0.2816270
  H        1.7975830     1.8046110     0.4123870
  H        1.2313290     2.1813940    -1.2178320
  H        0.4699250     2.9630620     0.1727880
  H       -2.7264860    -1.9781040     0.0926730
  H       -3.4380290     0.3918270     0.3981780
  H        2.0803190    -1.0071740     1.4349120
units angstrom
no_reorient  #important for SAPT in psi4, default
symmetry c1  #important for SAPT in psi4, default
}

set PROPERTIES_ORIGIN ["COM"]
properties('MP2/aug-cc-pvtz', properties = ['dipole'])
--------------------------------------------------------------------------

    Molecular point group: c1
  Charge       = 0
  Multiplicity = 1
  Basis Set: AUG-CC-PVTZ
    Blend: AUG-CC-PVTZ
  Basis Set: (AUG-CC-PVTZ AUX)
    Blend: AUG-CC-PVTZ-JKFIT

    Orbital Energies [Eh]
    ---------------------

    Doubly Occupied:

       1A    -20.560661     2A    -11.281974     3A    -11.251748
       4A    -11.246145     5A    -11.239488     6A    -11.238972
       7A    -11.235491     8A    -11.233489     9A    -11.218395
      10A     -1.356968    11A     -1.151668    12A     -1.058702
      13A     -1.031886    14A     -0.950990    15A     -0.906171
      16A     -0.805396    17A     -0.794605    18A     -0.701176
      19A     -0.671807    20A     -0.648097    21A     -0.628101
      22A     -0.605618    23A     -0.582194    24A     -0.580877
      25A     -0.574952    26A     -0.546701    27A     -0.532400
      28A     -0.485849    29A     -0.485301    30A     -0.483439
      31A     -0.440832    32A     -0.339178    33A     -0.315914

  @DF-RHF Final Energy:  -383.74615567308155

   => Energetics <=

    Nuclear Repulsion Energy =            426.0492013406604883
    One-Electron Energy =               -1365.2203440234961818
    Two-Electron Energy =                 555.4249870097540906
    Total Energy =                       -383.7461556730816028
  Basis Set: (AUG-CC-PVTZ AUX)
    Blend: AUG-CC-PVTZ-RI
    Molecular point group: c1

    Geometry (in Angstrom), charge = 0, multiplicity = 1:

       Center              X                  Y                   Z               Mass
    ------------   -----------------  -----------------  -----------------  -----------------
         O            2.549270386448    -0.547880270877     0.698849890719    15.994914619570
         C            0.312181386448    -0.430522270877    -0.278907109281    12.000000000000
         C           -0.066592413552     1.006887729123    -0.089466409281    12.000000000000
         C            1.763361386448    -0.782956270877    -0.478085109281    12.000000000000
         C           -0.640887613552    -1.452212270877    -0.199082109281    12.000000000000
         C           -1.435872613552     1.182975729123     0.135658890719    12.000000000000
         C            0.918204386448     2.033642729123    -0.188452109281    12.000000000000
         C           -1.987806613552    -1.165959270877     0.031391890719    12.000000000000
         C           -2.383592613552     0.159008729123     0.208219890719    12.000000000000
         H            1.847014386448    -1.831255270877    -0.799798109281     1.007825032230
         H            2.222010386448    -0.162511270877    -1.252894109281     1.007825032230
         H           -0.324758613552    -2.485282270877    -0.340421109281     1.007825032230
         H           -1.751310613552     2.215850729123     0.274738890719     1.007825032230
         H            1.807188386448     1.811908729123     0.405498890719     1.007825032230
         H            1.240934386448     2.188691729123    -1.224720109281     1.007825032230
         H            0.479530386448     2.970359729123     0.165899890719     1.007825032230
         H           -2.716880613552    -1.970806270877     0.085784890719     1.007825032230
         H           -3.428423613552     0.399124729123     0.391289890719     1.007825032230
         H            2.089924386448    -0.999876270877     1.428023890719     1.007825032230

  Basis Set: AUG-CC-PVTZ
    Blend: AUG-CC-PVTZ
  Basis Set: (AUG-CC-PVTZ AUX)
    Blend: AUG-CC-PVTZ-JKFIT
	 Reference Energy          =    -383.7461556730815460 [Eh]
	 Singles Energy            =      -0.0000000000000000 [Eh]
	 Same-Spin Energy          =      -0.4141540618574043 [Eh]
	 Opposite-Spin Energy      =      -1.3225292676790006 [Eh]
	 Correlation Energy        =      -1.7366833295364048 [Eh]
	 Total Energy              =    -385.4828390026179363 [Eh]

	 ================> DF-SCS-MP2 Energies <==================
	-----------------------------------------------------------
	 SCS Same-Spin Scale       =       0.3333333333333333 [-]
	 SCS Opposite-Spin Scale   =       1.2000000000000000 [-]
	 SCS Same-Spin Energy      =      -0.1380513539524681 [Eh]
	 SCS Opposite-Spin Energy  =      -1.5870351212148006 [Eh]
	 SCS Correlation Energy    =      -1.7250864751672688 [Eh]
	 SCS Total Energy          =    -385.4712421482487912 [Eh]
	-----------------------------------------------------------

  Dipole Moment: [D]
     X:    -1.1078      Y:    -0.3209      Z:    -0.1209     Total:     1.1597

*** Psi4 exiting successfully. Buy a developer a beer!
