                               Psi4 1.4a3.dev225

  ==> Input File <==

--------------------------------------------------------------------------
#psi4
#
memory 32 gb

molecule  {
0 1
  O        2.5396650    -0.5551780     0.7057380
  C        0.3025760    -0.4378200    -0.2720190
  C       -0.0927650     0.9034730    -0.0869930
  C        1.7537560    -0.7902540    -0.4711970
  C       -0.6504930    -1.4595100    -0.1921940
  C       -1.4454780     1.1756780     0.1425470
  C        0.9085990     2.0263450    -0.1815640
  C       -1.9974120    -1.1732570     0.0382800
  C       -2.3931980     0.1517110     0.2151080
  H        1.8374090    -1.8385530    -0.7929100
  H        2.2543500    -0.1130672    -1.3168649
  H       -0.3343640    -2.4925800    -0.3335330
  H       -1.7609160     2.2085530     0.2816270
  H        1.7975830     1.8046110     0.4123870
  H        1.2313290     2.1813940    -1.2178320
  H        0.4699250     2.9630620     0.1727880
  H       -2.7264860    -1.9781040     0.0926730
  H       -3.4380290     0.3918270     0.3981780
  H        2.0803190    -1.0071740     1.4349120
units angstrom
no_reorient  #important for SAPT in psi4, default
symmetry c1  #important for SAPT in psi4, default
}

set PROPERTIES_ORIGIN ["COM"]
properties('MP2/aug-cc-pvtz', properties = ['dipole'])
--------------------------------------------------------------------------

    Molecular point group: c1
  Charge       = 0
  Multiplicity = 1
  Basis Set: AUG-CC-PVTZ
    Blend: AUG-CC-PVTZ
  Basis Set: (AUG-CC-PVTZ AUX)
    Blend: AUG-CC-PVTZ-JKFIT

    Orbital Energies [Eh]
    ---------------------

    Doubly Occupied:

       1A    -20.562510     2A    -11.294509     3A    -11.246198
       4A    -11.240873     5A    -11.239178     6A    -11.239066
       7A    -11.235602     8A    -11.233820     9A    -11.219610
      10A     -1.358303    11A     -1.157916    12A     -1.049132
      13A     -1.032484    14A     -0.942143    15A     -0.903210
      16A     -0.818379    17A     -0.790247    18A     -0.700293
      19A     -0.675200    20A     -0.645132    21A     -0.624645
      22A     -0.601387    23A     -0.585065    24A     -0.572479
      25A     -0.568299    26A     -0.541120    27A     -0.524002
      28A     -0.493302    29A     -0.488417    30A     -0.473123
      31A     -0.448544    32A     -0.337829    33A     -0.325834

  @DF-RHF Final Energy:  -383.75277365674719

   => Energetics <=

    Nuclear Repulsion Energy =            426.4478206701659246
    One-Electron Energy =               -1366.0654931498675069
    Two-Electron Energy =                 555.8648988229543875
    Total Energy =                       -383.7527736567471948
  Basis Set: (AUG-CC-PVTZ AUX)
    Blend: AUG-CC-PVTZ-RI
    Molecular point group: c1

    Geometry (in Angstrom), charge = 0, multiplicity = 1:

       Center              X                  Y                   Z               Mass
    ------------   -----------------  -----------------  -----------------  -----------------
         O            2.550552676287    -0.538900261273     0.699868867930    15.994914619570
         C            0.313463676287    -0.421542261273    -0.277888132070    12.000000000000
         C           -0.081877323713     0.919750738727    -0.092862132070    12.000000000000
         C            1.764643676287    -0.773976261273    -0.477066132070    12.000000000000
         C           -0.639605323713    -1.443232261273    -0.198063132070    12.000000000000
         C           -1.434590323713     1.191955738727     0.136677867930    12.000000000000
         C            0.919486676287     2.042622738727    -0.187433132070    12.000000000000
         C           -1.986524323713    -1.156979261273     0.032410867930    12.000000000000
         C           -2.382310323713     0.167988738727     0.209238867930    12.000000000000
         H            1.848296676287    -1.822275261273    -0.798779132070     1.007825032230
         H            2.265237676287    -0.096789461273    -1.322734032070     1.007825032230
         H           -0.323476323713    -2.476302261273    -0.339402132070     1.007825032230
         H           -1.750028323713     2.224830738727     0.275757867930     1.007825032230
         H            1.808470676287     1.820888738727     0.406517867930     1.007825032230
         H            1.242216676287     2.197671738727    -1.223701132070     1.007825032230
         H            0.480812676287     2.979339738727     0.166918867930     1.007825032230
         H           -2.715598323713    -1.961826261273     0.086803867930     1.007825032230
         H           -3.427141323713     0.408104738727     0.392308867930     1.007825032230
         H            2.091206676287    -0.990896261273     1.429042867930     1.007825032230

  Basis Set: AUG-CC-PVTZ
    Blend: AUG-CC-PVTZ
  Basis Set: (AUG-CC-PVTZ AUX)
    Blend: AUG-CC-PVTZ-JKFIT
	 Reference Energy          =    -383.7527736567471948 [Eh]
	 Singles Energy            =      -0.0000000000000000 [Eh]
	 Same-Spin Energy          =      -0.4133617060068872 [Eh]
	 Opposite-Spin Energy      =      -1.3216673616864627 [Eh]
	 Correlation Energy        =      -1.7350290676933500 [Eh]
	 Total Energy              =    -385.4878027244405416 [Eh]

	 ================> DF-SCS-MP2 Energies <==================
	-----------------------------------------------------------
	 SCS Same-Spin Scale       =       0.3333333333333333 [-]
	 SCS Opposite-Spin Scale   =       1.2000000000000000 [-]
	 SCS Same-Spin Energy      =      -0.1377872353356290 [Eh]
	 SCS Opposite-Spin Energy  =      -1.5860008340237552 [Eh]
	 SCS Correlation Energy    =      -1.7237880693593843 [Eh]
	 SCS Total Energy          =    -385.4765617261065813 [Eh]
	-----------------------------------------------------------

  Dipole Moment: [D]
     X:    -1.2352      Y:    -0.4165      Z:    -0.0524     Total:     1.3045

*** Psi4 exiting successfully. Buy a developer a beer!
