                               Psi4 1.4a3.dev225

  ==> Input File <==

--------------------------------------------------------------------------
#psi4
#
memory 32 gb

molecule  {
0 1
  O        2.5396650    -0.5551780     0.7057380
  C        0.3025760    -0.4378200    -0.2720190
  C       -0.0927650     0.9034730    -0.0869930
  C        1.7537560    -0.7902540    -0.4711970
  C       -0.6504930    -1.4595100    -0.1921940
  C       -1.4454780     1.1756780     0.1425470
  C        0.9085990     2.0263450    -0.1815640
  C       -1.9974120    -1.1732570     0.0382800
  C       -2.3931980     0.1517110     0.2151080
  H        1.8374090    -1.8385530    -0.7929100
  H        2.2124050    -0.1698090    -1.2460060
  H       -0.3343640    -2.4925800    -0.3335330
  H       -1.7609160     2.2085530     0.2816270
  H        1.8138663     1.8005495     0.4232663
  H        1.2313290     2.1813940    -1.2178320
  H        0.4699250     2.9630620     0.1727880
  H       -2.7264860    -1.9781040     0.0926730
  H       -3.4380290     0.3918270     0.3981780
  H        2.0803190    -1.0071740     1.4349120
units angstrom
no_reorient  #important for SAPT in psi4, default
symmetry c1  #important for SAPT in psi4, default
}

set PROPERTIES_ORIGIN ["COM"]
properties('MP2/aug-cc-pvtz', properties = ['dipole'])
--------------------------------------------------------------------------

    Molecular point group: c1
  Charge       = 0
  Multiplicity = 1
  Basis Set: AUG-CC-PVTZ
    Blend: AUG-CC-PVTZ
  Basis Set: (AUG-CC-PVTZ AUX)
    Blend: AUG-CC-PVTZ-JKFIT

    Orbital Energies [Eh]
    ---------------------

    Doubly Occupied:

       1A    -20.560887     2A    -11.282745     3A    -11.245996
       4A    -11.240171     5A    -11.238815     6A    -11.238187
       7A    -11.235244     8A    -11.233673     9A    -11.222005
      10A     -1.357309    11A     -1.157588    12A     -1.049013
      13A     -1.032645    14A     -0.942756    15A     -0.908106
      16A     -0.818286    17A     -0.792104    18A     -0.700890
      19A     -0.674737    20A     -0.644525    21A     -0.625319
      22A     -0.605141    23A     -0.586777    24A     -0.573052
      25A     -0.566411    26A     -0.542972    27A     -0.525502
      28A     -0.494238    29A     -0.487813    30A     -0.478258
      31A     -0.447225    32A     -0.337606    33A     -0.325618

  @DF-RHF Final Energy:  -383.75901903701219

   => Energetics <=

    Nuclear Repulsion Energy =            426.8325997197645165
    One-Electron Energy =               -1366.8400168475732244
    Two-Electron Energy =                 556.2483980907965133
    Total Energy =                       -383.7590190370121945
  Basis Set: (AUG-CC-PVTZ AUX)
    Blend: AUG-CC-PVTZ-RI
    Molecular point group: c1

    Geometry (in Angstrom), charge = 0, multiplicity = 1:

       Center              X                  Y                   Z               Mass
    ------------   -----------------  -----------------  -----------------  -----------------
         O            2.550764536966    -0.538398274716     0.699194044728    15.994914619570
         C            0.313675536966    -0.421040274716    -0.278562955272    12.000000000000
         C           -0.081665463034     0.920252725284    -0.093536955272    12.000000000000
         C            1.764855536966    -0.773474274716    -0.477740955272    12.000000000000
         C           -0.639393463034    -1.442730274716    -0.198737955272    12.000000000000
         C           -1.434378463034     1.192457725284     0.136003044728    12.000000000000
         C            0.919698536966     2.043124725284    -0.188107955272    12.000000000000
         C           -1.986312463034    -1.156477274716     0.031736044728    12.000000000000
         C           -2.382098463034     0.168490725284     0.208564044728    12.000000000000
         H            1.848508536966    -1.821773274716    -0.799453955272     1.007825032230
         H            2.223504536966    -0.153029274716    -1.252549955272     1.007825032230
         H           -0.323264463034    -2.475800274716    -0.340076955272     1.007825032230
         H           -1.749816463034     2.225332725284     0.275083044728     1.007825032230
         H            1.824965836966     1.817329225284     0.416722344728     1.007825032230
         H            1.242428536966     2.198173725284    -1.224375955272     1.007825032230
         H            0.481024536966     2.979841725284     0.166244044728     1.007825032230
         H           -2.715386463034    -1.961324274716     0.086129044728     1.007825032230
         H           -3.426929463034     0.408606725284     0.391634044728     1.007825032230
         H            2.091418536966    -0.990394274716     1.428368044728     1.007825032230

  Basis Set: AUG-CC-PVTZ
    Blend: AUG-CC-PVTZ
  Basis Set: (AUG-CC-PVTZ AUX)
    Blend: AUG-CC-PVTZ-JKFIT
	 Reference Energy          =    -383.7590190370121945 [Eh]
	 Singles Energy            =      -0.0000000000000000 [Eh]
	 Same-Spin Energy          =      -0.4132134967211996 [Eh]
	 Opposite-Spin Energy      =      -1.3209296518239120 [Eh]
	 Correlation Energy        =      -1.7341431485451115 [Eh]
	 Total Energy              =    -385.4931621855573098 [Eh]

	 ================> DF-SCS-MP2 Energies <==================
	-----------------------------------------------------------
	 SCS Same-Spin Scale       =       0.3333333333333333 [-]
	 SCS Opposite-Spin Scale   =       1.2000000000000000 [-]
	 SCS Same-Spin Energy      =      -0.1377378322403998 [Eh]
	 SCS Opposite-Spin Energy  =      -1.5851155821886944 [Eh]
	 SCS Correlation Energy    =      -1.7228534144290943 [Eh]
	 SCS Total Energy          =    -385.4818724514412907 [Eh]
	-----------------------------------------------------------

  Dipole Moment: [D]
     X:    -1.2052      Y:    -0.4057      Z:    -0.1029     Total:     1.2759

*** Psi4 exiting successfully. Buy a developer a beer!
