                               Psi4 1.4a3.dev225

  ==> Input File <==

--------------------------------------------------------------------------
#psi4
#
memory 32 gb

molecule  {
0 1
  O        2.5396650    -0.5551780     0.7057380
  C        0.3025760    -0.4378200    -0.2720190
  C       -0.0927650     0.9034730    -0.0869930
  C        1.7647125    -0.7869768    -0.4547892
  C       -0.6504930    -1.4595100    -0.1921940
  C       -1.4454780     1.1756780     0.1425470
  C        0.9085990     2.0263450    -0.1815640
  C       -1.9974120    -1.1732570     0.0382800
  C       -2.3931980     0.1517110     0.2151080
  H        1.8374090    -1.8385530    -0.7929100
  H        2.2124050    -0.1698090    -1.2460060
  H       -0.3343640    -2.4925800    -0.3335330
  H       -1.7609160     2.2085530     0.2816270
  H        1.7975830     1.8046110     0.4123870
  H        1.2313290     2.1813940    -1.2178320
  H        0.4699250     2.9630620     0.1727880
  H       -2.7264860    -1.9781040     0.0926730
  H       -3.4380290     0.3918270     0.3981780
  H        2.0803190    -1.0071740     1.4349120
units angstrom
no_reorient  #important for SAPT in psi4, default
symmetry c1  #important for SAPT in psi4, default
}

set PROPERTIES_ORIGIN ["COM"]
properties('MP2/aug-cc-pvtz', properties = ['dipole'])
--------------------------------------------------------------------------

    Molecular point group: c1
  Charge       = 0
  Multiplicity = 1
  Basis Set: AUG-CC-PVTZ
    Blend: AUG-CC-PVTZ
  Basis Set: (AUG-CC-PVTZ AUX)
    Blend: AUG-CC-PVTZ-JKFIT

    Orbital Energies [Eh]
    ---------------------

    Doubly Occupied:

       1A    -20.563033     2A    -11.283208     3A    -11.245393
       4A    -11.239775     5A    -11.238408     6A    -11.237856
       7A    -11.234933     8A    -11.233270     9A    -11.219800
      10A     -1.365424    11A     -1.157004    12A     -1.048793
      13A     -1.031447    14A     -0.942859    15A     -0.907842
      16A     -0.817758    17A     -0.792519    18A     -0.703133
      19A     -0.674809    20A     -0.645254    21A     -0.626006
      22A     -0.608840    23A     -0.588012    24A     -0.572767
      25A     -0.568980    26A     -0.543009    27A     -0.525855
      28A     -0.493549    29A     -0.488270    30A     -0.476847
      31A     -0.445252    32A     -0.337302    33A     -0.325450

  @DF-RHF Final Energy:  -383.75956463827004

   => Energetics <=

    Nuclear Repulsion Energy =            427.0103876661441404
    One-Electron Energy =               -1367.1745976569409322
    Two-Electron Energy =                 556.4046453525266998
    Total Energy =                       -383.7595646382700352
  Basis Set: (AUG-CC-PVTZ AUX)
    Blend: AUG-CC-PVTZ-RI
    Molecular point group: c1

    Geometry (in Angstrom), charge = 0, multiplicity = 1:

       Center              X                  Y                   Z               Mass
    ------------   -----------------  -----------------  -----------------  -----------------
         O            2.549821927813    -0.538753960435     0.697670948565    15.994914619570
         C            0.312732927813    -0.421395960435    -0.280086051435    12.000000000000
         C           -0.082608072187     0.919897039565    -0.095060051435    12.000000000000
         C            1.774869427813    -0.770552760435    -0.462856251435    12.000000000000
         C           -0.640336072187    -1.443085960435    -0.200261051435    12.000000000000
         C           -1.435321072187     1.192102039565     0.134479948565    12.000000000000
         C            0.918755927813     2.042769039565    -0.189631051435    12.000000000000
         C           -1.987255072187    -1.156832960435     0.030212948565    12.000000000000
         C           -2.383041072187     0.168135039565     0.207040948565    12.000000000000
         H            1.847565927813    -1.822128960435    -0.800977051435     1.007825032230
         H            2.222561927813    -0.153384960435    -1.254073051435     1.007825032230
         H           -0.324207072187    -2.476155960435    -0.341600051435     1.007825032230
         H           -1.750759072187     2.224977039565     0.273559948565     1.007825032230
         H            1.807739927813     1.821035039565     0.404319948565     1.007825032230
         H            1.241485927813     2.197818039565    -1.225899051435     1.007825032230
         H            0.480081927813     2.979486039565     0.164720948565     1.007825032230
         H           -2.716329072187    -1.961679960435     0.084605948565     1.007825032230
         H           -3.427872072187     0.408251039565     0.390110948565     1.007825032230
         H            2.090475927813    -0.990749960435     1.426844948565     1.007825032230

  Basis Set: AUG-CC-PVTZ
    Blend: AUG-CC-PVTZ
  Basis Set: (AUG-CC-PVTZ AUX)
    Blend: AUG-CC-PVTZ-JKFIT
	 Reference Energy          =    -383.7595646382700352 [Eh]
	 Singles Energy            =      -0.0000000000000000 [Eh]
	 Same-Spin Energy          =      -0.4131244541063718 [Eh]
	 Opposite-Spin Energy      =      -1.3204533389173778 [Eh]
	 Correlation Energy        =      -1.7335777930237497 [Eh]
	 Total Energy              =    -385.4931424312937907 [Eh]

	 ================> DF-SCS-MP2 Energies <==================
	-----------------------------------------------------------
	 SCS Same-Spin Scale       =       0.3333333333333333 [-]
	 SCS Opposite-Spin Scale   =       1.2000000000000000 [-]
	 SCS Same-Spin Energy      =      -0.1377081513687906 [Eh]
	 SCS Opposite-Spin Energy  =      -1.5845440067008534 [Eh]
	 SCS Correlation Energy    =      -1.7222521580696439 [Eh]
	 SCS Total Energy          =    -385.4818167963396718 [Eh]
	-----------------------------------------------------------

  Dipole Moment: [D]
     X:    -1.1516      Y:    -0.3943      Z:    -0.0439     Total:     1.2180

*** Psi4 exiting successfully. Buy a developer a beer!
