                               Psi4 1.4a3.dev225

  ==> Input File <==

--------------------------------------------------------------------------
#psi4
#
memory 32 gb

molecule  {
0 1
  O        2.5396650    -0.5551780     0.7057380
  C        0.3025760    -0.4378200    -0.2720190
  C       -0.0979404     0.8796328    -0.0879227
  C        1.7537560    -0.7902540    -0.4711970
  C       -0.6504930    -1.4595100    -0.1921940
  C       -1.4454780     1.1756780     0.1425470
  C        0.9085990     2.0263450    -0.1815640
  C       -1.9974120    -1.1732570     0.0382800
  C       -2.3931980     0.1517110     0.2151080
  H        1.8374090    -1.8385530    -0.7929100
  H        2.2124050    -0.1698090    -1.2460060
  H       -0.3343640    -2.4925800    -0.3335330
  H       -1.7609160     2.2085530     0.2816270
  H        1.7975830     1.8046110     0.4123870
  H        1.2313290     2.1813940    -1.2178320
  H        0.4699250     2.9630620     0.1727880
  H       -2.7264860    -1.9781040     0.0926730
  H       -3.4380290     0.3918270     0.3981780
  H        2.0803190    -1.0071740     1.4349120
units angstrom
no_reorient  #important for SAPT in psi4, default
symmetry c1  #important for SAPT in psi4, default
}

set PROPERTIES_ORIGIN ["COM"]
properties('MP2/aug-cc-pvtz', properties = ['dipole'])
--------------------------------------------------------------------------

    Molecular point group: c1
  Charge       = 0
  Multiplicity = 1
  Basis Set: AUG-CC-PVTZ
    Blend: AUG-CC-PVTZ
  Basis Set: (AUG-CC-PVTZ AUX)
    Blend: AUG-CC-PVTZ-JKFIT

    Orbital Energies [Eh]
    ---------------------

    Doubly Occupied:

       1A    -20.561002     2A    -11.282998     3A    -11.244401
       4A    -11.240131     5A    -11.238729     6A    -11.236074
       7A    -11.235111     8A    -11.233712     9A    -11.220130
      10A     -1.357416    11A     -1.159487    12A     -1.048448
      13A     -1.032073    14A     -0.941699    15A     -0.909277
      16A     -0.821465    17A     -0.791842    18A     -0.701045
      19A     -0.675556    20A     -0.644003    21A     -0.624797
      22A     -0.605350    23A     -0.588654    24A     -0.571281
      25A     -0.566871    26A     -0.542442    27A     -0.525248
      28A     -0.495884    29A     -0.489451    30A     -0.475266
      31A     -0.448132    32A     -0.337500    33A     -0.327951

  @DF-RHF Final Energy:  -383.75940688129992

   => Energetics <=

    Nuclear Repulsion Energy =            427.1394211685131950
    One-Electron Energy =               -1367.4508008271363906
    Two-Electron Energy =                 556.5519727773232717
    Total Energy =                       -383.7594068812999240
  Basis Set: (AUG-CC-PVTZ AUX)
    Blend: AUG-CC-PVTZ-RI
    Molecular point group: c1

    Geometry (in Angstrom), charge = 0, multiplicity = 1:

       Center              X                  Y                   Z               Mass
    ------------   -----------------  -----------------  -----------------  -----------------
         O            2.551407721055    -0.536088273835     0.699375254340    15.994914619570
         C            0.314318721055    -0.418730273835    -0.278381745660    12.000000000000
         C           -0.086197678945     0.898722526165    -0.094285445660    12.000000000000
         C            1.765498721055    -0.771164273835    -0.477559745660    12.000000000000
         C           -0.638750278945    -1.440420273835    -0.198556745660    12.000000000000
         C           -1.433735278945     1.194767726165     0.136184254340    12.000000000000
         C            0.920341721055     2.045434726165    -0.187926745660    12.000000000000
         C           -1.985669278945    -1.154167273835     0.031917254340    12.000000000000
         C           -2.381455278945     0.170800726165     0.208745254340    12.000000000000
         H            1.849151721055    -1.819463273835    -0.799272745660     1.007825032230
         H            2.224147721055    -0.150719273835    -1.252368745660     1.007825032230
         H           -0.322621278945    -2.473490273835    -0.339895745660     1.007825032230
         H           -1.749173278945     2.227642726165     0.275264254340     1.007825032230
         H            1.809325721055     1.823700726165     0.406024254340     1.007825032230
         H            1.243071721055     2.200483726165    -1.224194745660     1.007825032230
         H            0.481667721055     2.982151726165     0.166425254340     1.007825032230
         H           -2.714743278945    -1.959014273835     0.086310254340     1.007825032230
         H           -3.426286278945     0.410916726165     0.391815254340     1.007825032230
         H            2.092061721055    -0.988084273835     1.428549254340     1.007825032230

  Basis Set: AUG-CC-PVTZ
    Blend: AUG-CC-PVTZ
  Basis Set: (AUG-CC-PVTZ AUX)
    Blend: AUG-CC-PVTZ-JKFIT
	 Reference Energy          =    -383.7594068812999240 [Eh]
	 Singles Energy            =      -0.0000000000000000 [Eh]
	 Same-Spin Energy          =      -0.4130164437415641 [Eh]
	 Opposite-Spin Energy      =      -1.3205566092316512 [Eh]
	 Correlation Energy        =      -1.7335730529732154 [Eh]
	 Total Energy              =    -385.4929799342731371 [Eh]

	 ================> DF-SCS-MP2 Energies <==================
	-----------------------------------------------------------
	 SCS Same-Spin Scale       =       0.3333333333333333 [-]
	 SCS Opposite-Spin Scale   =       1.2000000000000000 [-]
	 SCS Same-Spin Energy      =      -0.1376721479138547 [Eh]
	 SCS Opposite-Spin Energy  =      -1.5846679310779814 [Eh]
	 SCS Correlation Energy    =      -1.7223400789918362 [Eh]
	 SCS Total Energy          =    -385.4817469602917868 [Eh]
	-----------------------------------------------------------

  Dipole Moment: [D]
     X:    -1.2237      Y:    -0.4204      Z:    -0.0976     Total:     1.2976

*** Psi4 exiting successfully. Buy a developer a beer!
