                               Psi4 1.4a3.dev225

  ==> Input File <==

--------------------------------------------------------------------------
#psi4
#
memory 32 gb

molecule  {
0 1
  O        2.5396650    -0.5551780     0.7057380
  C        0.3025760    -0.4378200    -0.2720190
  C       -0.0927650     0.9034730    -0.0869930
  C        1.7055948    -0.7785576    -0.4645868
  C       -0.6504930    -1.4595100    -0.1921940
  C       -1.4454780     1.1756780     0.1425470
  C        0.9085990     2.0263450    -0.1815640
  C       -1.9974120    -1.1732570     0.0382800
  C       -2.3931980     0.1517110     0.2151080
  H        1.8374090    -1.8385530    -0.7929100
  H        2.2124050    -0.1698090    -1.2460060
  H       -0.3343640    -2.4925800    -0.3335330
  H       -1.7609160     2.2085530     0.2816270
  H        1.7975830     1.8046110     0.4123870
  H        1.2313290     2.1813940    -1.2178320
  H        0.4699250     2.9630620     0.1727880
  H       -2.7264860    -1.9781040     0.0926730
  H       -3.4380290     0.3918270     0.3981780
  H        2.0803190    -1.0071740     1.4349120
units angstrom
no_reorient  #important for SAPT in psi4, default
symmetry c1  #important for SAPT in psi4, default
}

set PROPERTIES_ORIGIN ["COM"]
properties('MP2/aug-cc-pvtz', properties = ['dipole'])
--------------------------------------------------------------------------

    Molecular point group: c1
  Charge       = 0
  Multiplicity = 1
  Basis Set: AUG-CC-PVTZ
    Blend: AUG-CC-PVTZ
  Basis Set: (AUG-CC-PVTZ AUX)
    Blend: AUG-CC-PVTZ-JKFIT

    Orbital Energies [Eh]
    ---------------------

    Doubly Occupied:

       1A    -20.559191     2A    -11.282797     3A    -11.247400
       4A    -11.241541     5A    -11.240387     6A    -11.236640
       7A    -11.236076     8A    -11.234495     9A    -11.220359
      10A     -1.350437    11A     -1.160453    12A     -1.052649
      13A     -1.037162    14A     -0.945610    15A     -0.907593
      16A     -0.819536    17A     -0.792430    18A     -0.701455
      19A     -0.673170    20A     -0.647192    21A     -0.623630
      22A     -0.602179    23A     -0.584516    24A     -0.573727
      25A     -0.567462    26A     -0.543206    27A     -0.527166
      28A     -0.495475    29A     -0.488468    30A     -0.477911
      31A     -0.449480    32A     -0.338582    33A     -0.326714

  @DF-RHF Final Energy:  -383.75565924645019

   => Energetics <=

    Nuclear Repulsion Energy =            427.5498964649799518
    One-Electron Energy =               -1368.2409309418681005
    Two-Electron Energy =                 556.9353752304378986
    Total Energy =                       -383.7556592464502501
  Basis Set: (AUG-CC-PVTZ AUX)
    Blend: AUG-CC-PVTZ-RI
    Molecular point group: c1

    Geometry (in Angstrom), charge = 0, multiplicity = 1:

       Center              X                  Y                   Z               Mass
    ------------   -----------------  -----------------  -----------------  -----------------
         O            2.555633298398    -0.539581582132     0.698634069330    15.994914619570
         C            0.318544298398    -0.422223582132    -0.279122930670    12.000000000000
         C           -0.076796701602     0.919069417868    -0.094096930670    12.000000000000
         C            1.721563098398    -0.762961182132    -0.471690730670    12.000000000000
         C           -0.634524701602    -1.443913582132    -0.199297930670    12.000000000000
         C           -1.429509701602     1.191274417868     0.135443069330    12.000000000000
         C            0.924567298398     2.041941417868    -0.188667930670    12.000000000000
         C           -1.981443701602    -1.157660582132     0.031176069330    12.000000000000
         C           -2.377229701602     0.167307417868     0.208004069330    12.000000000000
         H            1.853377298398    -1.822956582132    -0.800013930670     1.007825032230
         H            2.228373298398    -0.154212582132    -1.253109930670     1.007825032230
         H           -0.318395701602    -2.476983582132    -0.340636930670     1.007825032230
         H           -1.744947701602     2.224149417868     0.274523069330     1.007825032230
         H            1.813551298398     1.820207417868     0.405283069330     1.007825032230
         H            1.247297298398     2.196990417868    -1.224935930670     1.007825032230
         H            0.485893298398     2.978658417868     0.165684069330     1.007825032230
         H           -2.710517701602    -1.962507582132     0.085569069330     1.007825032230
         H           -3.422060701602     0.407423417868     0.391074069330     1.007825032230
         H            2.096287298398    -0.991577582132     1.427808069330     1.007825032230

  Basis Set: AUG-CC-PVTZ
    Blend: AUG-CC-PVTZ
  Basis Set: (AUG-CC-PVTZ AUX)
    Blend: AUG-CC-PVTZ-JKFIT
	 Reference Energy          =    -383.7556592464501932 [Eh]
	 Singles Energy            =      -0.0000000000000000 [Eh]
	 Same-Spin Energy          =      -0.4138549850588599 [Eh]
	 Opposite-Spin Energy      =      -1.3218806218566803 [Eh]
	 Correlation Energy        =      -1.7357356069155403 [Eh]
	 Total Energy              =    -385.4913948533657617 [Eh]

	 ================> DF-SCS-MP2 Energies <==================
	-----------------------------------------------------------
	 SCS Same-Spin Scale       =       0.3333333333333333 [-]
	 SCS Opposite-Spin Scale   =       1.2000000000000000 [-]
	 SCS Same-Spin Energy      =      -0.1379516616862866 [Eh]
	 SCS Opposite-Spin Energy  =      -1.5862567462280164 [Eh]
	 SCS Correlation Energy    =      -1.7242084079143030 [Eh]
	 SCS Total Energy          =    -385.4798676543645115 [Eh]
	-----------------------------------------------------------

  Dipole Moment: [D]
     X:    -1.3492      Y:    -0.3628      Z:    -0.1165     Total:     1.4020

*** Psi4 exiting successfully. Buy a developer a beer!
