                               Psi4 1.4a3.dev225

  ==> Input File <==

--------------------------------------------------------------------------
#psi4
#
memory 32 gb

molecule  {
0 1
  O        2.5396650    -0.5551780     0.7057380
  C        0.3025760    -0.4378200    -0.2720190
  C       -0.0927650     0.9034730    -0.0869930
  C        1.7537560    -0.7902540    -0.4711970
  C       -0.6504930    -1.4595100    -0.1921940
  C       -1.4454780     1.1756780     0.1425470
  C        0.9085990     2.0263450    -0.1815640
  C       -1.9974120    -1.1732570     0.0382800
  C       -2.3931980     0.1517110     0.2151080
  H        1.8374090    -1.8385530    -0.7929100
  H        2.2124050    -0.1698090    -1.2460060
  H       -0.3343640    -2.4925800    -0.3335330
  H       -1.7609160     2.2085530     0.2816270
  H        1.6347499     1.8452255     0.3035944
  H        1.2313290     2.1813940    -1.2178320
  H        0.4699250     2.9630620     0.1727880
  H       -2.7264860    -1.9781040     0.0926730
  H       -3.4380290     0.3918270     0.3981780
  H        2.0803190    -1.0071740     1.4349120
units angstrom
no_reorient  #important for SAPT in psi4, default
symmetry c1  #important for SAPT in psi4, default
}

set PROPERTIES_ORIGIN ["COM"]
properties('MP2/aug-cc-pvtz', properties = ['dipole'])
--------------------------------------------------------------------------

    Molecular point group: c1
  Charge       = 0
  Multiplicity = 1
  Basis Set: AUG-CC-PVTZ
    Blend: AUG-CC-PVTZ
  Basis Set: (AUG-CC-PVTZ AUX)
    Blend: AUG-CC-PVTZ-JKFIT

    Orbital Energies [Eh]
    ---------------------

    Doubly Occupied:

       1A    -20.561085     2A    -11.282916     3A    -11.244993
       4A    -11.239973     5A    -11.238418     6A    -11.238039
       7A    -11.234947     8A    -11.232982     9A    -11.197276
      10A     -1.357285    11A     -1.157948    12A     -1.055375
      13A     -1.033361    14A     -0.958012    15A     -0.913067
      16A     -0.818585    17A     -0.796741    18A     -0.702893
      19A     -0.674380    20A     -0.648819    21A     -0.625007
      22A     -0.608869    23A     -0.595359    24A     -0.586242
      25A     -0.572330    26A     -0.546031    27A     -0.529695
      28A     -0.493758    29A     -0.490264    30A     -0.478051
      31A     -0.448980    32A     -0.337275    33A     -0.326270

  @DF-RHF Final Energy:  -383.72547975934185

   => Energetics <=

    Nuclear Repulsion Energy =            427.7927072876899501
    One-Electron Energy =               -1368.5859140153518183
    Two-Electron Energy =                 557.0677269683200166
    Total Energy =                       -383.7254797593418516
  Basis Set: (AUG-CC-PVTZ AUX)
    Blend: AUG-CC-PVTZ-RI
    Molecular point group: c1

    Geometry (in Angstrom), charge = 0, multiplicity = 1:

       Center              X                  Y                   Z               Mass
    ------------   -----------------  -----------------  -----------------  -----------------
         O            2.552243305799    -0.538767115740     0.700182045134    15.994914619570
         C            0.315154305799    -0.421409115740    -0.277574954866    12.000000000000
         C           -0.080186694201     0.919883884260    -0.092548954866    12.000000000000
         C            1.766334305799    -0.773843115740    -0.476752954866    12.000000000000
         C           -0.637914694201    -1.443099115740    -0.197749954866    12.000000000000
         C           -1.432899694201     1.192088884260     0.136991045134    12.000000000000
         C            0.921177305799     2.042755884260    -0.187119954866    12.000000000000
         C           -1.984833694201    -1.156846115740     0.032724045134    12.000000000000
         C           -2.380619694201     0.168121884260     0.209552045134    12.000000000000
         H            1.849987305799    -1.822142115740    -0.798465954866     1.007825032230
         H            2.224983305799    -0.153398115740    -1.251561954866     1.007825032230
         H           -0.321785694201    -2.476169115740    -0.339088954866     1.007825032230
         H           -1.748337694201     2.224963884260     0.276071045134     1.007825032230
         H            1.647328205799     1.861636384260     0.298038445134     1.007825032230
         H            1.243907305799     2.197804884260    -1.223387954866     1.007825032230
         H            0.482503305799     2.979472884260     0.167232045134     1.007825032230
         H           -2.713907694201    -1.961693115740     0.087117045134     1.007825032230
         H           -3.425450694201     0.408237884260     0.392622045134     1.007825032230
         H            2.092897305799    -0.990763115740     1.429356045134     1.007825032230

  Basis Set: AUG-CC-PVTZ
    Blend: AUG-CC-PVTZ
  Basis Set: (AUG-CC-PVTZ AUX)
    Blend: AUG-CC-PVTZ-JKFIT
	 Reference Energy          =    -383.7254797593418516 [Eh]
	 Singles Energy            =      -0.0000000000000000 [Eh]
	 Same-Spin Energy          =      -0.4130093291533174 [Eh]
	 Opposite-Spin Energy      =      -1.3199387041909398 [Eh]
	 Correlation Energy        =      -1.7329480333442573 [Eh]
	 Total Energy              =    -385.4584277926861091 [Eh]

	 ================> DF-SCS-MP2 Energies <==================
	-----------------------------------------------------------
	 SCS Same-Spin Scale       =       0.3333333333333333 [-]
	 SCS Opposite-Spin Scale   =       1.2000000000000000 [-]
	 SCS Same-Spin Energy      =      -0.1376697763844391 [Eh]
	 SCS Opposite-Spin Energy  =      -1.5839264450291277 [Eh]
	 SCS Correlation Energy    =      -1.7215962214135669 [Eh]
	 SCS Total Energy          =    -385.4470759807554145 [Eh]
	-----------------------------------------------------------

  Dipole Moment: [D]
     X:    -1.1850      Y:    -0.3637      Z:    -0.1031     Total:     1.2439

*** Psi4 exiting successfully. Buy a developer a beer!
