                               Psi4 1.4a3.dev225

  ==> Input File <==

--------------------------------------------------------------------------
#psi4
#
memory 32 gb

molecule  {
0 1
  O        2.5396650    -0.5551780     0.7057380
  C        0.3025760    -0.4378200    -0.2720190
  C       -0.0927650     0.9034730    -0.0869930
  C        1.7537560    -0.7902540    -0.4711970
  C       -0.6504930    -1.4595100    -0.1921940
  C       -1.4454780     1.1756780     0.1425470
  C        0.9085990     2.0263450    -0.1815640
  C       -1.9974120    -1.1732570     0.0382800
  C       -2.3931980     0.1517110     0.2151080
  H        1.8374090    -1.8385530    -0.7929100
  H        2.2124050    -0.1698090    -1.2460060
  H       -0.3343640    -2.4925800    -0.3335330
  H       -1.7609160     2.2085530     0.2816270
  H        1.9604161     1.7639965     0.5211796
  H        1.2313290     2.1813940    -1.2178320
  H        0.4699250     2.9630620     0.1727880
  H       -2.7264860    -1.9781040     0.0926730
  H       -3.4380290     0.3918270     0.3981780
  H        2.0803190    -1.0071740     1.4349120
units angstrom
no_reorient  #important for SAPT in psi4, default
symmetry c1  #important for SAPT in psi4, default
}

set PROPERTIES_ORIGIN ["COM"]
properties('MP2/aug-cc-pvtz', properties = ['dipole'])
--------------------------------------------------------------------------

    Molecular point group: c1
  Charge       = 0
  Multiplicity = 1
  Basis Set: AUG-CC-PVTZ
    Blend: AUG-CC-PVTZ
  Basis Set: (AUG-CC-PVTZ AUX)
    Blend: AUG-CC-PVTZ-JKFIT

    Orbital Energies [Eh]
    ---------------------

    Doubly Occupied:

       1A    -20.560660     2A    -11.282675     3A    -11.247310
       4A    -11.240607     5A    -11.239701     6A    -11.239449
       7A    -11.238716     8A    -11.235929     9A    -11.234796
      10A     -1.357292    11A     -1.158002    12A     -1.047525
      13A     -1.032804    14A     -0.937746    15A     -0.904553
      16A     -0.818675    17A     -0.790072    18A     -0.700306
      19A     -0.675241    20A     -0.643582    21A     -0.625920
      22A     -0.604865    23A     -0.587431    24A     -0.573944
      25A     -0.556242    26A     -0.538344    27A     -0.514015
      28A     -0.494971    29A     -0.482697    30A     -0.477644
      31A     -0.443161    32A     -0.338160    33A     -0.325102

  @DF-RHF Final Energy:  -383.73865301892693

   => Energetics <=

    Nuclear Repulsion Energy =            426.2308059531771960
    One-Electron Energy =               -1365.6426444703070047
    Two-Electron Energy =                 555.6731854982028835
    Total Energy =                       -383.7386530189269251
  Basis Set: (AUG-CC-PVTZ AUX)
    Blend: AUG-CC-PVTZ-RI
    Molecular point group: c1

    Geometry (in Angstrom), charge = 0, multiplicity = 1:

       Center              X                  Y                   Z               Mass
    ------------   -----------------  -----------------  -----------------  -----------------
         O            2.549554635044    -0.538096496447     0.698385681361    15.994914619570
         C            0.312465635044    -0.420738496447    -0.279371318639    12.000000000000
         C           -0.082875364956     0.920554503553    -0.094345318639    12.000000000000
         C            1.763645635044    -0.773172496447    -0.478549318639    12.000000000000
         C           -0.640603364956    -1.442428496447    -0.199546318639    12.000000000000
         C           -1.435588364956     1.192759503553     0.135194681361    12.000000000000
         C            0.918488635044     2.043426503553    -0.188916318639    12.000000000000
         C           -1.987522364956    -1.156175496447     0.030927681361    12.000000000000
         C           -2.383308364956     0.168792503553     0.207755681361    12.000000000000
         H            1.847298635044    -1.821471496447    -0.800262318639     1.007825032230
         H            2.222294635044    -0.152727496447    -1.253358318639     1.007825032230
         H           -0.324474364956    -2.475498496447    -0.340885318639     1.007825032230
         H           -1.751026364956     2.225634503553     0.274274681361     1.007825032230
         H            1.970305735044     1.781078003553     0.513827281361     1.007825032230
         H            1.241218635044     2.198475503553    -1.225184318639     1.007825032230
         H            0.479814635044     2.980143503553     0.165435681361     1.007825032230
         H           -2.716596364956    -1.961022496447     0.085320681361     1.007825032230
         H           -3.428139364956     0.408908503553     0.390825681361     1.007825032230
         H            2.090208635044    -0.990092496447     1.427559681361     1.007825032230

  Basis Set: AUG-CC-PVTZ
    Blend: AUG-CC-PVTZ
  Basis Set: (AUG-CC-PVTZ AUX)
    Blend: AUG-CC-PVTZ-JKFIT
	 Reference Energy          =    -383.7386530189269251 [Eh]
	 Singles Energy            =      -0.0000000000000000 [Eh]
	 Same-Spin Energy          =      -0.4135847545161484 [Eh]
	 Opposite-Spin Energy      =      -1.3227321333356310 [Eh]
	 Correlation Energy        =      -1.7363168878517794 [Eh]
	 Total Energy              =    -385.4749699067787105 [Eh]

	 ================> DF-SCS-MP2 Energies <==================
	-----------------------------------------------------------
	 SCS Same-Spin Scale       =       0.3333333333333333 [-]
	 SCS Opposite-Spin Scale   =       1.2000000000000000 [-]
	 SCS Same-Spin Energy      =      -0.1378615848387161 [Eh]
	 SCS Opposite-Spin Energy  =      -1.5872785600027572 [Eh]
	 SCS Correlation Energy    =      -1.7251401448414734 [Eh]
	 SCS Total Energy          =    -385.4637931637684005 [Eh]
	-----------------------------------------------------------

  Dipole Moment: [D]
     X:    -1.2549      Y:    -0.4662      Z:    -0.1159     Total:     1.3437

*** Psi4 exiting successfully. Buy a developer a beer!
