                               Psi4 1.4a3.dev225

  ==> Input File <==

--------------------------------------------------------------------------
#psi4
#
memory 32 gb

molecule  {
0 1
  O        2.5396650    -0.5551780     0.7057380
  C        0.3025760    -0.4378200    -0.2720190
  C       -0.0927650     0.9034730    -0.0869930
  C        1.7537560    -0.7902540    -0.4711970
  C       -0.6894266    -1.6002194    -0.1986317
  C       -1.4454780     1.1756780     0.1425470
  C        0.9085990     2.0263450    -0.1815640
  C       -1.9974120    -1.1732570     0.0382800
  C       -2.3931980     0.1517110     0.2151080
  H        1.8374090    -1.8385530    -0.7929100
  H        2.2124050    -0.1698090    -1.2460060
  H       -0.3343640    -2.4925800    -0.3335330
  H       -1.7609160     2.2085530     0.2816270
  H        1.7975830     1.8046110     0.4123870
  H        1.2313290     2.1813940    -1.2178320
  H        0.4699250     2.9630620     0.1727880
  H       -2.7264860    -1.9781040     0.0926730
  H       -3.4380290     0.3918270     0.3981780
  H        2.0803190    -1.0071740     1.4349120
units angstrom
no_reorient  #important for SAPT in psi4, default
symmetry c1  #important for SAPT in psi4, default
}

set PROPERTIES_ORIGIN ["COM"]
properties('MP2/aug-cc-pvtz', properties = ['dipole'])
--------------------------------------------------------------------------

    Molecular point group: c1
  Charge       = 0
  Multiplicity = 1
  Basis Set: AUG-CC-PVTZ
    Blend: AUG-CC-PVTZ
  Basis Set: (AUG-CC-PVTZ AUX)
    Blend: AUG-CC-PVTZ-JKFIT

    Orbital Energies [Eh]
    ---------------------

    Doubly Occupied:

       1A    -20.560046     2A    -11.281751     3A    -11.250803
       4A    -11.245392     5A    -11.243307     6A    -11.239935
       7A    -11.238795     8A    -11.237740     9A    -11.220337
      10A     -1.356366    11A     -1.148020    12A     -1.050119
      13A     -1.026246    14A     -0.946607    15A     -0.904217
      16A     -0.831935    17A     -0.785726    18A     -0.696112
      19A     -0.683208    20A     -0.659822    21A     -0.618529
      22A     -0.601913    23A     -0.594475    24A     -0.571696
      25A     -0.567344    26A     -0.545054    27A     -0.524857
      28A     -0.507845    29A     -0.481948    30A     -0.461183
      31A     -0.445309    32A     -0.334311    33A     -0.321616

  @DF-RHF Final Energy:  -383.73043007100591

   => Energetics <=

    Nuclear Repulsion Energy =            424.4590788914876498
    One-Electron Energy =               -1362.0138891216463435
    Two-Electron Energy =                 553.8243801591527244
    Total Energy =                       -383.7304300710059124
  Basis Set: (AUG-CC-PVTZ AUX)
    Blend: AUG-CC-PVTZ-RI
    Molecular point group: c1

    Geometry (in Angstrom), charge = 0, multiplicity = 1:

       Center              X                  Y                   Z               Mass
    ------------   -----------------  -----------------  -----------------  -----------------
         O            2.554726209604    -0.524599832450     0.699916700120    15.994914619570
         C            0.317637209604    -0.407241832450    -0.277840299880    12.000000000000
         C           -0.077703790396     0.934051167550    -0.092814299880    12.000000000000
         C            1.768817209604    -0.759675832450    -0.477018299880    12.000000000000
         C           -0.674365390396    -1.569641232450    -0.204452999880    12.000000000000
         C           -1.430416790396     1.206256167550     0.136725700120    12.000000000000
         C            0.923660209604     2.056923167550    -0.187385299880    12.000000000000
         C           -1.982350790396    -1.142678832450     0.032458700120    12.000000000000
         C           -2.378136790396     0.182289167550     0.209286700120    12.000000000000
         H            1.852470209604    -1.807974832450    -0.798731299880     1.007825032230
         H            2.227466209604    -0.139230832450    -1.251827299880     1.007825032230
         H           -0.319302790396    -2.462001832450    -0.339354299880     1.007825032230
         H           -1.745854790396     2.239131167550     0.275805700120     1.007825032230
         H            1.812644209604     1.835189167550     0.406565700120     1.007825032230
         H            1.246390209604     2.211972167550    -1.223653299880     1.007825032230
         H            0.484986209604     2.993640167550     0.166966700120     1.007825032230
         H           -2.711424790396    -1.947525832450     0.086851700120     1.007825032230
         H           -3.422967790396     0.422405167550     0.392356700120     1.007825032230
         H            2.095380209604    -0.976595832450     1.429090700120     1.007825032230

  Basis Set: AUG-CC-PVTZ
    Blend: AUG-CC-PVTZ
  Basis Set: (AUG-CC-PVTZ AUX)
    Blend: AUG-CC-PVTZ-JKFIT
	 Reference Energy          =    -383.7304300710059124 [Eh]
	 Singles Energy            =      -0.0000000000000000 [Eh]
	 Same-Spin Energy          =      -0.4136205368822405 [Eh]
	 Opposite-Spin Energy      =      -1.3229677701719462 [Eh]
	 Correlation Energy        =      -1.7365883070541868 [Eh]
	 Total Energy              =    -385.4670183780601178 [Eh]

	 ================> DF-SCS-MP2 Energies <==================
	-----------------------------------------------------------
	 SCS Same-Spin Scale       =       0.3333333333333333 [-]
	 SCS Opposite-Spin Scale   =       1.2000000000000000 [-]
	 SCS Same-Spin Energy      =      -0.1378735122940802 [Eh]
	 SCS Opposite-Spin Energy  =      -1.5875613242063353 [Eh]
	 SCS Correlation Energy    =      -1.7254348365004155 [Eh]
	 SCS Total Energy          =    -385.4558649075063386 [Eh]
	-----------------------------------------------------------

  Dipole Moment: [D]
     X:    -1.1981      Y:    -0.3706      Z:    -0.1064     Total:     1.2586

*** Psi4 exiting successfully. Buy a developer a beer!
