                               Psi4 1.4a3.dev225

  ==> Input File <==

--------------------------------------------------------------------------
#psi4
#
memory 32 gb

molecule  {
0 1
  O        2.5396650    -0.5551780     0.7057380
  C        0.3025760    -0.4378200    -0.2720190
  C       -0.1207928     0.9985644    -0.0738755
  C        1.7537560    -0.7902540    -0.4711970
  C       -0.6504930    -1.4595100    -0.1921940
  C       -1.4454780     1.1756780     0.1425470
  C        0.9085990     2.0263450    -0.1815640
  C       -1.9974120    -1.1732570     0.0382800
  C       -2.3931980     0.1517110     0.2151080
  H        1.8374090    -1.8385530    -0.7929100
  H        2.2124050    -0.1698090    -1.2460060
  H       -0.3343640    -2.4925800    -0.3335330
  H       -1.7609160     2.2085530     0.2816270
  H        1.7975830     1.8046110     0.4123870
  H        1.2313290     2.1813940    -1.2178320
  H        0.4699250     2.9630620     0.1727880
  H       -2.7264860    -1.9781040     0.0926730
  H       -3.4380290     0.3918270     0.3981780
  H        2.0803190    -1.0071740     1.4349120
units angstrom
no_reorient  #important for SAPT in psi4, default
symmetry c1  #important for SAPT in psi4, default
}

set PROPERTIES_ORIGIN ["COM"]
properties('MP2/aug-cc-pvtz', properties = ['dipole'])
--------------------------------------------------------------------------

    Molecular point group: c1
  Charge       = 0
  Multiplicity = 1
  Basis Set: AUG-CC-PVTZ
    Blend: AUG-CC-PVTZ
  Basis Set: (AUG-CC-PVTZ AUX)
    Blend: AUG-CC-PVTZ-JKFIT

    Orbital Energies [Eh]
    ---------------------

    Doubly Occupied:

       1A    -20.560910     2A    -11.283145     3A    -11.248496
       4A    -11.246940     5A    -11.239308     6A    -11.239093
       7A    -11.235611     8A    -11.228428     9A    -11.219245
      10A     -1.357186    11A     -1.153902    12A     -1.054265
      13A     -1.033619    14A     -0.949578    15A     -0.908358
      16A     -0.804917    17A     -0.796815    18A     -0.702062
      19A     -0.671588    20A     -0.647097    21A     -0.626402
      22A     -0.604729    23A     -0.584349    24A     -0.580117
      25A     -0.572719    26A     -0.543373    27A     -0.533867
      28A     -0.487357    29A     -0.485819    30A     -0.479043
      31A     -0.442789    32A     -0.343717    33A     -0.316814

  @DF-RHF Final Energy:  -383.74767152517313

   => Energetics <=

    Nuclear Repulsion Energy =            426.1154706089342312
    One-Electron Energy =               -1365.3629683550680056
    Two-Electron Energy =                 555.4998262209606992
    Total Energy =                       -383.7476715251731321
  Basis Set: (AUG-CC-PVTZ AUX)
    Blend: AUG-CC-PVTZ-RI
    Molecular point group: c1

    Geometry (in Angstrom), charge = 0, multiplicity = 1:

       Center              X                  Y                   Z               Mass
    ------------   -----------------  -----------------  -----------------  -----------------
         O            2.553654150892    -0.547779452651     0.697994390659    15.994914619570
         C            0.316565150892    -0.430421452651    -0.279762609341    12.000000000000
         C           -0.106803649108     1.005962947349    -0.081619109341    12.000000000000
         C            1.767745150892    -0.782855452651    -0.478940609341    12.000000000000
         C           -0.636503849108    -1.452111452651    -0.199937609341    12.000000000000
         C           -1.431488849108     1.183076547349     0.134803390659    12.000000000000
         C            0.922588150892     2.033743547349    -0.189307609341    12.000000000000
         C           -1.983422849108    -1.165858452651     0.030536390659    12.000000000000
         C           -2.379208849108     0.159109547349     0.207364390659    12.000000000000
         H            1.851398150892    -1.831154452651    -0.800653609341     1.007825032230
         H            2.226394150892    -0.162410452651    -1.253749609341     1.007825032230
         H           -0.320374849108    -2.485181452651    -0.341276609341     1.007825032230
         H           -1.746926849108     2.215951547349     0.273883390659     1.007825032230
         H            1.811572150892     1.812009547349     0.404643390659     1.007825032230
         H            1.245318150892     2.188792547349    -1.225575609341     1.007825032230
         H            0.483914150892     2.970460547349     0.165044390659     1.007825032230
         H           -2.712496849108    -1.970705452651     0.084929390659     1.007825032230
         H           -3.424039849108     0.399225547349     0.390434390659     1.007825032230
         H            2.094308150892    -0.999775452651     1.427168390659     1.007825032230

  Basis Set: AUG-CC-PVTZ
    Blend: AUG-CC-PVTZ
  Basis Set: (AUG-CC-PVTZ AUX)
    Blend: AUG-CC-PVTZ-JKFIT
	 Reference Energy          =    -383.7476715251731321 [Eh]
	 Singles Energy            =      -0.0000000000000000 [Eh]
	 Same-Spin Energy          =      -0.4134031672508569 [Eh]
	 Opposite-Spin Energy      =      -1.3218561053815479 [Eh]
	 Correlation Energy        =      -1.7352592726324048 [Eh]
	 Total Energy              =    -385.4829307978055226 [Eh]

	 ================> DF-SCS-MP2 Energies <==================
	-----------------------------------------------------------
	 SCS Same-Spin Scale       =       0.3333333333333333 [-]
	 SCS Opposite-Spin Scale   =       1.2000000000000000 [-]
	 SCS Same-Spin Energy      =      -0.1378010557502856 [Eh]
	 SCS Opposite-Spin Energy  =      -1.5862273264578575 [Eh]
	 SCS Correlation Energy    =      -1.7240283822081430 [Eh]
	 SCS Total Energy          =    -385.4716999073812644 [Eh]
	-----------------------------------------------------------

  Dipole Moment: [D]
     X:    -1.1352      Y:    -0.3754      Z:    -0.1187     Total:     1.2015

*** Psi4 exiting successfully. Buy a developer a beer!
