                               Psi4 1.4a3.dev225

  ==> Input File <==

--------------------------------------------------------------------------
#psi4
#
memory 32 gb

molecule  {
0 1
  O        2.5396650    -0.5551780     0.7057380
  C        0.3025760    -0.4378200    -0.2720190
  C       -0.1488207     1.0936558    -0.0607580
  C        1.7537560    -0.7902540    -0.4711970
  C       -0.6504930    -1.4595100    -0.1921940
  C       -1.4454780     1.1756780     0.1425470
  C        0.9085990     2.0263450    -0.1815640
  C       -1.9974120    -1.1732570     0.0382800
  C       -2.3931980     0.1517110     0.2151080
  H        1.8374090    -1.8385530    -0.7929100
  H        2.2124050    -0.1698090    -1.2460060
  H       -0.3343640    -2.4925800    -0.3335330
  H       -1.7609160     2.2085530     0.2816270
  H        1.7975830     1.8046110     0.4123870
  H        1.2313290     2.1813940    -1.2178320
  H        0.4699250     2.9630620     0.1727880
  H       -2.7264860    -1.9781040     0.0926730
  H       -3.4380290     0.3918270     0.3981780
  H        2.0803190    -1.0071740     1.4349120
units angstrom
no_reorient  #important for SAPT in psi4, default
symmetry c1  #important for SAPT in psi4, default
}

set PROPERTIES_ORIGIN ["COM"]
properties('MP2/aug-cc-pvtz', properties = ['dipole'])
--------------------------------------------------------------------------

    Molecular point group: c1
  Charge       = 0
  Multiplicity = 1
  Basis Set: AUG-CC-PVTZ
    Blend: AUG-CC-PVTZ
  Basis Set: (AUG-CC-PVTZ AUX)
    Blend: AUG-CC-PVTZ-JKFIT

    Orbital Energies [Eh]
    ---------------------

    Doubly Occupied:

       1A    -20.560862     2A    -11.283163     3A    -11.252007
       4A    -11.250579     5A    -11.239443     6A    -11.238179
       7A    -11.236504     8A    -11.224555     9A    -11.219571
      10A     -1.356977    11A     -1.152378    12A     -1.063349
      13A     -1.031690    14A     -0.956080    15A     -0.909376
      16A     -0.805901    17A     -0.787244    18A     -0.703182
      19A     -0.668695    20A     -0.649408    21A     -0.628534
      22A     -0.605491    23A     -0.592637    24A     -0.582362
      25A     -0.573912    26A     -0.545221    27A     -0.538247
      28A     -0.489003    29A     -0.484087    30A     -0.471202
      31A     -0.426720    32A     -0.351467    33A     -0.309388

  @DF-RHF Final Energy:  -383.71769653274720

   => Energetics <=

    Nuclear Repulsion Energy =            425.3972590421290079
    One-Electron Energy =               -1363.8550819107720145
    Two-Electron Energy =                 554.7401263358958659
    Total Energy =                       -383.7176965327471407
  Basis Set: (AUG-CC-PVTZ AUX)
    Blend: AUG-CC-PVTZ-RI
    Molecular point group: c1

    Geometry (in Angstrom), charge = 0, multiplicity = 1:

       Center              X                  Y                   Z               Mass
    ------------   -----------------  -----------------  -----------------  -----------------
         O            2.556409341192    -0.557127099208     0.696704918070    15.994914619570
         C            0.319320341192    -0.439769099208    -0.281052081930    12.000000000000
         C           -0.132076358808     1.091706700792    -0.069791081930    12.000000000000
         C            1.770500341192    -0.792203099208    -0.480230081930    12.000000000000
         C           -0.633748658808    -1.461459099208    -0.201227081930    12.000000000000
         C           -1.428733658808     1.173728900792     0.133513918070    12.000000000000
         C            0.925343341192     2.024395900792    -0.190597081930    12.000000000000
         C           -1.980667658808    -1.175206099208     0.029246918070    12.000000000000
         C           -2.376453658808     0.149761900792     0.206074918070    12.000000000000
         H            1.854153341192    -1.840502099208    -0.801943081930     1.007825032230
         H            2.229149341192    -0.171758099208    -1.255039081930     1.007825032230
         H           -0.317619658808    -2.494529099208    -0.342566081930     1.007825032230
         H           -1.744171658808     2.206603900792     0.272593918070     1.007825032230
         H            1.814327341192     1.802661900792     0.403353918070     1.007825032230
         H            1.248073341192     2.179444900792    -1.226865081930     1.007825032230
         H            0.486669341192     2.961112900792     0.163754918070     1.007825032230
         H           -2.709741658808    -1.980053099208     0.083639918070     1.007825032230
         H           -3.421284658808     0.389877900792     0.389144918070     1.007825032230
         H            2.097063341192    -1.009123099208     1.425878918070     1.007825032230

  Basis Set: AUG-CC-PVTZ
    Blend: AUG-CC-PVTZ
  Basis Set: (AUG-CC-PVTZ AUX)
    Blend: AUG-CC-PVTZ-JKFIT
	 Reference Energy          =    -383.7176965327471976 [Eh]
	 Singles Energy            =      -0.0000000000000000 [Eh]
	 Same-Spin Energy          =      -0.4137195732029292 [Eh]
	 Opposite-Spin Energy      =      -1.3239948049753076 [Eh]
	 Correlation Energy        =      -1.7377143781782367 [Eh]
	 Total Energy              =    -385.4554109109254227 [Eh]

	 ================> DF-SCS-MP2 Energies <==================
	-----------------------------------------------------------
	 SCS Same-Spin Scale       =       0.3333333333333333 [-]
	 SCS Opposite-Spin Scale   =       1.2000000000000000 [-]
	 SCS Same-Spin Energy      =      -0.1379065244009764 [Eh]
	 SCS Opposite-Spin Energy  =      -1.5887937659703690 [Eh]
	 SCS Correlation Energy    =      -1.7267002903713453 [Eh]
	 SCS Total Energy          =    -385.4443968231185522 [Eh]
	-----------------------------------------------------------

  Dipole Moment: [D]
     X:    -1.0745      Y:    -0.3375      Z:    -0.1327     Total:     1.1340

*** Psi4 exiting successfully. Buy a developer a beer!
