                               Psi4 1.4a3.dev225

  ==> Input File <==

--------------------------------------------------------------------------
#psi4
#
memory 32 gb

molecule  {
0 1
  O        2.5396650    -0.5551780     0.7057380
  C        0.3025760    -0.4378200    -0.2720190
  C       -0.0927650     0.9034730    -0.0869930
  C        1.7537560    -0.7902540    -0.4711970
  C       -0.6504930    -1.4595100    -0.1921940
  C       -1.4454780     1.1756780     0.1425470
  C        0.9085990     2.0263450    -0.1815640
  C       -1.9974120    -1.1732570     0.0382800
  C       -2.3931980     0.1517110     0.2151080
  H        1.8374090    -1.8385530    -0.7929100
  H        2.2124050    -0.1698090    -1.2460060
  H       -0.2763354    -2.6822101    -0.3594772
  H       -1.7609160     2.2085530     0.2816270
  H        1.7975830     1.8046110     0.4123870
  H        1.2313290     2.1813940    -1.2178320
  H        0.4699250     2.9630620     0.1727880
  H       -2.7264860    -1.9781040     0.0926730
  H       -3.4380290     0.3918270     0.3981780
  H        2.0803190    -1.0071740     1.4349120
units angstrom
no_reorient  #important for SAPT in psi4, default
symmetry c1  #important for SAPT in psi4, default
}

set PROPERTIES_ORIGIN ["COM"]
properties('MP2/aug-cc-pvtz', properties = ['dipole'])
--------------------------------------------------------------------------

    Molecular point group: c1
  Charge       = 0
  Multiplicity = 1
  Basis Set: AUG-CC-PVTZ
    Blend: AUG-CC-PVTZ
  Basis Set: (AUG-CC-PVTZ AUX)
    Blend: AUG-CC-PVTZ-JKFIT

    Orbital Energies [Eh]
    ---------------------

    Doubly Occupied:

       1A    -20.560840     2A    -11.282570     3A    -11.261757
       4A    -11.247859     5A    -11.240937     6A    -11.240646
       7A    -11.237786     8A    -11.234846     9A    -11.220916
      10A     -1.357223    11A     -1.158512    12A     -1.050608
      13A     -1.030103    14A     -0.943468    15A     -0.908763
      16A     -0.809268    17A     -0.793061    18A     -0.701100
      19A     -0.670642    20A     -0.641804    21A     -0.619435
      22A     -0.603026    23A     -0.580759    24A     -0.569974
      25A     -0.564816    26A     -0.544229    27A     -0.526994
      28A     -0.489949    29A     -0.482622    30A     -0.477789
      31A     -0.447635    32A     -0.339144    33A     -0.327302

  @DF-RHF Final Energy:  -383.73751897998261

   => Energetics <=

    Nuclear Repulsion Energy =            425.9926897162031310
    One-Electron Energy =               -1365.1276474277262878
    Two-Electron Energy =                 555.3974387315405465
    Total Energy =                       -383.7375189799826103
  Basis Set: (AUG-CC-PVTZ AUX)
    Blend: AUG-CC-PVTZ-RI
    Molecular point group: c1

    Geometry (in Angstrom), charge = 0, multiplicity = 1:

       Center              X                  Y                   Z               Mass
    ------------   -----------------  -----------------  -----------------  -----------------
         O            2.550419891537    -0.536866237103     0.699498056221    15.994914619570
         C            0.313330891537    -0.419508237103    -0.278258943779    12.000000000000
         C           -0.082010108463     0.921784762897    -0.093232943779    12.000000000000
         C            1.764510891537    -0.771942237103    -0.477436943779    12.000000000000
         C           -0.639738108463    -1.441198237103    -0.198433943779    12.000000000000
         C           -1.434723108463     1.193989762897     0.136307056221    12.000000000000
         C            0.919353891537     2.044656762897    -0.187803943779    12.000000000000
         C           -1.986657108463    -1.154945237103     0.032040056221    12.000000000000
         C           -2.382443108463     0.170022762897     0.208868056221    12.000000000000
         H            1.848163891537    -1.820241237103    -0.799149943779     1.007825032230
         H            2.223159891537    -0.151497237103    -1.252245943779     1.007825032230
         H           -0.265580508463    -2.663898337103    -0.365717143779     1.007825032230
         H           -1.750161108463     2.226864762897     0.275387056221     1.007825032230
         H            1.808337891537     1.822922762897     0.406147056221     1.007825032230
         H            1.242083891537     2.199705762897    -1.224071943779     1.007825032230
         H            0.480679891537     2.981373762897     0.166548056221     1.007825032230
         H           -2.715731108463    -1.959792237103     0.086433056221     1.007825032230
         H           -3.427274108463     0.410138762897     0.391938056221     1.007825032230
         H            2.091073891537    -0.988862237103     1.428672056221     1.007825032230

  Basis Set: AUG-CC-PVTZ
    Blend: AUG-CC-PVTZ
  Basis Set: (AUG-CC-PVTZ AUX)
    Blend: AUG-CC-PVTZ-JKFIT
	 Reference Energy          =    -383.7375189799826103 [Eh]
	 Singles Energy            =      -0.0000000000000000 [Eh]
	 Same-Spin Energy          =      -0.4137788216276440 [Eh]
	 Opposite-Spin Energy      =      -1.3230143238409553 [Eh]
	 Correlation Energy        =      -1.7367931454685992 [Eh]
	 Total Energy              =    -385.4743121254512062 [Eh]

	 ================> DF-SCS-MP2 Energies <==================
	-----------------------------------------------------------
	 SCS Same-Spin Scale       =       0.3333333333333333 [-]
	 SCS Opposite-Spin Scale   =       1.2000000000000000 [-]
	 SCS Same-Spin Energy      =      -0.1379262738758813 [Eh]
	 SCS Opposite-Spin Energy  =      -1.5876171886091464 [Eh]
	 SCS Correlation Energy    =      -1.7255434624850277 [Eh]
	 SCS Total Energy          =    -385.4630624424676171 [Eh]
	-----------------------------------------------------------

  Dipole Moment: [D]
     X:    -1.2350      Y:    -0.2792      Z:    -0.0878     Total:     1.2692

*** Psi4 exiting successfully. Buy a developer a beer!
