                               Psi4 1.4a3.dev225

  ==> Input File <==

--------------------------------------------------------------------------
#psi4
#
memory 32 gb

molecule  {
0 1
  O        2.5396650    -0.5551780     0.7057380
  C        0.3025760    -0.4378200    -0.2720190
  C       -0.0927650     0.9034730    -0.0869930
  C        1.7537560    -0.7902540    -0.4711970
  C       -0.6504930    -1.4595100    -0.1921940
  C       -1.4454780     1.1756780     0.1425470
  C        0.9085990     2.0263450    -0.1815640
  C       -1.9974120    -1.1732570     0.0382800
  C       -2.3931980     0.1517110     0.2151080
  H        1.8374090    -1.8385530    -0.7929100
  H        2.2124050    -0.1698090    -1.2460060
  H       -0.3198569    -2.5399875    -0.3400190
  H       -1.7609160     2.2085530     0.2816270
  H        1.7975830     1.8046110     0.4123870
  H        1.2313290     2.1813940    -1.2178320
  H        0.4699250     2.9630620     0.1727880
  H       -2.7264860    -1.9781040     0.0926730
  H       -3.4380290     0.3918270     0.3981780
  H        2.0803190    -1.0071740     1.4349120
units angstrom
no_reorient  #important for SAPT in psi4, default
symmetry c1  #important for SAPT in psi4, default
}

set PROPERTIES_ORIGIN ["COM"]
properties('MP2/aug-cc-pvtz', properties = ['dipole'])
--------------------------------------------------------------------------

    Molecular point group: c1
  Charge       = 0
  Multiplicity = 1
  Basis Set: AUG-CC-PVTZ
    Blend: AUG-CC-PVTZ
  Basis Set: (AUG-CC-PVTZ AUX)
    Blend: AUG-CC-PVTZ-JKFIT

    Orbital Energies [Eh]
    ---------------------

    Doubly Occupied:

       1A    -20.560878     2A    -11.282697     3A    -11.246310
       4A    -11.245759     5A    -11.239168     6A    -11.238843
       7A    -11.235767     8A    -11.233825     9A    -11.220071
      10A     -1.357275    11A     -1.157660    12A     -1.049540
      13A     -1.031702    14A     -0.943448    15A     -0.908514
      16A     -0.815235    17A     -0.792544    18A     -0.700956
      19A     -0.673087    20A     -0.643407    21A     -0.623474
      22A     -0.604553    23A     -0.584716    24A     -0.572304
      25A     -0.568706    26A     -0.543618    27A     -0.526398
      28A     -0.491663    29A     -0.488530    30A     -0.478434
      31A     -0.447513    32A     -0.337862    33A     -0.326020

  @DF-RHF Final Energy:  -383.75710180402598

   => Energetics <=

    Nuclear Repulsion Energy =            426.6610319815411003
    One-Electron Energy =               -1366.4953108608708590
    Two-Electron Energy =                 556.0771770753037799
    Total Energy =                       -383.7571018040259787
  Basis Set: (AUG-CC-PVTZ AUX)
    Blend: AUG-CC-PVTZ-RI
    Molecular point group: c1

    Geometry (in Angstrom), charge = 0, multiplicity = 1:

       Center              X                  Y                   Z               Mass
    ------------   -----------------  -----------------  -----------------  -----------------
         O            2.550779201113    -0.538040414052     0.699337411078    15.994914619570
         C            0.313690201113    -0.420682414052    -0.278419588922    12.000000000000
         C           -0.081650798887     0.920610585948    -0.093393588922    12.000000000000
         C            1.764870201113    -0.773116414052    -0.477597588922    12.000000000000
         C           -0.639378798887    -1.442372414052    -0.198594588922    12.000000000000
         C           -1.434363798887     1.192815585948     0.136146411078    12.000000000000
         C            0.919713201113     2.043482585948    -0.187964588922    12.000000000000
         C           -1.986297798887    -1.156119414052     0.031879411078    12.000000000000
         C           -2.382083798887     0.168848585948     0.208707411078    12.000000000000
         H            1.848523201113    -1.821415414052    -0.799310588922     1.007825032230
         H            2.223519201113    -0.152671414052    -1.252406588922     1.007825032230
         H           -0.308742698887    -2.522849914052    -0.346419588922     1.007825032230
         H           -1.749801798887     2.225690585948     0.275226411078     1.007825032230
         H            1.808697201113     1.821748585948     0.405986411078     1.007825032230
         H            1.242443201113     2.198531585948    -1.224232588922     1.007825032230
         H            0.481039201113     2.980199585948     0.166387411078     1.007825032230
         H           -2.715371798887    -1.960966414052     0.086272411078     1.007825032230
         H           -3.426914798887     0.408964585948     0.391777411078     1.007825032230
         H            2.091433201113    -0.990036414052     1.428511411078     1.007825032230

  Basis Set: AUG-CC-PVTZ
    Blend: AUG-CC-PVTZ
  Basis Set: (AUG-CC-PVTZ AUX)
    Blend: AUG-CC-PVTZ-JKFIT
	 Reference Energy          =    -383.7571018040259787 [Eh]
	 Singles Energy            =      -0.0000000000000000 [Eh]
	 Same-Spin Energy          =      -0.4133101378812676 [Eh]
	 Opposite-Spin Energy      =      -1.3212049429117330 [Eh]
	 Correlation Energy        =      -1.7345150807930005 [Eh]
	 Total Energy              =    -385.4916168848189955 [Eh]

	 ================> DF-SCS-MP2 Energies <==================
	-----------------------------------------------------------
	 SCS Same-Spin Scale       =       0.3333333333333333 [-]
	 SCS Opposite-Spin Scale   =       1.2000000000000000 [-]
	 SCS Same-Spin Energy      =      -0.1377700459604225 [Eh]
	 SCS Opposite-Spin Energy  =      -1.5854459314940794 [Eh]
	 SCS Correlation Energy    =      -1.7232159774545019 [Eh]
	 SCS Total Energy          =    -385.4803177814804940 [Eh]
	-----------------------------------------------------------

  Dipole Moment: [D]
     X:    -1.2087      Y:    -0.3762      Z:    -0.0993     Total:     1.2698

*** Psi4 exiting successfully. Buy a developer a beer!
