                               Psi4 1.4a3.dev225

  ==> Input File <==

--------------------------------------------------------------------------
#psi4
#
memory 32 gb

molecule  {
0 1
  O        2.5396650    -0.5551780     0.7057380
  C        0.3025760    -0.4378200    -0.2720190
  C       -0.0927650     0.9034730    -0.0869930
  C        1.7537560    -0.7902540    -0.4711970
  C       -0.6504930    -1.4595100    -0.1921940
  C       -1.4454780     1.1756780     0.1425470
  C        0.9085990     2.0263450    -0.1815640
  C       -1.9974120    -1.1732570     0.0382800
  C       -2.3931980     0.1517110     0.2151080
  H        1.8374090    -1.8385530    -0.7929100
  H        2.2124050    -0.1698090    -1.2460060
  H       -0.3343640    -2.4925800    -0.3335330
  H       -1.7609160     2.2085530     0.2816270
  H        1.7975830     1.8046110     0.4123870
  H        1.2313290     2.1813940    -1.2178320
  H        0.4779493     2.9459274     0.1663061
  H       -2.7264860    -1.9781040     0.0926730
  H       -3.4380290     0.3918270     0.3981780
  H        2.0803190    -1.0071740     1.4349120
units angstrom
no_reorient  #important for SAPT in psi4, default
symmetry c1  #important for SAPT in psi4, default
}

set PROPERTIES_ORIGIN ["COM"]
properties('MP2/aug-cc-pvtz', properties = ['dipole'])
--------------------------------------------------------------------------

    Molecular point group: c1
  Charge       = 0
  Multiplicity = 1
  Basis Set: AUG-CC-PVTZ
    Blend: AUG-CC-PVTZ
  Basis Set: (AUG-CC-PVTZ AUX)
    Blend: AUG-CC-PVTZ-JKFIT

    Orbital Energies [Eh]
    ---------------------

    Doubly Occupied:

       1A    -20.560806     2A    -11.282640     3A    -11.245707
       4A    -11.240054     5A    -11.238732     6A    -11.238011
       7A    -11.235127     8A    -11.233551     9A    -11.217394
      10A     -1.357204    11A     -1.157534    12A     -1.049561
      13A     -1.032752    14A     -0.944573    15A     -0.908838
      16A     -0.818503    17A     -0.792575    18A     -0.700919
      19A     -0.674965    20A     -0.644646    21A     -0.625666
      22A     -0.605111    23A     -0.586631    24A     -0.572952
      25A     -0.568450    26A     -0.546196    27A     -0.526844
      28A     -0.494285    29A     -0.488080    30A     -0.478107
      31A     -0.447405    32A     -0.337513    33A     -0.325580

  @DF-RHF Final Energy:  -383.75964511323889

   => Energetics <=

    Nuclear Repulsion Energy =            427.0003937459949839
    One-Electron Energy =               -1367.1662513260939704
    Two-Electron Energy =                 556.4062124668600973
    Total Energy =                       -383.7596451132388893
  Basis Set: (AUG-CC-PVTZ AUX)
    Blend: AUG-CC-PVTZ-RI
    Molecular point group: c1

    Geometry (in Angstrom), charge = 0, multiplicity = 1:

       Center              X                  Y                   Z               Mass
    ------------   -----------------  -----------------  -----------------  -----------------
         O            2.550832722525    -0.538290344382     0.699337377229    15.994914619570
         C            0.313743722525    -0.420932344382    -0.278419622771    12.000000000000
         C           -0.081597277475     0.920360655618    -0.093393622771    12.000000000000
         C            1.764923722525    -0.773366344382    -0.477597622771    12.000000000000
         C           -0.639325277475    -1.442622344382    -0.198594622771    12.000000000000
         C           -1.434310277475     1.192565655618     0.136146377229    12.000000000000
         C            0.919766722525     2.043232655618    -0.187964622771    12.000000000000
         C           -1.986244277475    -1.156369344382     0.031879377229    12.000000000000
         C           -2.382030277475     0.168598655618     0.208707377229    12.000000000000
         H            1.848576722525    -1.821665344382    -0.799310622771     1.007825032230
         H            2.223572722525    -0.152921344382    -1.252406622771     1.007825032230
         H           -0.323196277475    -2.475692344382    -0.339933622771     1.007825032230
         H           -1.749748277475     2.225440655618     0.275226377229     1.007825032230
         H            1.808750722525     1.821498655618     0.405986377229     1.007825032230
         H            1.242496722525     2.198281655618    -1.224232622771     1.007825032230
         H            0.489117022525     2.962815055618     0.159905477229     1.007825032230
         H           -2.715318277475    -1.961216344382     0.086272377229     1.007825032230
         H           -3.426861277475     0.408714655618     0.391777377229     1.007825032230
         H            2.091486722525    -0.990286344382     1.428511377229     1.007825032230

  Basis Set: AUG-CC-PVTZ
    Blend: AUG-CC-PVTZ
  Basis Set: (AUG-CC-PVTZ AUX)
    Blend: AUG-CC-PVTZ-JKFIT
	 Reference Energy          =    -383.7596451132388893 [Eh]
	 Singles Energy            =      -0.0000000000000000 [Eh]
	 Same-Spin Energy          =      -0.4131735598238236 [Eh]
	 Opposite-Spin Energy      =      -1.3206326855634187 [Eh]
	 Correlation Energy        =      -1.7338062453872425 [Eh]
	 Total Energy              =    -385.4934513586261460 [Eh]

	 ================> DF-SCS-MP2 Energies <==================
	-----------------------------------------------------------
	 SCS Same-Spin Scale       =       0.3333333333333333 [-]
	 SCS Opposite-Spin Scale   =       1.2000000000000000 [-]
	 SCS Same-Spin Energy      =      -0.1377245199412745 [Eh]
	 SCS Opposite-Spin Energy  =      -1.5847592226761025 [Eh]
	 SCS Correlation Energy    =      -1.7224837426173769 [Eh]
	 SCS Total Energy          =    -385.4821288558562742 [Eh]
	-----------------------------------------------------------

  Dipole Moment: [D]
     X:    -1.2020      Y:    -0.3884      Z:    -0.1000     Total:     1.2672

*** Psi4 exiting successfully. Buy a developer a beer!
