                               Psi4 1.4a3.dev225

  ==> Input File <==

--------------------------------------------------------------------------
#psi4
#
memory 32 gb

molecule  {
0 1
  O        2.5396650    -0.5551780     0.7057380
  C        0.3025760    -0.4378200    -0.2720190
  C       -0.0927650     0.9034730    -0.0869930
  C        1.7427995    -0.7935312    -0.4876048
  C       -0.6504930    -1.4595100    -0.1921940
  C       -1.4454780     1.1756780     0.1425470
  C        0.9085990     2.0263450    -0.1815640
  C       -1.9974120    -1.1732570     0.0382800
  C       -2.3931980     0.1517110     0.2151080
  H        1.8374090    -1.8385530    -0.7929100
  H        2.2124050    -0.1698090    -1.2460060
  H       -0.3343640    -2.4925800    -0.3335330
  H       -1.7609160     2.2085530     0.2816270
  H        1.7975830     1.8046110     0.4123870
  H        1.2313290     2.1813940    -1.2178320
  H        0.4699250     2.9630620     0.1727880
  H       -2.7264860    -1.9781040     0.0926730
  H       -3.4380290     0.3918270     0.3981780
  H        2.0803190    -1.0071740     1.4349120
units angstrom
no_reorient  #important for SAPT in psi4, default
symmetry c1  #important for SAPT in psi4, default
}

set PROPERTIES_ORIGIN ["COM"]
properties('MP2/aug-cc-pvtz', properties = ['dipole'])
--------------------------------------------------------------------------

    Molecular point group: c1
  Charge       = 0
  Multiplicity = 1
  Basis Set: AUG-CC-PVTZ
    Blend: AUG-CC-PVTZ
  Basis Set: (AUG-CC-PVTZ AUX)
    Blend: AUG-CC-PVTZ-JKFIT

    Orbital Energies [Eh]
    ---------------------

    Doubly Occupied:

       1A    -20.558779     2A    -11.282456     3A    -11.246366
       4A    -11.240509     5A    -11.239124     6A    -11.238451
       7A    -11.235457     8A    -11.233892     9A    -11.219893
      10A     -1.349589    11A     -1.158158    12A     -1.049883
      13A     -1.033876    14A     -0.944445    15A     -0.909286
      16A     -0.818818    17A     -0.792438    18A     -0.699235
      19A     -0.674597    20A     -0.644252    21A     -0.624699
      22A     -0.601889    23A     -0.585581    24A     -0.573371
      25A     -0.568033    26A     -0.543917    27A     -0.526528
      28A     -0.494765    29A     -0.488008    30A     -0.479329
      31A     -0.449366    32A     -0.337798    33A     -0.325882

  @DF-RHF Final Energy:  -383.75893571410722

   => Energetics <=

    Nuclear Repulsion Energy =            426.8085427551609996
    One-Electron Energy =               -1366.7976206183941486
    Two-Electron Energy =                 556.2301421491259816
    Total Energy =                       -383.7589357141072242
  Basis Set: (AUG-CC-PVTZ AUX)
    Blend: AUG-CC-PVTZ-RI
    Molecular point group: c1

    Geometry (in Angstrom), charge = 0, multiplicity = 1:

       Center              X                  Y                   Z               Mass
    ------------   -----------------  -----------------  -----------------  -----------------
         O            2.551976013030    -0.538109651753     0.700896777929    15.994914619570
         C            0.314887013030    -0.420751651753    -0.276860222071    12.000000000000
         C           -0.080453986970     0.920541348247    -0.091834222071    12.000000000000
         C            1.755110513030    -0.776462851753    -0.492446022071    12.000000000000
         C           -0.638181986970    -1.442441651753    -0.197035222071    12.000000000000
         C           -1.433166986970     1.192746348247     0.137705777929    12.000000000000
         C            0.920910013030     2.043413348247    -0.186405222071    12.000000000000
         C           -1.985100986970    -1.156188651753     0.033438777929    12.000000000000
         C           -2.380886986970     0.168779348247     0.210266777929    12.000000000000
         H            1.849720013030    -1.821484651753    -0.797751222071     1.007825032230
         H            2.224716013030    -0.152740651753    -1.250847222071     1.007825032230
         H           -0.322052986970    -2.475511651753    -0.338374222071     1.007825032230
         H           -1.748604986970     2.225621348247     0.276785777929     1.007825032230
         H            1.809894013030     1.821679348247     0.407545777929     1.007825032230
         H            1.243640013030     2.198462348247    -1.222673222071     1.007825032230
         H            0.482236013030     2.980130348247     0.167946777929     1.007825032230
         H           -2.714174986970    -1.961035651753     0.087831777929     1.007825032230
         H           -3.425717986970     0.408895348247     0.393336777929     1.007825032230
         H            2.092630013030    -0.990105651753     1.430070777929     1.007825032230

  Basis Set: AUG-CC-PVTZ
    Blend: AUG-CC-PVTZ
  Basis Set: (AUG-CC-PVTZ AUX)
    Blend: AUG-CC-PVTZ-JKFIT
	 Reference Energy          =    -383.7589357141072242 [Eh]
	 Singles Energy            =      -0.0000000000000000 [Eh]
	 Same-Spin Energy          =      -0.4132613153963696 [Eh]
	 Opposite-Spin Energy      =      -1.3211366152905710 [Eh]
	 Correlation Energy        =      -1.7343979306869406 [Eh]
	 Total Energy              =    -385.4933336447941770 [Eh]

	 ================> DF-SCS-MP2 Energies <==================
	-----------------------------------------------------------
	 SCS Same-Spin Scale       =       0.3333333333333333 [-]
	 SCS Opposite-Spin Scale   =       1.2000000000000000 [-]
	 SCS Same-Spin Energy      =      -0.1377537717987898 [Eh]
	 SCS Opposite-Spin Energy  =      -1.5853639383486853 [Eh]
	 SCS Correlation Energy    =      -1.7231177101474751 [Eh]
	 SCS Total Energy          =    -385.4820534242546728 [Eh]
	-----------------------------------------------------------

  Dipole Moment: [D]
     X:    -1.2508      Y:    -0.4059      Z:    -0.1582     Total:     1.3245

*** Psi4 exiting successfully. Buy a developer a beer!
