                               Psi4 1.4a3.dev225

  ==> Input File <==

--------------------------------------------------------------------------
#psi4
#
memory 32 gb

molecule  {
0 1
  S       -0.2946600    -0.4360860     0.1655790
  O       -1.5657890     0.5673500    -0.1009940
  O       -0.3508230    -1.5212030    -0.8163730
  O       -0.2159750    -0.7550950     1.5921100
  C        2.3621670     0.3010360     0.2220870
  C        0.9741440     0.7483390    -0.2426020
  C        2.8380310    -0.9649040    -0.4891310
  C        3.3410260     1.4538450    -0.0023010
  C       -2.8589370    -0.1133030    -0.1019100
  C       -3.9021700     0.9699320    -0.2416680
  H        2.2983390     0.1006560     1.2981690
  H        0.9320730     0.8904060    -1.3271310
  H        0.6744950     1.6778970     0.2503870
  H        2.8691440    -0.8060450    -1.5725570
  H        2.1878640    -1.8202610    -0.2948070
  H        3.8478330    -1.2217420    -0.1555610
  H        3.4181100     1.6939920    -1.0681710
  H        3.0282660     2.3570280     0.5308300
  H        4.3384750     1.1791220     0.3530350
  H       -2.8783840    -0.8196920    -0.9355340
  H       -2.9674710    -0.6619300     0.8385710
  H       -3.8465560     1.6647390     0.5984370
  H       -3.7806948     1.4233328    -1.0000544
  H       -4.8990420     0.5201230    -0.2596090
units angstrom
no_reorient  #important for SAPT in psi4, default
symmetry c1  #important for SAPT in psi4, default
}

set PROPERTIES_ORIGIN ["COM"]
properties('MP2/aug-cc-pvtz', properties = ['dipole'])
--------------------------------------------------------------------------

    Molecular point group: c1
  Charge       = 0
  Multiplicity = 1
  Basis Set: AUG-CC-PVTZ
    Blend: AUG-CC-PVTZ
  Basis Set: (AUG-CC-PVTZ AUX)
    Blend: AUG-CC-PVTZ-JKFIT

    Orbital Energies [Eh]
    ---------------------

    Doubly Occupied:

       1A    -92.213708     2A    -20.614633     3A    -20.553532
       4A    -20.553382     5A    -11.300265     6A    -11.278071
       7A    -11.251438     8A    -11.229502     9A    -11.218570
      10A    -11.208531    11A     -9.177947    12A     -6.863403
      13A     -6.861957    14A     -6.861782    15A     -1.480839
      16A     -1.374912    17A     -1.337250    18A     -1.120967
      19A     -1.061662    20A     -1.000829    21A     -0.942307
      22A     -0.890529    23A     -0.833950    24A     -0.787993
      25A     -0.724936    26A     -0.696188    27A     -0.690770
      28A     -0.661157    29A     -0.636178    30A     -0.617311
      31A     -0.612735    32A     -0.586620    33A     -0.578837
      34A     -0.563271    35A     -0.553987    36A     -0.544241
      37A     -0.542015    38A     -0.510086    39A     -0.500270
      40A     -0.498319    41A     -0.490741    42A     -0.485392
      43A     -0.482594    44A     -0.463216    45A     -0.453540

  @DF-RHF Final Energy:  -857.59177170781743

   => Energetics <=

    Nuclear Repulsion Energy =            723.5371228327956032
    One-Electron Energy =               -2614.4370577747181414
    Two-Electron Energy =                1033.3081632341049954
    Total Energy =                       -857.5917717078175428
  Basis Set: (AUG-CC-PVTZ AUX)
    Blend: AUG-CC-PVTZ-RI
    Molecular point group: c1

    Geometry (in Angstrom), charge = 0, multiplicity = 1:

       Center              X                  Y                   Z               Mass
    ------------   -----------------  -----------------  -----------------  -----------------
         S           -0.263244918374    -0.398078640472     0.147185191074    31.972071174400
         O           -1.534373918374     0.605357359528    -0.119387808926    15.994914619570
         O           -0.319407918374    -1.483195640472    -0.834766808926    15.994914619570
         O           -0.184559918374    -0.717087640472     1.573716191074    15.994914619570
         C            2.393582081626     0.339043359528     0.203693191074    12.000000000000
         C            1.005559081626     0.786346359528    -0.260995808926    12.000000000000
         C            2.869446081626    -0.926896640472    -0.507524808926    12.000000000000
         C            3.372441081626     1.491852359528    -0.020694808926    12.000000000000
         C           -2.827521918374    -0.075295640472    -0.120303808926    12.000000000000
         C           -3.870754918374     1.007939359528    -0.260061808926    12.000000000000
         H            2.329754081626     0.138663359528     1.279775191074     1.007825032230
         H            0.963488081626     0.928413359528    -1.345524808926     1.007825032230
         H            0.705910081626     1.715904359528     0.231993191074     1.007825032230
         H            2.900559081626    -0.768037640472    -1.590950808926     1.007825032230
         H            2.219279081626    -1.782253640472    -0.313200808926     1.007825032230
         H            3.879248081626    -1.183734640472    -0.173954808926     1.007825032230
         H            3.449525081626     1.731999359528    -1.086564808926     1.007825032230
         H            3.059681081626     2.395035359528     0.512436191074     1.007825032230
         H            4.369890081626     1.217129359528     0.334641191074     1.007825032230
         H           -2.846968918374    -0.781684640472    -0.953927808926     1.007825032230
         H           -2.936055918374    -0.623922640472     0.820177191074     1.007825032230
         H           -3.815140918374     1.702746359528     0.580043191074     1.007825032230
         H           -3.749279718374     1.461340159528    -1.018448208926     1.007825032230
         H           -4.867626918374     0.558130359528    -0.278002808926     1.007825032230

  Basis Set: AUG-CC-PVTZ
    Blend: AUG-CC-PVTZ
  Basis Set: (AUG-CC-PVTZ AUX)
    Blend: AUG-CC-PVTZ-JKFIT
	 Reference Energy          =    -857.5917717078174292 [Eh]
	 Singles Energy            =      -0.0000000000000000 [Eh]
	 Same-Spin Energy          =      -0.5254845740547085 [Eh]
	 Opposite-Spin Energy      =      -1.6803099569761071 [Eh]
	 Correlation Energy        =      -2.2057945310308158 [Eh]
	 Total Energy              =    -859.7975662388482760 [Eh]

	 ================> DF-SCS-MP2 Energies <==================
	-----------------------------------------------------------
	 SCS Same-Spin Scale       =       0.3333333333333333 [-]
	 SCS Opposite-Spin Scale   =       1.2000000000000000 [-]
	 SCS Same-Spin Energy      =      -0.1751615246849028 [Eh]
	 SCS Opposite-Spin Energy  =      -2.0163719483713285 [Eh]
	 SCS Correlation Energy    =      -2.1915334730562313 [Eh]
	 SCS Total Energy          =    -859.7833051808736400 [Eh]
	-----------------------------------------------------------

  Dipole Moment: [D]
     X:    -0.0798      Y:     2.7481      Z:    -1.0919     Total:     2.9581

*** Psi4 exiting successfully. Buy a developer a beer!
