                               Psi4 1.4a3.dev225

  ==> Input File <==

--------------------------------------------------------------------------
#psi4
#
memory 32 gb

molecule  {
0 1
  S       -0.2946600    -0.4360860     0.1655790
  O       -1.5657890     0.5673500    -0.1009940
  O       -0.3508230    -1.5212030    -0.8163730
  O       -0.2159750    -0.7550950     1.5921100
  C        2.3706054     0.3016975     0.1967504
  C        0.9741440     0.7483390    -0.2426020
  C        2.8380310    -0.9649040    -0.4891310
  C        3.3410260     1.4538450    -0.0023010
  C       -2.8589370    -0.1133030    -0.1019100
  C       -3.9021700     0.9699320    -0.2416680
  H        2.2983390     0.1006560     1.2981690
  H        0.9320730     0.8904060    -1.3271310
  H        0.6744950     1.6778970     0.2503870
  H        2.8691440    -0.8060450    -1.5725570
  H        2.1878640    -1.8202610    -0.2948070
  H        3.8478330    -1.2217420    -0.1555610
  H        3.4181100     1.6939920    -1.0681710
  H        3.0282660     2.3570280     0.5308300
  H        4.3384750     1.1791220     0.3530350
  H       -2.8783840    -0.8196920    -0.9355340
  H       -2.9674710    -0.6619300     0.8385710
  H       -3.8465560     1.6647390     0.5984370
  H       -3.7534550     1.5250040    -1.1701160
  H       -4.8990420     0.5201230    -0.2596090
units angstrom
no_reorient  #important for SAPT in psi4, default
symmetry c1  #important for SAPT in psi4, default
}

set PROPERTIES_ORIGIN ["COM"]
properties('MP2/aug-cc-pvtz', properties = ['dipole'])
--------------------------------------------------------------------------

    Molecular point group: c1
  Charge       = 0
  Multiplicity = 1
  Basis Set: AUG-CC-PVTZ
    Blend: AUG-CC-PVTZ
  Basis Set: (AUG-CC-PVTZ AUX)
    Blend: AUG-CC-PVTZ-JKFIT

    Orbital Energies [Eh]
    ---------------------

    Doubly Occupied:

       1A    -92.214115     2A    -20.615103     3A    -20.553776
       4A    -20.553499     5A    -11.302052     6A    -11.278126
       7A    -11.252458     8A    -11.233113     9A    -11.229366
      10A    -11.218402    11A     -9.178323    12A     -6.863778
      13A     -6.862348    14A     -6.862160    15A     -1.481125
      16A     -1.375187    17A     -1.337437    18A     -1.122291
      19A     -1.051955    20A     -0.997788    21A     -0.944614
      22A     -0.877144    23A     -0.830611    24A     -0.784513
      25A     -0.725355    26A     -0.693027    27A     -0.690567
      28A     -0.657359    29A     -0.635224    30A     -0.617798
      31A     -0.607023    32A     -0.587036    33A     -0.567235
      34A     -0.558924    35A     -0.554785    36A     -0.544205
      37A     -0.537737    38A     -0.511137    39A     -0.500652
      40A     -0.496920    41A     -0.493628    42A     -0.485367
      43A     -0.474681    44A     -0.463292    45A     -0.454899

  @DF-RHF Final Energy:  -857.62537485623182

   => Energetics <=

    Nuclear Repulsion Energy =            722.6246433145357742
    One-Electron Energy =               -2612.7477690681807871
    Two-Electron Energy =                1032.4977508974131979
    Total Energy =                       -857.6253748562319288
  Basis Set: (AUG-CC-PVTZ AUX)
    Blend: AUG-CC-PVTZ-RI
    Molecular point group: c1

    Geometry (in Angstrom), charge = 0, multiplicity = 1:

       Center              X                  Y                   Z               Mass
    ------------   -----------------  -----------------  -----------------  -----------------
         S           -0.264019992555    -0.398743463720     0.150048091916    31.972071174400
         O           -1.535148992555     0.604692536280    -0.116524908084    15.994914619570
         O           -0.320182992555    -1.483860463720    -0.831903908084    15.994914619570
         O           -0.185334992555    -0.717752463720     1.576579091916    15.994914619570
         C            2.401245407445     0.339040036280     0.181219491916    12.000000000000
         C            1.004784007445     0.785681536280    -0.258132908084    12.000000000000
         C            2.868671007445    -0.927561463720    -0.504661908084    12.000000000000
         C            3.371666007445     1.491187536280    -0.017831908084    12.000000000000
         C           -2.828296992555    -0.075960463720    -0.117440908084    12.000000000000
         C           -3.871529992555     1.007274536280    -0.257198908084    12.000000000000
         H            2.328979007445     0.137998536280     1.282638091916     1.007825032230
         H            0.962713007445     0.927748536280    -1.342661908084     1.007825032230
         H            0.705135007445     1.715239536280     0.234856091916     1.007825032230
         H            2.899784007445    -0.768702463720    -1.588087908084     1.007825032230
         H            2.218504007445    -1.782918463720    -0.310337908084     1.007825032230
         H            3.878473007445    -1.184399463720    -0.171091908084     1.007825032230
         H            3.448750007445     1.731334536280    -1.083701908084     1.007825032230
         H            3.058906007445     2.394370536280     0.515299091916     1.007825032230
         H            4.369115007445     1.216464536280     0.337504091916     1.007825032230
         H           -2.847743992555    -0.782349463720    -0.951064908084     1.007825032230
         H           -2.936830992555    -0.624587463720     0.823040091916     1.007825032230
         H           -3.815915992555     1.702081536280     0.582906091916     1.007825032230
         H           -3.722814992555     1.562346536280    -1.185646908084     1.007825032230
         H           -4.868401992555     0.557465536280    -0.275139908084     1.007825032230

  Basis Set: AUG-CC-PVTZ
    Blend: AUG-CC-PVTZ
  Basis Set: (AUG-CC-PVTZ AUX)
    Blend: AUG-CC-PVTZ-JKFIT
	 Reference Energy          =    -857.6253748562318151 [Eh]
	 Singles Energy            =      -0.0000000000000000 [Eh]
	 Same-Spin Energy          =      -0.5254577504639875 [Eh]
	 Opposite-Spin Energy      =      -1.6810011852260445 [Eh]
	 Correlation Energy        =      -2.2064589356900317 [Eh]
	 Total Energy              =    -859.8318337919218948 [Eh]

	 ================> DF-SCS-MP2 Energies <==================
	-----------------------------------------------------------
	 SCS Same-Spin Scale       =       0.3333333333333333 [-]
	 SCS Opposite-Spin Scale   =       1.2000000000000000 [-]
	 SCS Same-Spin Energy      =      -0.1751525834879958 [Eh]
	 SCS Opposite-Spin Energy  =      -2.0172014222712531 [Eh]
	 SCS Correlation Energy    =      -2.1923540057592490 [Eh]
	 SCS Total Energy          =    -859.8177288619910996 [Eh]
	-----------------------------------------------------------

  Dipole Moment: [D]
     X:    -0.0691      Y:     2.7041      Z:    -1.0491     Total:     2.9013

*** Psi4 exiting successfully. Buy a developer a beer!
