                               Psi4 1.4a3.dev225

  ==> Input File <==

--------------------------------------------------------------------------
#psi4
#
memory 32 gb

molecule  {
0 1
  S       -0.2946600    -0.4360860     0.1655790
  O       -1.5657890     0.5673500    -0.1009940
  O       -0.3508230    -1.5212030    -0.8163730
  O       -0.2159750    -0.7550950     1.5921100
  C        2.3455645     0.1758240     0.1235346
  C        0.9741440     0.7483390    -0.2426020
  C        2.8380310    -0.9649040    -0.4891310
  C        3.3410260     1.4538450    -0.0023010
  C       -2.8589370    -0.1133030    -0.1019100
  C       -3.9021700     0.9699320    -0.2416680
  H        2.2983390     0.1006560     1.2981690
  H        0.9320730     0.8904060    -1.3271310
  H        0.6744950     1.6778970     0.2503870
  H        2.8691440    -0.8060450    -1.5725570
  H        2.1878640    -1.8202610    -0.2948070
  H        3.8478330    -1.2217420    -0.1555610
  H        3.4181100     1.6939920    -1.0681710
  H        3.0282660     2.3570280     0.5308300
  H        4.3384750     1.1791220     0.3530350
  H       -2.8783840    -0.8196920    -0.9355340
  H       -2.9674710    -0.6619300     0.8385710
  H       -3.8465560     1.6647390     0.5984370
  H       -3.7534550     1.5250040    -1.1701160
  H       -4.8990420     0.5201230    -0.2596090
units angstrom
no_reorient  #important for SAPT in psi4, default
symmetry c1  #important for SAPT in psi4, default
}

set PROPERTIES_ORIGIN ["COM"]
properties('MP2/aug-cc-pvtz', properties = ['dipole'])
--------------------------------------------------------------------------

    Molecular point group: c1
  Charge       = 0
  Multiplicity = 1
  Basis Set: AUG-CC-PVTZ
    Blend: AUG-CC-PVTZ
  Basis Set: (AUG-CC-PVTZ AUX)
    Blend: AUG-CC-PVTZ-JKFIT

    Orbital Energies [Eh]
    ---------------------

    Doubly Occupied:

       1A    -92.212147     2A    -20.613995     3A    -20.553822
       4A    -20.553158     5A    -11.301464     6A    -11.281218
       7A    -11.257412     8A    -11.232753     9A    -11.232604
      10A    -11.214674    11A     -9.176681    12A     -6.862151
      13A     -6.860617    14A     -6.860465    15A     -1.480652
      16A     -1.374629    17A     -1.337223    18A     -1.129428
      19A     -1.053095    20A     -1.004106    21A     -0.946844
      22A     -0.876572    23A     -0.829158    24A     -0.778304
      25A     -0.725274    26A     -0.693332    27A     -0.689811
      28A     -0.660908    29A     -0.636543    30A     -0.623473
      31A     -0.605663    32A     -0.589060    33A     -0.566190
      34A     -0.559973    35A     -0.557272    36A     -0.547539
      37A     -0.538308    38A     -0.530300    39A     -0.503608
      40A     -0.497346    41A     -0.495329    42A     -0.483221
      43A     -0.463346    44A     -0.456614    45A     -0.431793

  @DF-RHF Final Energy:  -857.59699694363928

   => Energetics <=

    Nuclear Repulsion Energy =            723.6515229556540589
    One-Electron Energy =               -2614.7408941893800147
    Two-Electron Energy =                1033.4923742900869001
    Total Energy =                       -857.5969969436391693
  Basis Set: (AUG-CC-PVTZ AUX)
    Blend: AUG-CC-PVTZ-RI
    Molecular point group: c1

    Geometry (in Angstrom), charge = 0, multiplicity = 1:

       Center              X                  Y                   Z               Mass
    ------------   -----------------  -----------------  -----------------  -----------------
         S           -0.262210530422    -0.389647810933     0.155338685212    31.972071174400
         O           -1.533339530422     0.613788189067    -0.111234314788    15.994914619570
         O           -0.318373530422    -1.474764810933    -0.826613314788    15.994914619570
         O           -0.183525530422    -0.708656810933     1.581869685212    15.994914619570
         C            2.378013969578     0.222262189067     0.113294285212    12.000000000000
         C            1.006593469578     0.794777189067    -0.252842314788    12.000000000000
         C            2.870480469578    -0.918465810933    -0.499371314788    12.000000000000
         C            3.373475469578     1.500283189067    -0.012541314788    12.000000000000
         C           -2.826487530422    -0.066864810933    -0.112150314788    12.000000000000
         C           -3.869720530422     1.016370189067    -0.251908314788    12.000000000000
         H            2.330788469578     0.147094189067     1.287928685212     1.007825032230
         H            0.964522469578     0.936844189067    -1.337371314788     1.007825032230
         H            0.706944469578     1.724335189067     0.240146685212     1.007825032230
         H            2.901593469578    -0.759606810933    -1.582797314788     1.007825032230
         H            2.220313469578    -1.773822810933    -0.305047314788     1.007825032230
         H            3.880282469578    -1.175303810933    -0.165801314788     1.007825032230
         H            3.450559469578     1.740430189067    -1.078411314788     1.007825032230
         H            3.060715469578     2.403466189067     0.520589685212     1.007825032230
         H            4.370924469578     1.225560189067     0.342794685212     1.007825032230
         H           -2.845934530422    -0.773253810933    -0.945774314788     1.007825032230
         H           -2.935021530422    -0.615491810933     0.828330685212     1.007825032230
         H           -3.814106530422     1.711177189067     0.588196685212     1.007825032230
         H           -3.721005530422     1.571442189067    -1.180356314788     1.007825032230
         H           -4.866592530422     0.566561189067    -0.269849314788     1.007825032230

  Basis Set: AUG-CC-PVTZ
    Blend: AUG-CC-PVTZ
  Basis Set: (AUG-CC-PVTZ AUX)
    Blend: AUG-CC-PVTZ-JKFIT
	 Reference Energy          =    -857.5969969436392830 [Eh]
	 Singles Energy            =      -0.0000000000000000 [Eh]
	 Same-Spin Energy          =      -0.5270321063368494 [Eh]
	 Opposite-Spin Energy      =      -1.6835215625350073 [Eh]
	 Correlation Energy        =      -2.2105536688718566 [Eh]
	 Total Energy              =    -859.8075506125111360 [Eh]

	 ================> DF-SCS-MP2 Energies <==================
	-----------------------------------------------------------
	 SCS Same-Spin Scale       =       0.3333333333333333 [-]
	 SCS Opposite-Spin Scale   =       1.2000000000000000 [-]
	 SCS Same-Spin Energy      =      -0.1756773687789498 [Eh]
	 SCS Opposite-Spin Energy  =      -2.0202258750420086 [Eh]
	 SCS Correlation Energy    =      -2.1959032438209585 [Eh]
	 SCS Total Energy          =    -859.7929001874601909 [Eh]
	-----------------------------------------------------------

  Dipole Moment: [D]
     X:    -0.0281      Y:     2.6194      Z:    -1.0897     Total:     2.8372

*** Psi4 exiting successfully. Buy a developer a beer!
