                               Psi4 1.4a3.dev225

  ==> Input File <==

--------------------------------------------------------------------------
#psi4
#
memory 32 gb

molecule  {
0 1
  S       -0.2946600    -0.4360860     0.1655790
  O       -1.5657890     0.5673500    -0.1009940
  O       -0.3508230    -1.5212030    -0.8163730
  O       -0.2159750    -0.7550950     1.5921100
  C        2.3621670     0.3010360     0.2220870
  C        0.9741440     0.7483390    -0.2426020
  C        2.8380310    -0.9649040    -0.4891310
  C        3.3410260     1.4538450    -0.0023010
  C       -2.8589370    -0.1133030    -0.1019100
  C       -3.9021700     0.9699320    -0.2416680
  H        2.2983390     0.1006560     1.2981690
  H        0.9320730     0.8904060    -1.3271310
  H        0.6744950     1.6778970     0.2503870
  H        2.8691440    -0.8060450    -1.5725570
  H        2.1878640    -1.8202610    -0.2948070
  H        3.8478330    -1.2217420    -0.1555610
  H        3.4181100     1.6939920    -1.0681710
  H        3.0282660     2.3570280     0.5308300
  H        4.3840660     1.1665651     0.3692765
  H       -2.8783840    -0.8196920    -0.9355340
  H       -2.9674710    -0.6619300     0.8385710
  H       -3.8465560     1.6647390     0.5984370
  H       -3.7534550     1.5250040    -1.1701160
  H       -4.8990420     0.5201230    -0.2596090
units angstrom
no_reorient  #important for SAPT in psi4, default
symmetry c1  #important for SAPT in psi4, default
}

set PROPERTIES_ORIGIN ["COM"]
properties('MP2/aug-cc-pvtz', properties = ['dipole'])
--------------------------------------------------------------------------

    Molecular point group: c1
  Charge       = 0
  Multiplicity = 1
  Basis Set: AUG-CC-PVTZ
    Blend: AUG-CC-PVTZ
  Basis Set: (AUG-CC-PVTZ AUX)
    Blend: AUG-CC-PVTZ-JKFIT

    Orbital Energies [Eh]
    ---------------------

    Doubly Occupied:

       1A    -92.214146     2A    -20.615130     3A    -20.553911
       4A    -20.553768     5A    -11.302079     6A    -11.278568
       7A    -11.251961     8A    -11.235516     9A    -11.233162
      10A    -11.218604    11A     -9.178382    12A     -6.863838
      13A     -6.862397    14A     -6.862218    15A     -1.481267
      16A     -1.375300    17A     -1.337642    18A     -1.120908
      19A     -1.051534    20A     -0.996015    21A     -0.940216
      22A     -0.876650    23A     -0.830434    24A     -0.787689
      25A     -0.725182    26A     -0.693073    27A     -0.690516
      28A     -0.657046    29A     -0.635123    30A     -0.615990
      31A     -0.606009    32A     -0.585613    33A     -0.567117
      34A     -0.558808    35A     -0.554946    36A     -0.540647
      37A     -0.535311    38A     -0.510296    39A     -0.500201
      40A     -0.496940    41A     -0.489488    42A     -0.485655
      43A     -0.482693    44A     -0.463516    45A     -0.453653

  @DF-RHF Final Energy:  -857.62439833944450

   => Energetics <=

    Nuclear Repulsion Energy =            722.3459279820039001
    One-Electron Energy =               -2612.2023353400618362
    Two-Electron Energy =                1032.2320090186133257
    Total Energy =                       -857.6243983394444967
  Basis Set: (AUG-CC-PVTZ AUX)
    Blend: AUG-CC-PVTZ-RI
    Molecular point group: c1

    Geometry (in Angstrom), charge = 0, multiplicity = 1:

       Center              X                  Y                   Z               Mass
    ------------   -----------------  -----------------  -----------------  -----------------
         S           -0.263686914579    -0.398619458127     0.148118695862    31.972071174400
         O           -1.534815914579     0.604816541873    -0.118454304138    15.994914619570
         O           -0.319849914579    -1.483736458127    -0.833833304138    15.994914619570
         O           -0.185001914579    -0.717628458127     1.574649695862    15.994914619570
         C            2.393140085421     0.338502541873     0.204626695862    12.000000000000
         C            1.005117085421     0.785805541873    -0.260062304138    12.000000000000
         C            2.869004085421    -0.927437458127    -0.506591304138    12.000000000000
         C            3.371999085421     1.491311541873    -0.019761304138    12.000000000000
         C           -2.827963914579    -0.075836458127    -0.119370304138    12.000000000000
         C           -3.871196914579     1.007398541873    -0.259128304138    12.000000000000
         H            2.329312085421     0.138122541873     1.280708695862     1.007825032230
         H            0.963046085421     0.927872541873    -1.344591304138     1.007825032230
         H            0.705468085421     1.715363541873     0.232926695862     1.007825032230
         H            2.900117085421    -0.768578458127    -1.590017304138     1.007825032230
         H            2.218837085421    -1.782794458127    -0.312267304138     1.007825032230
         H            3.878806085421    -1.184275458127    -0.173021304138     1.007825032230
         H            3.449083085421     1.731458541873    -1.085631304138     1.007825032230
         H            3.059239085421     2.394494541873     0.513369695862     1.007825032230
         H            4.415039085421     1.204031641873     0.351816195862     1.007825032230
         H           -2.847410914579    -0.782225458127    -0.952994304138     1.007825032230
         H           -2.936497914579    -0.624463458127     0.821110695862     1.007825032230
         H           -3.815582914579     1.702205541873     0.580976695862     1.007825032230
         H           -3.722481914579     1.562470541873    -1.187576304138     1.007825032230
         H           -4.868068914579     0.557589541873    -0.277069304138     1.007825032230

  Basis Set: AUG-CC-PVTZ
    Blend: AUG-CC-PVTZ
  Basis Set: (AUG-CC-PVTZ AUX)
    Blend: AUG-CC-PVTZ-JKFIT
	 Reference Energy          =    -857.6243983394444967 [Eh]
	 Singles Energy            =      -0.0000000000000000 [Eh]
	 Same-Spin Energy          =      -0.5252977105034786 [Eh]
	 Opposite-Spin Energy      =      -1.6811522644977575 [Eh]
	 Correlation Energy        =      -2.2064499750012363 [Eh]
	 Total Energy              =    -859.8308483144456886 [Eh]

	 ================> DF-SCS-MP2 Energies <==================
	-----------------------------------------------------------
	 SCS Same-Spin Scale       =       0.3333333333333333 [-]
	 SCS Opposite-Spin Scale   =       1.2000000000000000 [-]
	 SCS Same-Spin Energy      =      -0.1750992368344929 [Eh]
	 SCS Opposite-Spin Energy  =      -2.0173827173973087 [Eh]
	 SCS Correlation Energy    =      -2.1924819542318015 [Eh]
	 SCS Total Energy          =    -859.8168802936762631 [Eh]
	-----------------------------------------------------------

  Dipole Moment: [D]
     X:    -0.1038      Y:     2.7066      Z:    -1.0511     Total:     2.9054

*** Psi4 exiting successfully. Buy a developer a beer!
