                               Psi4 1.4a3.dev225

  ==> Input File <==

--------------------------------------------------------------------------
#psi4
#
memory 32 gb

molecule  {
0 1
  S       -0.2946600    -0.4360860     0.1655790
  O       -1.5657890     0.5673500    -0.1009940
  O       -0.3508230    -1.5212030    -0.8163730
  O       -0.2159750    -0.7550950     1.5921100
  C        2.3621670     0.3010360     0.2220870
  C        0.9741440     0.7483390    -0.2426020
  C        2.8380310    -0.9649040    -0.4891310
  C        3.3410260     1.4538450    -0.0023010
  C       -2.8589370    -0.1133030    -0.1019100
  C       -3.9021700     0.9699320    -0.2416680
  H        2.2983390     0.1006560     1.2981690
  H        0.9359165     0.8774271    -1.2280514
  H        0.6744950     1.6778970     0.2503870
  H        2.8691440    -0.8060450    -1.5725570
  H        2.1878640    -1.8202610    -0.2948070
  H        3.8478330    -1.2217420    -0.1555610
  H        3.4181100     1.6939920    -1.0681710
  H        3.0282660     2.3570280     0.5308300
  H        4.3384750     1.1791220     0.3530350
  H       -2.8783840    -0.8196920    -0.9355340
  H       -2.9674710    -0.6619300     0.8385710
  H       -3.8465560     1.6647390     0.5984370
  H       -3.7534550     1.5250040    -1.1701160
  H       -4.8990420     0.5201230    -0.2596090
units angstrom
no_reorient  #important for SAPT in psi4, default
symmetry c1  #important for SAPT in psi4, default
}

set PROPERTIES_ORIGIN ["COM"]
properties('MP2/aug-cc-pvtz', properties = ['dipole'])
--------------------------------------------------------------------------

    Molecular point group: c1
  Charge       = 0
  Multiplicity = 1
  Basis Set: AUG-CC-PVTZ
    Blend: AUG-CC-PVTZ
  Basis Set: (AUG-CC-PVTZ AUX)
    Blend: AUG-CC-PVTZ-JKFIT

    Orbital Energies [Eh]
    ---------------------

    Doubly Occupied:

       1A    -92.213507     2A    -20.615050     3A    -20.554001
       4A    -20.553049     5A    -11.301980     6A    -11.267081
       7A    -11.250922     8A    -11.233092     9A    -11.229575
      10A    -11.218659    11A     -9.177814    12A     -6.863264
      13A     -6.861811    14A     -6.861648    15A     -1.481086
      16A     -1.375143    17A     -1.337371    18A     -1.124479
      19A     -1.051813    20A     -1.001390    21A     -0.942422
      22A     -0.878553    23A     -0.831019    24A     -0.794306
      25A     -0.726710    26A     -0.695479    27A     -0.692592
      28A     -0.657847    29A     -0.635104    30A     -0.618394
      31A     -0.607512    32A     -0.594481    33A     -0.567650
      34A     -0.559465    35A     -0.554794    36A     -0.544076
      37A     -0.537480    38A     -0.509919    39A     -0.500041
      40A     -0.497044    41A     -0.490295    42A     -0.487208
      43A     -0.482537    44A     -0.463328    45A     -0.453662

  @DF-RHF Final Energy:  -857.62078756794358

   => Energetics <=

    Nuclear Repulsion Energy =            723.1644935391930176
    One-Electron Energy =               -2613.7812510278417903
    Two-Electron Energy =                1032.9959699207051926
    Total Energy =                       -857.6207875679435801
  Basis Set: (AUG-CC-PVTZ AUX)
    Blend: AUG-CC-PVTZ-RI
    Molecular point group: c1

    Geometry (in Angstrom), charge = 0, multiplicity = 1:

       Center              X                  Y                   Z               Mass
    ------------   -----------------  -----------------  -----------------  -----------------
         S           -0.263433556980    -0.398616897089     0.147615967266    31.972071174400
         O           -1.534562556980     0.604819102911    -0.118957032734    15.994914619570
         O           -0.319596556980    -1.483733897089    -0.834336032734    15.994914619570
         O           -0.184748556980    -0.717625897089     1.574146967266    15.994914619570
         C            2.393393443020     0.338505102911     0.204123967266    12.000000000000
         C            1.005370443020     0.785808102911    -0.260565032734    12.000000000000
         C            2.869257443020    -0.927434897089    -0.507094032734    12.000000000000
         C            3.372252443020     1.491314102911    -0.020264032734    12.000000000000
         C           -2.827710556980    -0.075833897089    -0.119873032734    12.000000000000
         C           -3.870943556980     1.007401102911    -0.259631032734    12.000000000000
         H            2.329565443020     0.138125102911     1.280205967266     1.007825032230
         H            0.967142943020     0.914896202911    -1.246014432734     1.007825032230
         H            0.705721443020     1.715366102911     0.232423967266     1.007825032230
         H            2.900370443020    -0.768575897089    -1.590520032734     1.007825032230
         H            2.219090443020    -1.782791897089    -0.312770032734     1.007825032230
         H            3.879059443020    -1.184272897089    -0.173524032734     1.007825032230
         H            3.449336443020     1.731461102911    -1.086134032734     1.007825032230
         H            3.059492443020     2.394497102911     0.512866967266     1.007825032230
         H            4.369701443020     1.216591102911     0.335071967266     1.007825032230
         H           -2.847157556980    -0.782222897089    -0.953497032734     1.007825032230
         H           -2.936244556980    -0.624460897089     0.820607967266     1.007825032230
         H           -3.815329556980     1.702208102911     0.580473967266     1.007825032230
         H           -3.722228556980     1.562473102911    -1.188079032734     1.007825032230
         H           -4.867815556980     0.557592102911    -0.277572032734     1.007825032230

  Basis Set: AUG-CC-PVTZ
    Blend: AUG-CC-PVTZ
  Basis Set: (AUG-CC-PVTZ AUX)
    Blend: AUG-CC-PVTZ-JKFIT
	 Reference Energy          =    -857.6207875679435801 [Eh]
	 Singles Energy            =      -0.0000000000000000 [Eh]
	 Same-Spin Energy          =      -0.5251236456641810 [Eh]
	 Opposite-Spin Energy      =      -1.6802050775137620 [Eh]
	 Correlation Energy        =      -2.2053287231779430 [Eh]
	 Total Energy              =    -859.8261162911214797 [Eh]

	 ================> DF-SCS-MP2 Energies <==================
	-----------------------------------------------------------
	 SCS Same-Spin Scale       =       0.3333333333333333 [-]
	 SCS Opposite-Spin Scale   =       1.2000000000000000 [-]
	 SCS Same-Spin Energy      =      -0.1750412152213937 [Eh]
	 SCS Opposite-Spin Energy  =      -2.0162460930165143 [Eh]
	 SCS Correlation Energy    =      -2.1912873082379081 [Eh]
	 SCS Total Energy          =    -859.8120748761814411 [Eh]
	-----------------------------------------------------------

  Dipole Moment: [D]
     X:    -0.0720      Y:     2.7155      Z:    -1.0508     Total:     2.9126

*** Psi4 exiting successfully. Buy a developer a beer!
