                               Psi4 1.4a3.dev225

  ==> Input File <==

--------------------------------------------------------------------------
#psi4
#
memory 32 gb

molecule  {
0 1
  S       -0.2946600    -0.4360860     0.1655790
  O       -1.5657890     0.5673500    -0.1009940
  O       -0.3508230    -1.5212030    -0.8163730
  O       -0.2159750    -0.7550950     1.5921100
  C        2.3621670     0.3010360     0.2220870
  C        0.9741440     0.7483390    -0.2426020
  C        2.8380310    -0.9649040    -0.4891310
  C        3.3410260     1.4538450    -0.0023010
  C       -2.8766351    -0.1226184    -0.1019225
  C       -3.9021700     0.9699320    -0.2416680
  H        2.2983390     0.1006560     1.2981690
  H        0.9320730     0.8904060    -1.3271310
  H        0.6744950     1.6778970     0.2503870
  H        2.8691440    -0.8060450    -1.5725570
  H        2.1878640    -1.8202610    -0.2948070
  H        3.8478330    -1.2217420    -0.1555610
  H        3.4181100     1.6939920    -1.0681710
  H        3.0282660     2.3570280     0.5308300
  H        4.3384750     1.1791220     0.3530350
  H       -2.8783840    -0.8196920    -0.9355340
  H       -2.9674710    -0.6619300     0.8385710
  H       -3.8465560     1.6647390     0.5984370
  H       -3.7534550     1.5250040    -1.1701160
  H       -4.8990420     0.5201230    -0.2596090
units angstrom
no_reorient  #important for SAPT in psi4, default
symmetry c1  #important for SAPT in psi4, default
}

set PROPERTIES_ORIGIN ["COM"]
properties('MP2/aug-cc-pvtz', properties = ['dipole'])
--------------------------------------------------------------------------

    Molecular point group: c1
  Charge       = 0
  Multiplicity = 1
  Basis Set: AUG-CC-PVTZ
    Blend: AUG-CC-PVTZ
  Basis Set: (AUG-CC-PVTZ AUX)
    Blend: AUG-CC-PVTZ-JKFIT

    Orbital Energies [Eh]
    ---------------------

    Doubly Occupied:

       1A    -92.212579     2A    -20.612727     3A    -20.552683
       4A    -20.552502     5A    -11.302903     6A    -11.277232
       7A    -11.250859     8A    -11.233869     9A    -11.229052
      10A    -11.218135    11A     -9.176801    12A     -6.862239
      13A     -6.860830    14A     -6.860659    15A     -1.478389
      16A     -1.370275    17A     -1.336482    18A     -1.120185
      19A     -1.053001    20A     -0.996516    21A     -0.941854
      22A     -0.876222    23A     -0.831145    24A     -0.787125
      25A     -0.722649    26A     -0.691901    27A     -0.689545
      28A     -0.656745    29A     -0.634932    30A     -0.615161
      31A     -0.604653    32A     -0.586158    33A     -0.566647
      34A     -0.558278    35A     -0.553551    36A     -0.543309
      37A     -0.539745    38A     -0.509531    39A     -0.501422
      40A     -0.497895    41A     -0.489960    42A     -0.484973
      43A     -0.482096    44A     -0.462808    45A     -0.452616

  @DF-RHF Final Energy:  -857.62595623548873

   => Energetics <=

    Nuclear Repulsion Energy =            722.1733505183331090
    One-Electron Energy =               -2611.9209383329771299
    Two-Electron Energy =                1032.1216315791552915
    Total Energy =                       -857.6259562354887294
  Basis Set: (AUG-CC-PVTZ AUX)
    Blend: AUG-CC-PVTZ-RI
    Molecular point group: c1

    Geometry (in Angstrom), charge = 0, multiplicity = 1:

       Center              X                  Y                   Z               Mass
    ------------   -----------------  -----------------  -----------------  -----------------
         S           -0.262131362072    -0.398022530256     0.148218165675    31.972071174400
         O           -1.533260362072     0.605413469744    -0.118354834325    15.994914619570
         O           -0.318294362072    -1.483139530256    -0.833733834325    15.994914619570
         O           -0.183446362072    -0.717031530256     1.574749165675    15.994914619570
         C            2.394695637928     0.339099469744     0.204726165675    12.000000000000
         C            1.006672637928     0.786402469744    -0.259962834325    12.000000000000
         C            2.870559637928    -0.926840530256    -0.506491834325    12.000000000000
         C            3.373554637928     1.491908469744    -0.019661834325    12.000000000000
         C           -2.844106462072    -0.084554930256    -0.119283334325    12.000000000000
         C           -3.869641362072     1.007995469744    -0.259028834325    12.000000000000
         H            2.330867637928     0.138719469744     1.280808165675     1.007825032230
         H            0.964601637928     0.928469469744    -1.344491834325     1.007825032230
         H            0.707023637928     1.715960469744     0.233026165675     1.007825032230
         H            2.901672637928    -0.767981530256    -1.589917834325     1.007825032230
         H            2.220392637928    -1.782197530256    -0.312167834325     1.007825032230
         H            3.880361637928    -1.183678530256    -0.172921834325     1.007825032230
         H            3.450638637928     1.732055469744    -1.085531834325     1.007825032230
         H            3.060794637928     2.395091469744     0.513469165675     1.007825032230
         H            4.371003637928     1.217185469744     0.335674165675     1.007825032230
         H           -2.845855362072    -0.781628530256    -0.952894834325     1.007825032230
         H           -2.934942362072    -0.623866530256     0.821210165675     1.007825032230
         H           -3.814027362072     1.702802469744     0.581076165675     1.007825032230
         H           -3.720926362072     1.563067469744    -1.187476834325     1.007825032230
         H           -4.866513362072     0.558186469744    -0.276969834325     1.007825032230

  Basis Set: AUG-CC-PVTZ
    Blend: AUG-CC-PVTZ
  Basis Set: (AUG-CC-PVTZ AUX)
    Blend: AUG-CC-PVTZ-JKFIT
	 Reference Energy          =    -857.6259562354887294 [Eh]
	 Singles Energy            =      -0.0000000000000000 [Eh]
	 Same-Spin Energy          =      -0.5253121080569458 [Eh]
	 Opposite-Spin Energy      =      -1.6809756879327737 [Eh]
	 Correlation Energy        =      -2.2062877959897196 [Eh]
	 Total Energy              =    -859.8322440314784672 [Eh]

	 ================> DF-SCS-MP2 Energies <==================
	-----------------------------------------------------------
	 SCS Same-Spin Scale       =       0.3333333333333333 [-]
	 SCS Opposite-Spin Scale   =       1.2000000000000000 [-]
	 SCS Same-Spin Energy      =      -0.1751040360189819 [Eh]
	 SCS Opposite-Spin Energy  =      -2.0171708255193286 [Eh]
	 SCS Correlation Energy    =      -2.1922748615383103 [Eh]
	 SCS Total Energy          =    -859.8182310970270237 [Eh]
	-----------------------------------------------------------

  Dipole Moment: [D]
     X:    -0.1727      Y:     2.7024      Z:    -1.0496     Total:     2.9042

*** Psi4 exiting successfully. Buy a developer a beer!
