                               Psi4 1.4a3.dev225

  ==> Input File <==

--------------------------------------------------------------------------
#psi4
#
memory 32 gb

molecule  {
0 1
  S       -0.2946600    -0.4360860     0.1655790
  O       -1.5657890     0.5673500    -0.1009940
  O       -0.3508230    -1.5212030    -0.8163730
  O       -0.2159750    -0.7550950     1.5921100
  C        2.3621670     0.3010360     0.2220870
  C        1.0368984     0.7618967    -0.3893819
  C        2.8380310    -0.9649040    -0.4891310
  C        3.3410260     1.4538450    -0.0023010
  C       -2.8589370    -0.1133030    -0.1019100
  C       -3.9021700     0.9699320    -0.2416680
  H        2.2983390     0.1006560     1.2981690
  H        0.9320730     0.8904060    -1.3271310
  H        0.6744950     1.6778970     0.2503870
  H        2.8691440    -0.8060450    -1.5725570
  H        2.1878640    -1.8202610    -0.2948070
  H        3.8478330    -1.2217420    -0.1555610
  H        3.4181100     1.6939920    -1.0681710
  H        3.0282660     2.3570280     0.5308300
  H        4.3384750     1.1791220     0.3530350
  H       -2.8783840    -0.8196920    -0.9355340
  H       -2.9674710    -0.6619300     0.8385710
  H       -3.8465560     1.6647390     0.5984370
  H       -3.7534550     1.5250040    -1.1701160
  H       -4.8990420     0.5201230    -0.2596090
units angstrom
no_reorient  #important for SAPT in psi4, default
symmetry c1  #important for SAPT in psi4, default
}

set PROPERTIES_ORIGIN ["COM"]
properties('MP2/aug-cc-pvtz', properties = ['dipole'])
--------------------------------------------------------------------------

    Molecular point group: c1
  Charge       = 0
  Multiplicity = 1
  Basis Set: AUG-CC-PVTZ
    Blend: AUG-CC-PVTZ
  Basis Set: (AUG-CC-PVTZ AUX)
    Blend: AUG-CC-PVTZ-JKFIT

    Orbital Energies [Eh]
    ---------------------

    Doubly Occupied:

       1A    -92.210118     2A    -20.613707     3A    -20.557573
       4A    -20.547688     5A    -11.300960     6A    -11.282022
       7A    -11.252934     8A    -11.232423     9A    -11.229135
      10A    -11.217834    11A     -9.174110    12A     -6.859440
      13A     -6.858090    14A     -6.857694    15A     -1.477711
      16A     -1.373545    17A     -1.335572    18A     -1.121470
      19A     -1.048870    20A     -0.991143    21A     -0.942743
      22A     -0.877526    23A     -0.827541    24A     -0.801536
      25A     -0.721114    26A     -0.693430    27A     -0.690182
      28A     -0.649740    29A     -0.635010    30A     -0.627280
      31A     -0.604704    32A     -0.596090    33A     -0.566452
      34A     -0.558668    35A     -0.554024    36A     -0.544957
      37A     -0.536319    38A     -0.504968    39A     -0.502390
      40A     -0.499094    41A     -0.490364    42A     -0.485933
      43A     -0.478798    44A     -0.461959    45A     -0.436137

  @DF-RHF Final Energy:  -857.59631078367408

   => Energetics <=

    Nuclear Repulsion Energy =            720.7565084531017874
    One-Electron Energy =               -2609.0476517022461849
    Two-Electron Energy =                1030.6948324654704265
    Total Energy =                       -857.5963107836739709
  Basis Set: (AUG-CC-PVTZ AUX)
    Blend: AUG-CC-PVTZ-RI
    Molecular point group: c1

    Geometry (in Angstrom), charge = 0, multiplicity = 1:

       Center              X                  Y                   Z               Mass
    ------------   -----------------  -----------------  -----------------  -----------------
         S           -0.267944881247    -0.399675346582     0.158823617265    31.972071174400
         O           -1.539073881247     0.603760653418    -0.107749382735    15.994914619570
         O           -0.324107881247    -1.484792346582    -0.823128382735    15.994914619570
         O           -0.189259881247    -0.718684346582     1.585354617265    15.994914619570
         C            2.388882118753     0.337446653418     0.215331617265    12.000000000000
         C            1.063613518753     0.798307353418    -0.396137282735    12.000000000000
         C            2.864746118753    -0.928493346582    -0.495886382735    12.000000000000
         C            3.367741118753     1.490255653418    -0.009056382735    12.000000000000
         C           -2.832221881247    -0.076892346582    -0.108665382735    12.000000000000
         C           -3.875454881247     1.006342653418    -0.248423382735    12.000000000000
         H            2.325054118753     0.137066653418     1.291413617265     1.007825032230
         H            0.958788118753     0.926816653418    -1.333886382735     1.007825032230
         H            0.701210118753     1.714307653418     0.243631617265     1.007825032230
         H            2.895859118753    -0.769634346582    -1.579312382735     1.007825032230
         H            2.214579118753    -1.783850346582    -0.301562382735     1.007825032230
         H            3.874548118753    -1.185331346582    -0.162316382735     1.007825032230
         H            3.444825118753     1.730402653418    -1.074926382735     1.007825032230
         H            3.054981118753     2.393438653418     0.524074617265     1.007825032230
         H            4.365190118753     1.215532653418     0.346279617265     1.007825032230
         H           -2.851668881247    -0.783281346582    -0.942289382735     1.007825032230
         H           -2.940755881247    -0.625519346582     0.831815617265     1.007825032230
         H           -3.819840881247     1.701149653418     0.591681617265     1.007825032230
         H           -3.726739881247     1.561414653418    -1.176871382735     1.007825032230
         H           -4.872326881247     0.556533653418    -0.266364382735     1.007825032230

  Basis Set: AUG-CC-PVTZ
    Blend: AUG-CC-PVTZ
  Basis Set: (AUG-CC-PVTZ AUX)
    Blend: AUG-CC-PVTZ-JKFIT
	 Reference Energy          =    -857.5963107836740846 [Eh]
	 Singles Energy            =      -0.0000000000000000 [Eh]
	 Same-Spin Energy          =      -0.5256162853594869 [Eh]
	 Opposite-Spin Energy      =      -1.6825041476303548 [Eh]
	 Correlation Energy        =      -2.2081204329898418 [Eh]
	 Total Energy              =    -859.8044312166639429 [Eh]

	 ================> DF-SCS-MP2 Energies <==================
	-----------------------------------------------------------
	 SCS Same-Spin Scale       =       0.3333333333333333 [-]
	 SCS Opposite-Spin Scale   =       1.2000000000000000 [-]
	 SCS Same-Spin Energy      =      -0.1752054284531623 [Eh]
	 SCS Opposite-Spin Energy  =      -2.0190049771564258 [Eh]
	 SCS Correlation Energy    =      -2.1942104056095881 [Eh]
	 SCS Total Energy          =    -859.7905211892837087 [Eh]
	-----------------------------------------------------------

  Dipole Moment: [D]
     X:    -0.0720      Y:     2.6755      Z:    -0.9916     Total:     2.8543

*** Psi4 exiting successfully. Buy a developer a beer!
