                               Psi4 1.4a3.dev225

  ==> Input File <==

--------------------------------------------------------------------------
#psi4
#
memory 32 gb

molecule  {
0 1
  S       -0.2946600    -0.4360860     0.1655790
  O       -1.5657890     0.5673500    -0.1009940
  O       -0.3508230    -1.5212030    -0.8163730
  O       -0.2159750    -0.7550950     1.5921100
  C        2.3647911     0.3873204     0.2850246
  C        0.9741440     0.7483390    -0.2426020
  C        2.8380310    -0.9649040    -0.4891310
  C        3.3410260     1.4538450    -0.0023010
  C       -2.8589370    -0.1133030    -0.1019100
  C       -3.9021700     0.9699320    -0.2416680
  H        2.2983390     0.1006560     1.2981690
  H        0.9320730     0.8904060    -1.3271310
  H        0.6744950     1.6778970     0.2503870
  H        2.8691440    -0.8060450    -1.5725570
  H        2.1878640    -1.8202610    -0.2948070
  H        3.8478330    -1.2217420    -0.1555610
  H        3.4181100     1.6939920    -1.0681710
  H        3.0282660     2.3570280     0.5308300
  H        4.3384750     1.1791220     0.3530350
  H       -2.8783840    -0.8196920    -0.9355340
  H       -2.9674710    -0.6619300     0.8385710
  H       -3.8465560     1.6647390     0.5984370
  H       -3.7534550     1.5250040    -1.1701160
  H       -4.8990420     0.5201230    -0.2596090
units angstrom
no_reorient  #important for SAPT in psi4, default
symmetry c1  #important for SAPT in psi4, default
}

set PROPERTIES_ORIGIN ["COM"]
properties('MP2/aug-cc-pvtz', properties = ['dipole'])
--------------------------------------------------------------------------

    Molecular point group: c1
  Charge       = 0
  Multiplicity = 1
  Basis Set: AUG-CC-PVTZ
    Blend: AUG-CC-PVTZ
  Basis Set: (AUG-CC-PVTZ AUX)
    Blend: AUG-CC-PVTZ-JKFIT

    Orbital Energies [Eh]
    ---------------------

    Doubly Occupied:

       1A    -92.215162     2A    -20.615606     3A    -20.553938
       4A    -20.553906     5A    -11.302288     6A    -11.277859
       7A    -11.250666     8A    -11.233281     9A    -11.228115
      10A    -11.220122    11A     -9.179223    12A     -6.864670
      13A     -6.863289    14A     -6.863081    15A     -1.481477
      16A     -1.375528    17A     -1.337754    18A     -1.120298
      19A     -1.051904    20A     -0.997725    21A     -0.935099
      22A     -0.877700    23A     -0.832288    24A     -0.794072
      25A     -0.725692    26A     -0.693578    27A     -0.691215
      28A     -0.655245    29A     -0.634083    30A     -0.613477
      31A     -0.608281    32A     -0.587006    33A     -0.570927
      34A     -0.561581    35A     -0.555586    36A     -0.541469
      37A     -0.538453    38A     -0.516133    39A     -0.501195
      40A     -0.500329    41A     -0.493281    42A     -0.486912
      43A     -0.466122    44A     -0.461780    45A     -0.449086

  @DF-RHF Final Energy:  -857.61655709418585

   => Energetics <=

    Nuclear Repulsion Energy =            721.9630101913381850
    One-Electron Energy =               -2611.4061700151619334
    Two-Electron Energy =                1031.8266027296381253
    Total Energy =                       -857.6165570941857368
  Basis Set: (AUG-CC-PVTZ AUX)
    Blend: AUG-CC-PVTZ-RI
    Molecular point group: c1

    Geometry (in Angstrom), charge = 0, multiplicity = 1:

       Center              X                  Y                   Z               Mass
    ------------   -----------------  -----------------  -----------------  -----------------
         S           -0.263599849682    -0.404930597382     0.143669374607    31.972071174400
         O           -1.534728849682     0.598505402618    -0.122903625393    15.994914619570
         O           -0.319762849682    -1.490047597382    -0.838282625393    15.994914619570
         O           -0.184914849682    -0.723939597382     1.570200374607    15.994914619570
         C            2.395851250318     0.418475802618     0.263114974607    12.000000000000
         C            1.005204150318     0.779494402618    -0.264511625393    12.000000000000
         C            2.869091150318    -0.933748597382    -0.511040625393    12.000000000000
         C            3.372086150318     1.485000402618    -0.024210625393    12.000000000000
         C           -2.827876849682    -0.082147597382    -0.123819625393    12.000000000000
         C           -3.871109849682     1.001087402618    -0.263577625393    12.000000000000
         H            2.329399150318     0.131811402618     1.276259374607     1.007825032230
         H            0.963133150318     0.921561402618    -1.349040625393     1.007825032230
         H            0.705555150318     1.709052402618     0.228477374607     1.007825032230
         H            2.900204150318    -0.774889597382    -1.594466625393     1.007825032230
         H            2.218924150318    -1.789105597382    -0.316716625393     1.007825032230
         H            3.878893150318    -1.190586597382    -0.177470625393     1.007825032230
         H            3.449170150318     1.725147402618    -1.090080625393     1.007825032230
         H            3.059326150318     2.388183402618     0.508920374607     1.007825032230
         H            4.369535150318     1.210277402618     0.331125374607     1.007825032230
         H           -2.847323849682    -0.788536597382    -0.957443625393     1.007825032230
         H           -2.936410849682    -0.630774597382     0.816661374607     1.007825032230
         H           -3.815495849682     1.695894402618     0.576527374607     1.007825032230
         H           -3.722394849682     1.556159402618    -1.192025625393     1.007825032230
         H           -4.867981849682     0.551278402618    -0.281518625393     1.007825032230

  Basis Set: AUG-CC-PVTZ
    Blend: AUG-CC-PVTZ
  Basis Set: (AUG-CC-PVTZ AUX)
    Blend: AUG-CC-PVTZ-JKFIT
	 Reference Energy          =    -857.6165570941858505 [Eh]
	 Singles Energy            =      -0.0000000000000000 [Eh]
	 Same-Spin Energy          =      -0.5253203719906443 [Eh]
	 Opposite-Spin Energy      =      -1.6812078337739380 [Eh]
	 Correlation Energy        =      -2.2065282057645823 [Eh]
	 Total Energy              =    -859.8230852999504350 [Eh]

	 ================> DF-SCS-MP2 Energies <==================
	-----------------------------------------------------------
	 SCS Same-Spin Scale       =       0.3333333333333333 [-]
	 SCS Opposite-Spin Scale   =       1.2000000000000000 [-]
	 SCS Same-Spin Energy      =      -0.1751067906635481 [Eh]
	 SCS Opposite-Spin Energy  =      -2.0174494005287253 [Eh]
	 SCS Correlation Energy    =      -2.1925561911922733 [Eh]
	 SCS Total Energy          =    -859.8091132853780891 [Eh]
	-----------------------------------------------------------

  Dipole Moment: [D]
     X:    -0.0977      Y:     2.7639      Z:    -1.0239     Total:     2.9491

*** Psi4 exiting successfully. Buy a developer a beer!
