                               Psi4 1.4a3.dev225

  ==> Input File <==

--------------------------------------------------------------------------
#psi4
#
memory 32 gb

molecule  {
0 1
  S       -0.2946600    -0.4360860     0.1655790
  O       -1.5502993     0.5551223    -0.0977456
  O       -0.3508230    -1.5212030    -0.8163730
  O       -0.2159750    -0.7550950     1.5921100
  C        2.3621670     0.3010360     0.2220870
  C        0.9741440     0.7483390    -0.2426020
  C        2.8380310    -0.9649040    -0.4891310
  C        3.3410260     1.4538450    -0.0023010
  C       -2.8589370    -0.1133030    -0.1019100
  C       -3.9021700     0.9699320    -0.2416680
  H        2.2983390     0.1006560     1.2981690
  H        0.9320730     0.8904060    -1.3271310
  H        0.6744950     1.6778970     0.2503870
  H        2.8691440    -0.8060450    -1.5725570
  H        2.1878640    -1.8202610    -0.2948070
  H        3.8478330    -1.2217420    -0.1555610
  H        3.4181100     1.6939920    -1.0681710
  H        3.0282660     2.3570280     0.5308300
  H        4.3384750     1.1791220     0.3530350
  H       -2.8783840    -0.8196920    -0.9355340
  H       -2.9674710    -0.6619300     0.8385710
  H       -3.8465560     1.6647390     0.5984370
  H       -3.7534550     1.5250040    -1.1701160
  H       -4.8990420     0.5201230    -0.2596090
units angstrom
no_reorient  #important for SAPT in psi4, default
symmetry c1  #important for SAPT in psi4, default
}

set PROPERTIES_ORIGIN ["COM"]
properties('MP2/aug-cc-pvtz', properties = ['dipole'])
--------------------------------------------------------------------------

    Molecular point group: c1
  Charge       = 0
  Multiplicity = 1
  Basis Set: AUG-CC-PVTZ
    Blend: AUG-CC-PVTZ
  Basis Set: (AUG-CC-PVTZ AUX)
    Blend: AUG-CC-PVTZ-JKFIT

    Orbital Energies [Eh]
    ---------------------

    Doubly Occupied:

       1A    -92.212460     2A    -20.615352     3A    -20.551600
       4A    -20.551457     5A    -11.304593     6A    -11.276845
       7A    -11.250571     8A    -11.234829     9A    -11.228870
      10A    -11.217891    11A     -9.176744    12A     -6.862268
      13A     -6.860796    14A     -6.860602    15A     -1.483896
      16A     -1.375252    17A     -1.335928    18A     -1.120075
      19A     -1.053849    20A     -0.996310    21A     -0.941639
      22A     -0.879140    23A     -0.830023    24A     -0.787663
      25A     -0.725484    26A     -0.694204    27A     -0.690793
      28A     -0.656200    29A     -0.634634    30A     -0.615889
      31A     -0.606288    32A     -0.585996    33A     -0.568290
      34A     -0.559635    35A     -0.554917    36A     -0.543027
      37A     -0.537784    38A     -0.509110    39A     -0.501541
      40A     -0.497539    41A     -0.489630    42A     -0.484781
      43A     -0.481781    44A     -0.462183    45A     -0.453031

  @DF-RHF Final Energy:  -857.62809539642740

   => Energetics <=

    Nuclear Repulsion Energy =            723.2042093066421558
    One-Electron Energy =               -2613.9418254749257358
    Two-Electron Energy =                1033.1095207718562961
    Total Energy =                       -857.6280953964273976
  Basis Set: (AUG-CC-PVTZ AUX)
    Blend: AUG-CC-PVTZ-RI
    Molecular point group: c1

    Geometry (in Angstrom), charge = 0, multiplicity = 1:

       Center              X                  Y                   Z               Mass
    ------------   -----------------  -----------------  -----------------  -----------------
         S           -0.264902143667    -0.397517935498     0.147904388225    31.972071174400
         O           -1.520541443667     0.593690364502    -0.115420211775    15.994914619570
         O           -0.321065143667    -1.482634935498    -0.834047611775    15.994914619570
         O           -0.186217143667    -0.716526935498     1.574435388225    15.994914619570
         C            2.391924856333     0.339604064502     0.204412388225    12.000000000000
         C            1.003901856333     0.786907064502    -0.260276611775    12.000000000000
         C            2.867788856333    -0.926335935498    -0.506805611775    12.000000000000
         C            3.370783856333     1.492413064502    -0.019975611775    12.000000000000
         C           -2.829179143667    -0.074734935498    -0.119584611775    12.000000000000
         C           -3.872412143667     1.008500064502    -0.259342611775    12.000000000000
         H            2.328096856333     0.139224064502     1.280494388225     1.007825032230
         H            0.961830856333     0.928974064502    -1.344805611775     1.007825032230
         H            0.704252856333     1.716465064502     0.232712388225     1.007825032230
         H            2.898901856333    -0.767476935498    -1.590231611775     1.007825032230
         H            2.217621856333    -1.781692935498    -0.312481611775     1.007825032230
         H            3.877590856333    -1.183173935498    -0.173235611775     1.007825032230
         H            3.447867856333     1.732560064502    -1.085845611775     1.007825032230
         H            3.058023856333     2.395596064502     0.513155388225     1.007825032230
         H            4.368232856333     1.217690064502     0.335360388225     1.007825032230
         H           -2.848626143667    -0.781123935498    -0.953208611775     1.007825032230
         H           -2.937713143667    -0.623361935498     0.820896388225     1.007825032230
         H           -3.816798143667     1.703307064502     0.580762388225     1.007825032230
         H           -3.723697143667     1.563572064502    -1.187790611775     1.007825032230
         H           -4.869284143667     0.558691064502    -0.277283611775     1.007825032230

  Basis Set: AUG-CC-PVTZ
    Blend: AUG-CC-PVTZ
  Basis Set: (AUG-CC-PVTZ AUX)
    Blend: AUG-CC-PVTZ-JKFIT
	 Reference Energy          =    -857.6280953964273976 [Eh]
	 Singles Energy            =      -0.0000000000000000 [Eh]
	 Same-Spin Energy          =      -0.5249095941517229 [Eh]
	 Opposite-Spin Energy      =      -1.6798467473317920 [Eh]
	 Correlation Energy        =      -2.2047563414835150 [Eh]
	 Total Energy              =    -859.8328517379109144 [Eh]

	 ================> DF-SCS-MP2 Energies <==================
	-----------------------------------------------------------
	 SCS Same-Spin Scale       =       0.3333333333333333 [-]
	 SCS Opposite-Spin Scale   =       1.2000000000000000 [-]
	 SCS Same-Spin Energy      =      -0.1749698647172410 [Eh]
	 SCS Opposite-Spin Energy  =      -2.0158160967981504 [Eh]
	 SCS Correlation Energy    =      -2.1907859615153913 [Eh]
	 SCS Total Energy          =    -859.8188813579428142 [Eh]
	-----------------------------------------------------------

  Dipole Moment: [D]
     X:    -0.2363      Y:     2.7637      Z:    -1.0634     Total:     2.9706

*** Psi4 exiting successfully. Buy a developer a beer!
