                               Psi4 1.4a3.dev225

  ==> Input File <==

--------------------------------------------------------------------------
#psi4
#
memory 32 gb

molecule  {
0 1
  S       -0.2946600    -0.4360860     0.1655790
  O       -1.5657890     0.5673500    -0.1009940
  O       -0.3508230    -1.5212030    -0.8163730
  O       -0.2159750    -0.7550950     1.5921100
  C        2.3621670     0.3010360     0.2220870
  C        0.9741440     0.7483390    -0.2426020
  C        2.8380310    -0.9649040    -0.4891310
  C        3.3410260     1.4538450    -0.0023010
  C       -2.8589370    -0.1133030    -0.1019100
  C       -3.9021700     0.9699320    -0.2416680
  H        2.2983390     0.1006560     1.2981690
  H        0.9320730     0.8904060    -1.3271310
  H        0.7292738     1.5079645     0.1602637
  H        2.8691440    -0.8060450    -1.5725570
  H        2.1878640    -1.8202610    -0.2948070
  H        3.8478330    -1.2217420    -0.1555610
  H        3.4181100     1.6939920    -1.0681710
  H        3.0282660     2.3570280     0.5308300
  H        4.3384750     1.1791220     0.3530350
  H       -2.8783840    -0.8196920    -0.9355340
  H       -2.9674710    -0.6619300     0.8385710
  H       -3.8465560     1.6647390     0.5984370
  H       -3.7534550     1.5250040    -1.1701160
  H       -4.8990420     0.5201230    -0.2596090
units angstrom
no_reorient  #important for SAPT in psi4, default
symmetry c1  #important for SAPT in psi4, default
}

set PROPERTIES_ORIGIN ["COM"]
properties('MP2/aug-cc-pvtz', properties = ['dipole'])
--------------------------------------------------------------------------

    Molecular point group: c1
  Charge       = 0
  Multiplicity = 1
  Basis Set: AUG-CC-PVTZ
    Blend: AUG-CC-PVTZ
  Basis Set: (AUG-CC-PVTZ AUX)
    Blend: AUG-CC-PVTZ-JKFIT

    Orbital Energies [Eh]
    ---------------------

    Doubly Occupied:

       1A    -92.213489     2A    -20.615571     3A    -20.553978
       4A    -20.553038     5A    -11.302372     6A    -11.256138
       7A    -11.250901     8A    -11.233273     9A    -11.229837
      10A    -11.217784    11A     -9.177843    12A     -6.863287
      13A     -6.861839    14A     -6.861665    15A     -1.481359
      16A     -1.375455    17A     -1.337391    18A     -1.129948
      19A     -1.052626    20A     -1.008419    21A     -0.942717
      22A     -0.880862    23A     -0.832311    24A     -0.795499
      25A     -0.731685    26A     -0.697873    27A     -0.690776
      28A     -0.674929    29A     -0.637722    30A     -0.617426
      31A     -0.606907    32A     -0.589169    33A     -0.569726
      34A     -0.560704    35A     -0.555018    36A     -0.543891
      37A     -0.538001    38A     -0.512033    39A     -0.500270
      40A     -0.497253    41A     -0.491734    42A     -0.486061
      43A     -0.482547    44A     -0.463844    45A     -0.454254

  @DF-RHF Final Energy:  -857.59320486833906

   => Energetics <=

    Nuclear Repulsion Energy =            723.8118585141691028
    One-Electron Energy =               -2614.9512774169529621
    Two-Electron Energy =                1033.5462140344448017
    Total Energy =                       -857.5932048683389439
  Basis Set: (AUG-CC-PVTZ AUX)
    Blend: AUG-CC-PVTZ-RI
    Molecular point group: c1

    Geometry (in Angstrom), charge = 0, multiplicity = 1:

       Center              X                  Y                   Z               Mass
    ------------   -----------------  -----------------  -----------------  -----------------
         S           -0.263742673581    -0.397664375689     0.148764203504    31.972071174400
         O           -1.534871673581     0.605771624311    -0.117808796496    15.994914619570
         O           -0.319905673581    -1.482781375689    -0.833187796496    15.994914619570
         O           -0.185057673581    -0.716673375689     1.575295203504    15.994914619570
         C            2.393084326419     0.339457624311     0.205272203504    12.000000000000
         C            1.005061326419     0.786760624311    -0.259416796496    12.000000000000
         C            2.868948326419    -0.926482375689    -0.505945796496    12.000000000000
         C            3.371943326419     1.492266624311    -0.019115796496    12.000000000000
         C           -2.828019673581    -0.074881375689    -0.118724796496    12.000000000000
         C           -3.871252673581     1.008353624311    -0.258482796496    12.000000000000
         H            2.329256326419     0.139077624311     1.281354203504     1.007825032230
         H            0.962990326419     0.928827624311    -1.343945796496     1.007825032230
         H            0.760191126419     1.546386124311     0.143448903504     1.007825032230
         H            2.900061326419    -0.767623375689    -1.589371796496     1.007825032230
         H            2.218781326419    -1.781839375689    -0.311621796496     1.007825032230
         H            3.878750326419    -1.183320375689    -0.172375796496     1.007825032230
         H            3.449027326419     1.732413624311    -1.084985796496     1.007825032230
         H            3.059183326419     2.395449624311     0.514015203504     1.007825032230
         H            4.369392326419     1.217543624311     0.336220203504     1.007825032230
         H           -2.847466673581    -0.781270375689    -0.952348796496     1.007825032230
         H           -2.936553673581    -0.623508375689     0.821756203504     1.007825032230
         H           -3.815638673581     1.703160624311     0.581622203504     1.007825032230
         H           -3.722537673581     1.563425624311    -1.186930796496     1.007825032230
         H           -4.868124673581     0.558544624311    -0.276423796496     1.007825032230

  Basis Set: AUG-CC-PVTZ
    Blend: AUG-CC-PVTZ
  Basis Set: (AUG-CC-PVTZ AUX)
    Blend: AUG-CC-PVTZ-JKFIT
	 Reference Energy          =    -857.5932048683390576 [Eh]
	 Singles Energy            =      -0.0000000000000000 [Eh]
	 Same-Spin Energy          =      -0.5249916403267159 [Eh]
	 Opposite-Spin Energy      =      -1.6798935714025434 [Eh]
	 Correlation Energy        =      -2.2048852117292590 [Eh]
	 Total Energy              =    -859.7980900800682775 [Eh]

	 ================> DF-SCS-MP2 Energies <==================
	-----------------------------------------------------------
	 SCS Same-Spin Scale       =       0.3333333333333333 [-]
	 SCS Opposite-Spin Scale   =       1.2000000000000000 [-]
	 SCS Same-Spin Energy      =      -0.1749972134422386 [Eh]
	 SCS Opposite-Spin Energy  =      -2.0158722856830518 [Eh]
	 SCS Correlation Energy    =      -2.1908694991252902 [Eh]
	 SCS Total Energy          =    -859.7840743674643136 [Eh]
	-----------------------------------------------------------

  Dipole Moment: [D]
     X:    -0.0899      Y:     2.7125      Z:    -1.0496     Total:     2.9099

*** Psi4 exiting successfully. Buy a developer a beer!
