                               Psi4 1.4a3.dev225

  ==> Input File <==

--------------------------------------------------------------------------
#psi4
#
memory 32 gb

molecule  {
0 1
  S       -0.2946600    -0.4360860     0.1655790
  O       -1.5657890     0.5673500    -0.1009940
  O       -0.3508230    -1.5212030    -0.8163730
  O       -0.2159750    -0.7550950     1.5921100
  C        2.3621670     0.3010360     0.2220870
  C        0.9741440     0.7483390    -0.2426020
  C        2.8380310    -0.9649040    -0.4891310
  C        3.3410260     1.4538450    -0.0023010
  C       -2.8589370    -0.1133030    -0.1019100
  C       -3.9021700     0.9699320    -0.2416680
  H        2.2983390     0.1006560     1.2981690
  H        0.9320730     0.8904060    -1.3271310
  H        0.6744950     1.6778970     0.2503870
  H        2.8504061    -0.8022514    -1.5723702
  H        2.1878640    -1.8202610    -0.2948070
  H        3.8478330    -1.2217420    -0.1555610
  H        3.4181100     1.6939920    -1.0681710
  H        3.0282660     2.3570280     0.5308300
  H        4.3384750     1.1791220     0.3530350
  H       -2.8783840    -0.8196920    -0.9355340
  H       -2.9674710    -0.6619300     0.8385710
  H       -3.8465560     1.6647390     0.5984370
  H       -3.7534550     1.5250040    -1.1701160
  H       -4.8990420     0.5201230    -0.2596090
units angstrom
no_reorient  #important for SAPT in psi4, default
symmetry c1  #important for SAPT in psi4, default
}

set PROPERTIES_ORIGIN ["COM"]
properties('MP2/aug-cc-pvtz', properties = ['dipole'])
--------------------------------------------------------------------------

    Molecular point group: c1
  Charge       = 0
  Multiplicity = 1
  Basis Set: AUG-CC-PVTZ
    Blend: AUG-CC-PVTZ
  Basis Set: (AUG-CC-PVTZ AUX)
    Blend: AUG-CC-PVTZ-JKFIT

    Orbital Energies [Eh]
    ---------------------

    Doubly Occupied:

       1A    -92.213853     2A    -20.614918     3A    -20.553713
       4A    -20.553545     5A    -11.301928     6A    -11.278158
       7A    -11.251361     8A    -11.233044     9A    -11.229504
      10A    -11.218666    11A     -9.178100    12A     -6.863556
      13A     -6.862111    14A     -6.861936    15A     -1.481053
      16A     -1.375099    17A     -1.337440    18A     -1.120990
      19A     -1.051541    20A     -0.996724    21A     -0.942380
      22A     -0.877011    23A     -0.830752    24A     -0.787914
      25A     -0.725218    26A     -0.692879    27A     -0.690768
      28A     -0.656793    29A     -0.635215    30A     -0.616294
      31A     -0.606805    32A     -0.586387    33A     -0.567239
      34A     -0.558823    35A     -0.554312    36A     -0.544441
      37A     -0.537459    38A     -0.509892    39A     -0.500024
      40A     -0.497102    41A     -0.490587    42A     -0.485438
      43A     -0.482107    44A     -0.463344    45A     -0.453667

  @DF-RHF Final Energy:  -857.62645545836574

   => Energetics <=

    Nuclear Repulsion Energy =            722.6139137938970407
    One-Electron Energy =               -2612.7405533875921719
    Two-Electron Energy =                1032.5001841353291638
    Total Energy =                       -857.6264554583658537
  Basis Set: (AUG-CC-PVTZ AUX)
    Blend: AUG-CC-PVTZ-RI
    Molecular point group: c1

    Geometry (in Angstrom), charge = 0, multiplicity = 1:

       Center              X                  Y                   Z               Mass
    ------------   -----------------  -----------------  -----------------  -----------------
         S           -0.263296514780    -0.398718686186     0.148216128768    31.972071174400
         O           -1.534425514780     0.604717313814    -0.118356871232    15.994914619570
         O           -0.319459514780    -1.483835686186    -0.833735871232    15.994914619570
         O           -0.184611514780    -0.717727686186     1.574747128768    15.994914619570
         C            2.393530485220     0.338403313814     0.204724128768    12.000000000000
         C            1.005507485220     0.785706313814    -0.259964871232    12.000000000000
         C            2.869394485220    -0.927536686186    -0.506493871232    12.000000000000
         C            3.372389485220     1.491212313814    -0.019663871232    12.000000000000
         C           -2.827573514780    -0.075935686186    -0.119272871232    12.000000000000
         C           -3.870806514780     1.007299313814    -0.259030871232    12.000000000000
         H            2.329702485220     0.138023313814     1.280806128768     1.007825032230
         H            0.963436485220     0.927773313814    -1.344493871232     1.007825032230
         H            0.705858485220     1.715264313814     0.233024128768     1.007825032230
         H            2.881769585220    -0.764884086186    -1.589733071232     1.007825032230
         H            2.219227485220    -1.782893686186    -0.312169871232     1.007825032230
         H            3.879196485220    -1.184374686186    -0.172923871232     1.007825032230
         H            3.449473485220     1.731359313814    -1.085533871232     1.007825032230
         H            3.059629485220     2.394395313814     0.513467128768     1.007825032230
         H            4.369838485220     1.216489313814     0.335672128768     1.007825032230
         H           -2.847020514780    -0.782324686186    -0.952896871232     1.007825032230
         H           -2.936107514780    -0.624562686186     0.821208128768     1.007825032230
         H           -3.815192514780     1.702106313814     0.581074128768     1.007825032230
         H           -3.722091514780     1.562371313814    -1.187478871232     1.007825032230
         H           -4.867678514780     0.557490313814    -0.276971871232     1.007825032230

  Basis Set: AUG-CC-PVTZ
    Blend: AUG-CC-PVTZ
  Basis Set: (AUG-CC-PVTZ AUX)
    Blend: AUG-CC-PVTZ-JKFIT
	 Reference Energy          =    -857.6264554583657400 [Eh]
	 Singles Energy            =      -0.0000000000000000 [Eh]
	 Same-Spin Energy          =      -0.5253033211427371 [Eh]
	 Opposite-Spin Energy      =      -1.6808218996501725 [Eh]
	 Correlation Energy        =      -2.2061252207929094 [Eh]
	 Total Energy              =    -859.8325806791586956 [Eh]

	 ================> DF-SCS-MP2 Energies <==================
	-----------------------------------------------------------
	 SCS Same-Spin Scale       =       0.3333333333333333 [-]
	 SCS Opposite-Spin Scale   =       1.2000000000000000 [-]
	 SCS Same-Spin Energy      =      -0.1751011070475790 [Eh]
	 SCS Opposite-Spin Energy  =      -2.0169862795802067 [Eh]
	 SCS Correlation Energy    =      -2.1920873866277857 [Eh]
	 SCS Total Energy          =    -859.8185428449935443 [Eh]
	-----------------------------------------------------------

  Dipole Moment: [D]
     X:    -0.0712      Y:     2.7081      Z:    -1.0414     Total:     2.9023

*** Psi4 exiting successfully. Buy a developer a beer!
