                               Psi4 1.4a3.dev225

  ==> Input File <==

--------------------------------------------------------------------------
#psi4
#
memory 32 gb

molecule  {
0 1
  S       -0.2946600    -0.4360860     0.1655790
  O       -1.5657890     0.5673500    -0.1009940
  O       -0.3508230    -1.5212030    -0.8163730
  O       -0.2159750    -0.7550950     1.5921100
  C        2.3621670     0.3010360     0.2220870
  C        0.9741440     0.7483390    -0.2426020
  C        2.8380310    -0.9649040    -0.4891310
  C        3.3410260     1.4538450    -0.0023010
  C       -2.8589370    -0.1133030    -0.1019100
  C       -3.9021700     0.9699320    -0.2416680
  H        2.2983390     0.1006560     1.2981690
  H        0.9282295     0.9033849    -1.4262106
  H        0.6744950     1.6778970     0.2503870
  H        2.8691440    -0.8060450    -1.5725570
  H        2.1878640    -1.8202610    -0.2948070
  H        3.8478330    -1.2217420    -0.1555610
  H        3.4181100     1.6939920    -1.0681710
  H        3.0282660     2.3570280     0.5308300
  H        4.3384750     1.1791220     0.3530350
  H       -2.8783840    -0.8196920    -0.9355340
  H       -2.9674710    -0.6619300     0.8385710
  H       -3.8465560     1.6647390     0.5984370
  H       -3.7534550     1.5250040    -1.1701160
  H       -4.8990420     0.5201230    -0.2596090
units angstrom
no_reorient  #important for SAPT in psi4, default
symmetry c1  #important for SAPT in psi4, default
}

set PROPERTIES_ORIGIN ["COM"]
properties('MP2/aug-cc-pvtz', properties = ['dipole'])
--------------------------------------------------------------------------

    Molecular point group: c1
  Charge       = 0
  Multiplicity = 1
  Basis Set: AUG-CC-PVTZ
    Blend: AUG-CC-PVTZ
  Basis Set: (AUG-CC-PVTZ AUX)
    Blend: AUG-CC-PVTZ-JKFIT

    Orbital Energies [Eh]
    ---------------------

    Doubly Occupied:

       1A    -92.214345     2A    -20.614814     3A    -20.554221
       4A    -20.553440     5A    -11.301885     6A    -11.288402
       7A    -11.252230     8A    -11.232993     9A    -11.229495
      10A    -11.218603    11A     -9.178516    12A     -6.863979
      13A     -6.862545    14A     -6.862355    15A     -1.481092
      16A     -1.375101    17A     -1.337577    18A     -1.118716
      19A     -1.051357    20A     -0.993469    21A     -0.942295
      22A     -0.876073    23A     -0.830734    24A     -0.783547
      25A     -0.724290    26A     -0.692790    27A     -0.687145
      28A     -0.655864    29A     -0.635120    30A     -0.614985
      31A     -0.606322    32A     -0.578277    33A     -0.566227
      34A     -0.557586    35A     -0.554381    36A     -0.542767
      37A     -0.537306    38A     -0.510244    39A     -0.500076
      40A     -0.496744    41A     -0.490798    42A     -0.483798
      43A     -0.481666    44A     -0.463382    45A     -0.453738

  @DF-RHF Final Energy:  -857.61961617382804

   => Energetics <=

    Nuclear Repulsion Energy =            722.0373474111166843
    One-Electron Energy =               -2611.6113398977581710
    Two-Electron Energy =                1031.9543763128135652
    Total Energy =                       -857.6196161738280352
  Basis Set: (AUG-CC-PVTZ AUX)
    Blend: AUG-CC-PVTZ-RI
    Molecular point group: c1

    Geometry (in Angstrom), charge = 0, multiplicity = 1:

       Center              X                  Y                   Z               Mass
    ------------   -----------------  -----------------  -----------------  -----------------
         S           -0.263386906047    -0.398774430016     0.148818557577    31.972071174400
         O           -1.534515906047     0.604661569984    -0.117754442423    15.994914619570
         O           -0.319549906047    -1.483891430016    -0.833133442423    15.994914619570
         O           -0.184701906047    -0.717783430016     1.575349557577    15.994914619570
         C            2.393440093953     0.338347569984     0.205326557577    12.000000000000
         C            1.005417093953     0.785650569984    -0.259362442423    12.000000000000
         C            2.869304093953    -0.927592430016    -0.505891442423    12.000000000000
         C            3.372299093953     1.491156569984    -0.019061442423    12.000000000000
         C           -2.827663906047    -0.075991430016    -0.118670442423    12.000000000000
         C           -3.870896906047     1.007243569984    -0.258428442423    12.000000000000
         H            2.329612093953     0.137967569984     1.281408557577     1.007825032230
         H            0.959502593953     0.940696469984    -1.442971042423     1.007825032230
         H            0.705768093953     1.715208569984     0.233626557577     1.007825032230
         H            2.900417093953    -0.768733430016    -1.589317442423     1.007825032230
         H            2.219137093953    -1.782949430016    -0.311567442423     1.007825032230
         H            3.879106093953    -1.184430430016    -0.172321442423     1.007825032230
         H            3.449383093953     1.731303569984    -1.084931442423     1.007825032230
         H            3.059539093953     2.394339569984     0.514069557577     1.007825032230
         H            4.369748093953     1.216433569984     0.336274557577     1.007825032230
         H           -2.847110906047    -0.782380430016    -0.952294442423     1.007825032230
         H           -2.936197906047    -0.624618430016     0.821810557577     1.007825032230
         H           -3.815282906047     1.702050569984     0.581676557577     1.007825032230
         H           -3.722181906047     1.562315569984    -1.186876442423     1.007825032230
         H           -4.867768906047     0.557434569984    -0.276369442423     1.007825032230

  Basis Set: AUG-CC-PVTZ
    Blend: AUG-CC-PVTZ
  Basis Set: (AUG-CC-PVTZ AUX)
    Blend: AUG-CC-PVTZ-JKFIT
	 Reference Energy          =    -857.6196161738280352 [Eh]
	 Singles Energy            =      -0.0000000000000000 [Eh]
	 Same-Spin Energy          =      -0.5255136598105699 [Eh]
	 Opposite-Spin Energy      =      -1.6817097383176471 [Eh]
	 Correlation Energy        =      -2.2072233981282170 [Eh]
	 Total Energy              =    -859.8268395719562704 [Eh]

	 ================> DF-SCS-MP2 Energies <==================
	-----------------------------------------------------------
	 SCS Same-Spin Scale       =       0.3333333333333333 [-]
	 SCS Opposite-Spin Scale   =       1.2000000000000000 [-]
	 SCS Same-Spin Energy      =      -0.1751712199368566 [Eh]
	 SCS Opposite-Spin Energy  =      -2.0180516859811766 [Eh]
	 SCS Correlation Energy    =      -2.1932229059180330 [Eh]
	 SCS Total Energy          =    -859.8128390797460270 [Eh]
	-----------------------------------------------------------

  Dipole Moment: [D]
     X:    -0.0619      Y:     2.6973      Z:    -1.0283     Total:     2.8873

*** Psi4 exiting successfully. Buy a developer a beer!
