                               Psi4 1.4a3.dev225

  ==> Input File <==

--------------------------------------------------------------------------
#psi4
#
memory 32 gb

molecule  {
0 1
  S       -0.2946600    -0.4360860     0.1655790
  O       -1.5657890     0.5673500    -0.1009940
  O       -0.3699727    -1.5318343    -0.8031968
  O       -0.2159750    -0.7550950     1.5921100
  C        2.3621670     0.3010360     0.2220870
  C        0.9741440     0.7483390    -0.2426020
  C        2.8380310    -0.9649040    -0.4891310
  C        3.3410260     1.4538450    -0.0023010
  C       -2.8589370    -0.1133030    -0.1019100
  C       -3.9021700     0.9699320    -0.2416680
  H        2.2983390     0.1006560     1.2981690
  H        0.9320730     0.8904060    -1.3271310
  H        0.6744950     1.6778970     0.2503870
  H        2.8691440    -0.8060450    -1.5725570
  H        2.1878640    -1.8202610    -0.2948070
  H        3.8478330    -1.2217420    -0.1555610
  H        3.4181100     1.6939920    -1.0681710
  H        3.0282660     2.3570280     0.5308300
  H        4.3384750     1.1791220     0.3530350
  H       -2.8783840    -0.8196920    -0.9355340
  H       -2.9674710    -0.6619300     0.8385710
  H       -3.8465560     1.6647390     0.5984370
  H       -3.7534550     1.5250040    -1.1701160
  H       -4.8990420     0.5201230    -0.2596090
units angstrom
no_reorient  #important for SAPT in psi4, default
symmetry c1  #important for SAPT in psi4, default
}

set PROPERTIES_ORIGIN ["COM"]
properties('MP2/aug-cc-pvtz', properties = ['dipole'])
--------------------------------------------------------------------------

    Molecular point group: c1
  Charge       = 0
  Multiplicity = 1
  Basis Set: AUG-CC-PVTZ
    Blend: AUG-CC-PVTZ
  Basis Set: (AUG-CC-PVTZ AUX)
    Blend: AUG-CC-PVTZ-JKFIT

    Orbital Energies [Eh]
    ---------------------

    Doubly Occupied:

       1A    -92.213649     2A    -20.614264     3A    -20.553366
       4A    -20.552427     5A    -11.301339     6A    -11.279367
       7A    -11.252083     8A    -11.232667     9A    -11.230009
      10A    -11.219247    11A     -9.177922    12A     -6.863380
      13A     -6.861918    14A     -6.861764    15A     -1.480779
      16A     -1.374522    17A     -1.336373    18A     -1.121750
      19A     -1.051323    20A     -0.997331    21A     -0.942913
      22A     -0.876891    23A     -0.830459    24A     -0.788384
      25A     -0.725156    26A     -0.692443    27A     -0.690860
      28A     -0.656793    29A     -0.634936    30A     -0.616619
      31A     -0.606611    32A     -0.587139    33A     -0.566954
      34A     -0.558708    35A     -0.554618    36A     -0.544012
      37A     -0.537100    38A     -0.510372    39A     -0.499586
      40A     -0.496570    41A     -0.490926    42A     -0.484982
      43A     -0.482702    44A     -0.462698    45A     -0.454382

  @DF-RHF Final Energy:  -857.62665433241932

   => Energetics <=

    Nuclear Repulsion Energy =            722.5126533363541057
    One-Electron Energy =               -2612.5420340196219513
    Two-Electron Energy =                1032.4027263508485248
    Total Energy =                       -857.6266543324193208
  Basis Set: (AUG-CC-PVTZ AUX)
    Blend: AUG-CC-PVTZ-RI
    Molecular point group: c1

    Geometry (in Angstrom), charge = 0, multiplicity = 1:

       Center              X                  Y                   Z               Mass
    ------------   -----------------  -----------------  -----------------  -----------------
         S           -0.261565801333    -0.397671695001     0.146948178261    31.972071174400
         O           -1.532694801333     0.605764304999    -0.119624821739    15.994914619570
         O           -0.336878501333    -1.493419995001    -0.821827621739    15.994914619570
         O           -0.182880801333    -0.716680695001     1.573479178261    15.994914619570
         C            2.395261198667     0.339450304999     0.203456178261    12.000000000000
         C            1.007238198667     0.786753304999    -0.261232821739    12.000000000000
         C            2.871125198667    -0.926489695001    -0.507761821739    12.000000000000
         C            3.374120198667     1.492259304999    -0.020931821739    12.000000000000
         C           -2.825842801333    -0.074888695001    -0.120540821739    12.000000000000
         C           -3.869075801333     1.008346304999    -0.260298821739    12.000000000000
         H            2.331433198667     0.139070304999     1.279538178261     1.007825032230
         H            0.965167198667     0.928820304999    -1.345761821739     1.007825032230
         H            0.707589198667     1.716311304999     0.231756178261     1.007825032230
         H            2.902238198667    -0.767630695001    -1.591187821739     1.007825032230
         H            2.220958198667    -1.781846695001    -0.313437821739     1.007825032230
         H            3.880927198667    -1.183327695001    -0.174191821739     1.007825032230
         H            3.451204198667     1.732406304999    -1.086801821739     1.007825032230
         H            3.061360198667     2.395442304999     0.512199178261     1.007825032230
         H            4.371569198667     1.217536304999     0.334404178261     1.007825032230
         H           -2.845289801333    -0.781277695001    -0.954164821739     1.007825032230
         H           -2.934376801333    -0.623515695001     0.819940178261     1.007825032230
         H           -3.813461801333     1.703153304999     0.579806178261     1.007825032230
         H           -3.720360801333     1.563418304999    -1.188746821739     1.007825032230
         H           -4.865947801333     0.558537304999    -0.278239821739     1.007825032230

  Basis Set: AUG-CC-PVTZ
    Blend: AUG-CC-PVTZ
  Basis Set: (AUG-CC-PVTZ AUX)
    Blend: AUG-CC-PVTZ-JKFIT
	 Reference Energy          =    -857.6266543324193208 [Eh]
	 Singles Energy            =      -0.0000000000000000 [Eh]
	 Same-Spin Energy          =      -0.5252449346426137 [Eh]
	 Opposite-Spin Energy      =      -1.6806800618438342 [Eh]
	 Correlation Energy        =      -2.2059249964864480 [Eh]
	 Total Energy              =    -859.8325793289058083 [Eh]

	 ================> DF-SCS-MP2 Energies <==================
	-----------------------------------------------------------
	 SCS Same-Spin Scale       =       0.3333333333333333 [-]
	 SCS Opposite-Spin Scale   =       1.2000000000000000 [-]
	 SCS Same-Spin Energy      =      -0.1750816448808712 [Eh]
	 SCS Opposite-Spin Energy  =      -2.0168160742126009 [Eh]
	 SCS Correlation Energy    =      -2.1918977190934723 [Eh]
	 SCS Total Energy          =    -859.8185520515128246 [Eh]
	-----------------------------------------------------------

  Dipole Moment: [D]
     X:     0.0023      Y:     2.7384      Z:    -1.0746     Total:     2.9417

*** Psi4 exiting successfully. Buy a developer a beer!
