                               Psi4 1.4a3.dev225

  ==> Input File <==

--------------------------------------------------------------------------
#psi4
#
memory 32 gb

molecule  {
0 1
  S       -0.2946600    -0.4360860     0.1655790
  O       -1.5657890     0.5673500    -0.1009940
  O       -0.3508230    -1.5212030    -0.8163730
  O       -0.2159750    -0.7550950     1.5921100
  C        2.3621670     0.3010360     0.2220870
  C        0.9741440     0.7483390    -0.2426020
  C        2.8380310    -0.9649040    -0.4891310
  C        3.3410260     1.4538450    -0.0023010
  C       -2.8589370    -0.1133030    -0.1019100
  C       -3.9021700     0.9699320    -0.2416680
  H        2.2983390     0.1006560     1.2981690
  H        0.9320730     0.8904060    -1.3271310
  H        0.7018844     1.5929307     0.2053253
  H        2.8691440    -0.8060450    -1.5725570
  H        2.1878640    -1.8202610    -0.2948070
  H        3.8478330    -1.2217420    -0.1555610
  H        3.4181100     1.6939920    -1.0681710
  H        3.0282660     2.3570280     0.5308300
  H        4.3384750     1.1791220     0.3530350
  H       -2.8783840    -0.8196920    -0.9355340
  H       -2.9674710    -0.6619300     0.8385710
  H       -3.8465560     1.6647390     0.5984370
  H       -3.7534550     1.5250040    -1.1701160
  H       -4.8990420     0.5201230    -0.2596090
units angstrom
no_reorient  #important for SAPT in psi4, default
symmetry c1  #important for SAPT in psi4, default
}

set PROPERTIES_ORIGIN ["COM"]
properties('MP2/aug-cc-pvtz', properties = ['dipole'])
--------------------------------------------------------------------------

    Molecular point group: c1
  Charge       = 0
  Multiplicity = 1
  Basis Set: AUG-CC-PVTZ
    Blend: AUG-CC-PVTZ
  Basis Set: (AUG-CC-PVTZ AUX)
    Blend: AUG-CC-PVTZ-JKFIT

    Orbital Energies [Eh]
    ---------------------

    Doubly Occupied:

       1A    -92.213567     2A    -20.615230     3A    -20.553728
       4A    -20.553269     5A    -11.302141     6A    -11.267205
       7A    -11.251130     8A    -11.233155     9A    -11.229698
      10A    -11.218127    11A     -9.177879    12A     -6.863328
      13A     -6.861880    14A     -6.861707    15A     -1.481157
      16A     -1.375251    17A     -1.337356    18A     -1.124486
      19A     -1.051995    20A     -1.001772    21A     -0.942496
      22A     -0.878638    23A     -0.831387    24A     -0.791127
      25A     -0.727771    26A     -0.694779    27A     -0.690708
      28A     -0.666386    29A     -0.636744    30A     -0.616890
      31A     -0.606825    32A     -0.588037    33A     -0.568559
      34A     -0.559979    35A     -0.554874    36A     -0.543767
      37A     -0.537727    38A     -0.511160    39A     -0.500124
      40A     -0.497066    41A     -0.491181    42A     -0.485788
      43A     -0.482546    44A     -0.463581    45A     -0.453946

  @DF-RHF Final Energy:  -857.62087209460594

   => Energetics <=

    Nuclear Repulsion Energy =            723.1602638869862858
    One-Electron Energy =               -2613.7699785315526242
    Two-Electron Energy =                1032.9888425499602818
    Total Energy =                       -857.6208720946060566
  Basis Set: (AUG-CC-PVTZ AUX)
    Blend: AUG-CC-PVTZ-RI
    Molecular point group: c1

    Geometry (in Angstrom), charge = 0, multiplicity = 1:

       Center              X                  Y                   Z               Mass
    ------------   -----------------  -----------------  -----------------  -----------------
         S           -0.263576452547    -0.398180019317     0.148490733266    31.972071174400
         O           -1.534705452547     0.605255980683    -0.118082266734    15.994914619570
         O           -0.319739452547    -1.483297019317    -0.833461266734    15.994914619570
         O           -0.184891452547    -0.717189019317     1.575021733266    15.994914619570
         C            2.393250547453     0.338941980683     0.204998733266    12.000000000000
         C            1.005227547453     0.786244980683    -0.259690266734    12.000000000000
         C            2.869114547453    -0.926998019317    -0.506219266734    12.000000000000
         C            3.372109547453     1.491750980683    -0.019389266734    12.000000000000
         C           -2.827853452547    -0.075397019317    -0.118998266734    12.000000000000
         C           -3.871086452547     1.007837980683    -0.258756266734    12.000000000000
         H            2.329422547453     0.138561980683     1.281080733266     1.007825032230
         H            0.963156547453     0.928311980683    -1.344219266734     1.007825032230
         H            0.732967947453     1.630836680683     0.188237033266     1.007825032230
         H            2.900227547453    -0.768139019317    -1.589645266734     1.007825032230
         H            2.218947547453    -1.782355019317    -0.311895266734     1.007825032230
         H            3.878916547453    -1.183836019317    -0.172649266734     1.007825032230
         H            3.449193547453     1.731897980683    -1.085259266734     1.007825032230
         H            3.059349547453     2.394933980683     0.513741733266     1.007825032230
         H            4.369558547453     1.217027980683     0.335946733266     1.007825032230
         H           -2.847300452547    -0.781786019317    -0.952622266734     1.007825032230
         H           -2.936387452547    -0.624024019317     0.821482733266     1.007825032230
         H           -3.815472452547     1.702644980683     0.581348733266     1.007825032230
         H           -3.722371452547     1.562909980683    -1.187204266734     1.007825032230
         H           -4.867958452547     0.558028980683    -0.276697266734     1.007825032230

  Basis Set: AUG-CC-PVTZ
    Blend: AUG-CC-PVTZ
  Basis Set: (AUG-CC-PVTZ AUX)
    Blend: AUG-CC-PVTZ-JKFIT
	 Reference Energy          =    -857.6208720946059429 [Eh]
	 Singles Energy            =      -0.0000000000000000 [Eh]
	 Same-Spin Energy          =      -0.5250946491820537 [Eh]
	 Opposite-Spin Energy      =      -1.6801333278200301 [Eh]
	 Correlation Energy        =      -2.2052279770020839 [Eh]
	 Total Energy              =    -859.8261000716080389 [Eh]

	 ================> DF-SCS-MP2 Energies <==================
	-----------------------------------------------------------
	 SCS Same-Spin Scale       =       0.3333333333333333 [-]
	 SCS Opposite-Spin Scale   =       1.2000000000000000 [-]
	 SCS Same-Spin Energy      =      -0.1750315497273512 [Eh]
	 SCS Opposite-Spin Energy  =      -2.0161599933840360 [Eh]
	 SCS Correlation Energy    =      -2.1911915431113873 [Eh]
	 SCS Total Energy          =    -859.8120636377173014 [Eh]
	-----------------------------------------------------------

  Dipole Moment: [D]
     X:    -0.0778      Y:     2.7163      Z:    -1.0457     Total:     2.9116

*** Psi4 exiting successfully. Buy a developer a beer!
