                               Psi4 1.4a3.dev225

  ==> Input File <==

--------------------------------------------------------------------------
#psi4
#
memory 32 gb

molecule  {
0 1
  S       -0.2946600    -0.4360860     0.1655790
  O       -1.5657890     0.5673500    -0.1009940
  O       -0.3508230    -1.5212030    -0.8163730
  O       -0.2159750    -0.7550950     1.5921100
  C        2.3621670     0.3010360     0.2220870
  C        0.9741440     0.7483390    -0.2426020
  C        2.8380310    -0.9649040    -0.4891310
  C        3.3410260     1.4538450    -0.0023010
  C       -2.8589370    -0.1133030    -0.1019100
  C       -3.9021700     0.9699320    -0.2416680
  H        2.2983390     0.1006560     1.2981690
  H        0.9320730     0.8904060    -1.3271310
  H        0.6744950     1.6778970     0.2503870
  H        2.8691440    -0.8060450    -1.5725570
  H        2.1878640    -1.8202610    -0.2948070
  H        3.8478330    -1.2217420    -0.1555610
  H        3.4181100     1.6939920    -1.0681710
  H        3.0282660     2.3570280     0.5308300
  H        4.3384750     1.1791220     0.3530350
  H       -2.8783840    -0.8196920    -0.9355340
  H       -2.9674710    -0.6619300     0.8385710
  H       -3.8465560     1.6647390     0.5984370
  H       -3.7534550     1.5250040    -1.1701160
  H       -4.8808144     0.5283477    -0.2592810
units angstrom
no_reorient  #important for SAPT in psi4, default
symmetry c1  #important for SAPT in psi4, default
}

set PROPERTIES_ORIGIN ["COM"]
properties('MP2/aug-cc-pvtz', properties = ['dipole'])
--------------------------------------------------------------------------

    Molecular point group: c1
  Charge       = 0
  Multiplicity = 1
  Basis Set: AUG-CC-PVTZ
    Blend: AUG-CC-PVTZ
  Basis Set: (AUG-CC-PVTZ AUX)
    Blend: AUG-CC-PVTZ-JKFIT

    Orbital Energies [Eh]
    ---------------------

    Doubly Occupied:

       1A    -92.213740     2A    -20.614779     3A    -20.553610
       4A    -20.553467     5A    -11.301760     6A    -11.278061
       7A    -11.251444     8A    -11.230590     9A    -11.229489
      10A    -11.218579    11A     -9.177989    12A     -6.863444
      13A     -6.862001    14A     -6.861826    15A     -1.480942
      16A     -1.374967    17A     -1.337352    18A     -1.120889
      19A     -1.052150    20A     -0.997062    21A     -0.942305
      22A     -0.878103    23A     -0.830824    24A     -0.788011
      25A     -0.725386    26A     -0.692767    27A     -0.690611
      28A     -0.656708    29A     -0.634996    30A     -0.616147
      31A     -0.606968    32A     -0.586967    33A     -0.568730
      34A     -0.558769    35A     -0.555837    36A     -0.543750
      37A     -0.537659    38A     -0.509979    39A     -0.499940
      40A     -0.496815    41A     -0.490445    42A     -0.485365
      43A     -0.482519    44A     -0.463256    45A     -0.453650

  @DF-RHF Final Energy:  -857.62652266234022

   => Energetics <=

    Nuclear Repulsion Energy =            722.6708219990408679
    One-Electron Energy =               -2612.8533951268364035
    Two-Electron Energy =                1032.5560504654552005
    Total Energy =                       -857.6265226623402214
  Basis Set: (AUG-CC-PVTZ AUX)
    Blend: AUG-CC-PVTZ-RI
    Molecular point group: c1

    Geometry (in Angstrom), charge = 0, multiplicity = 1:

       Center              X                  Y                   Z               Mass
    ------------   -----------------  -----------------  -----------------  -----------------
         S           -0.263520851334    -0.398745577685     0.148215271852    31.972071174400
         O           -1.534649851334     0.604690422315    -0.118357728148    15.994914619570
         O           -0.319683851334    -1.483862577685    -0.833736728148    15.994914619570
         O           -0.184835851334    -0.717754577685     1.574746271852    15.994914619570
         C            2.393306148666     0.338376422315     0.204723271852    12.000000000000
         C            1.005283148666     0.785679422315    -0.259965728148    12.000000000000
         C            2.869170148666    -0.927563577685    -0.506494728148    12.000000000000
         C            3.372165148666     1.491185422315    -0.019664728148    12.000000000000
         C           -2.827797851334    -0.075962577685    -0.119273728148    12.000000000000
         C           -3.871030851334     1.007272422315    -0.259031728148    12.000000000000
         H            2.329478148666     0.137996422315     1.280805271852     1.007825032230
         H            0.963212148666     0.927746422315    -1.344494728148     1.007825032230
         H            0.705634148666     1.715237422315     0.233023271852     1.007825032230
         H            2.900283148666    -0.768704577685    -1.589920728148     1.007825032230
         H            2.219003148666    -1.782920577685    -0.312170728148     1.007825032230
         H            3.878972148666    -1.184401577685    -0.172924728148     1.007825032230
         H            3.449249148666     1.731332422315    -1.085534728148     1.007825032230
         H            3.059405148666     2.394368422315     0.513466271852     1.007825032230
         H            4.369614148666     1.216462422315     0.335671271852     1.007825032230
         H           -2.847244851334    -0.782351577685    -0.952897728148     1.007825032230
         H           -2.936331851334    -0.624589577685     0.821207271852     1.007825032230
         H           -3.815416851334     1.702079422315     0.581073271852     1.007825032230
         H           -3.722315851334     1.562344422315    -1.187479728148     1.007825032230
         H           -4.849675251334     0.565688122315    -0.276644728148     1.007825032230

  Basis Set: AUG-CC-PVTZ
    Blend: AUG-CC-PVTZ
  Basis Set: (AUG-CC-PVTZ AUX)
    Blend: AUG-CC-PVTZ-JKFIT
	 Reference Energy          =    -857.6265226623402214 [Eh]
	 Singles Energy            =      -0.0000000000000000 [Eh]
	 Same-Spin Energy          =      -0.5253005809751908 [Eh]
	 Opposite-Spin Energy      =      -1.6806943047913525 [Eh]
	 Correlation Energy        =      -2.2059948857665432 [Eh]
	 Total Energy              =    -859.8325175481068072 [Eh]

	 ================> DF-SCS-MP2 Energies <==================
	-----------------------------------------------------------
	 SCS Same-Spin Scale       =       0.3333333333333333 [-]
	 SCS Opposite-Spin Scale   =       1.2000000000000000 [-]
	 SCS Same-Spin Energy      =      -0.1751001936583969 [Eh]
	 SCS Opposite-Spin Energy  =      -2.0168331657496230 [Eh]
	 SCS Correlation Energy    =      -2.1919333594080199 [Eh]
	 SCS Total Energy          =    -859.8184560217482613 [Eh]
	-----------------------------------------------------------

  Dipole Moment: [D]
     X:    -0.0767      Y:     2.7075      Z:    -1.0447     Total:     2.9030

*** Psi4 exiting successfully. Buy a developer a beer!
