                               Psi4 1.4a3.dev225

  ==> Input File <==

--------------------------------------------------------------------------
#psi4
#
memory 32 gb

molecule  {
0 1
  S       -0.2946600    -0.4360860     0.1655790
  O       -1.5657890     0.5673500    -0.1009940
  O       -0.4652604    -1.5799230    -0.7329728
  O       -0.2159750    -0.7550950     1.5921100
  C        2.3621670     0.3010360     0.2220870
  C        0.9741440     0.7483390    -0.2426020
  C        2.8380310    -0.9649040    -0.4891310
  C        3.3410260     1.4538450    -0.0023010
  C       -2.8589370    -0.1133030    -0.1019100
  C       -3.9021700     0.9699320    -0.2416680
  H        2.2983390     0.1006560     1.2981690
  H        0.9320730     0.8904060    -1.3271310
  H        0.6744950     1.6778970     0.2503870
  H        2.8691440    -0.8060450    -1.5725570
  H        2.1878640    -1.8202610    -0.2948070
  H        3.8478330    -1.2217420    -0.1555610
  H        3.4181100     1.6939920    -1.0681710
  H        3.0282660     2.3570280     0.5308300
  H        4.3384750     1.1791220     0.3530350
  H       -2.8783840    -0.8196920    -0.9355340
  H       -2.9674710    -0.6619300     0.8385710
  H       -3.8465560     1.6647390     0.5984370
  H       -3.7534550     1.5250040    -1.1701160
  H       -4.8990420     0.5201230    -0.2596090
units angstrom
no_reorient  #important for SAPT in psi4, default
symmetry c1  #important for SAPT in psi4, default
}

set PROPERTIES_ORIGIN ["COM"]
properties('MP2/aug-cc-pvtz', properties = ['dipole'])
--------------------------------------------------------------------------

    Molecular point group: c1
  Charge       = 0
  Multiplicity = 1
  Basis Set: AUG-CC-PVTZ
    Blend: AUG-CC-PVTZ
  Basis Set: (AUG-CC-PVTZ AUX)
    Blend: AUG-CC-PVTZ-JKFIT

    Orbital Energies [Eh]
    ---------------------

    Doubly Occupied:

       1A    -92.212613     2A    -20.611065     3A    -20.551531
       4A    -20.546758     5A    -11.298400     6A    -11.285341
       7A    -11.254917     8A    -11.232324     9A    -11.230786
      10A    -11.222334    11A     -9.177055    12A     -6.862517
      13A     -6.861008    14A     -6.860884    15A     -1.479586
      16A     -1.371688    17A     -1.330847    18A     -1.125626
      19A     -1.050383    20A     -1.000034    21A     -0.945684
      22A     -0.876252    23A     -0.828885    24A     -0.789984
      25A     -0.724905    26A     -0.691711    27A     -0.690352
      28A     -0.656894    29A     -0.634024    30A     -0.619023
      31A     -0.605841    32A     -0.589127    33A     -0.565816
      34A     -0.558501    35A     -0.553539    36A     -0.546152
      37A     -0.535149    38A     -0.512087    39A     -0.497636
      40A     -0.495985    41A     -0.491820    42A     -0.485316
      43A     -0.479702    44A     -0.460444    45A     -0.456234

  @DF-RHF Final Energy:  -857.62513598538305

   => Energetics <=

    Nuclear Repulsion Energy =            722.2959396129662082
    One-Electron Energy =               -2612.1286254943752283
    Two-Electron Energy =                1032.2075498960259665
    Total Energy =                       -857.6251359853829399
  Basis Set: (AUG-CC-PVTZ AUX)
    Blend: AUG-CC-PVTZ-RI
    Molecular point group: c1

    Geometry (in Angstrom), charge = 0, multiplicity = 1:

       Center              X                  Y                   Z               Mass
    ------------   -----------------  -----------------  -----------------  -----------------
         S           -0.252388033027    -0.393039964497     0.140184455330    31.972071174400
         O           -1.523517033027     0.610396035503    -0.126388544670    15.994914619570
         O           -0.422988433027    -1.536876964497    -0.758367344670    15.994914619570
         O           -0.173703033027    -0.712048964497     1.566715455330    15.994914619570
         C            2.404438966973     0.344082035503     0.196692455330    12.000000000000
         C            1.016415966973     0.791385035503    -0.267996544670    12.000000000000
         C            2.880302966973    -0.921857964497    -0.514525544670    12.000000000000
         C            3.383297966973     1.496891035503    -0.027695544670    12.000000000000
         C           -2.816665033027    -0.070256964497    -0.127304544670    12.000000000000
         C           -3.859898033027     1.012978035503    -0.267062544670    12.000000000000
         H            2.340610966973     0.143702035503     1.272774455330     1.007825032230
         H            0.974344966973     0.933452035503    -1.352525544670     1.007825032230
         H            0.716766966973     1.720943035503     0.224992455330     1.007825032230
         H            2.911415966973    -0.762998964497    -1.597951544670     1.007825032230
         H            2.230135966973    -1.777214964497    -0.320201544670     1.007825032230
         H            3.890104966973    -1.178695964497    -0.180955544670     1.007825032230
         H            3.460381966973     1.737038035503    -1.093565544670     1.007825032230
         H            3.070537966973     2.400074035503     0.505435455330     1.007825032230
         H            4.380746966973     1.222168035503     0.327640455330     1.007825032230
         H           -2.836112033027    -0.776645964497    -0.960928544670     1.007825032230
         H           -2.925199033027    -0.618883964497     0.813176455330     1.007825032230
         H           -3.804284033027     1.707785035503     0.573042455330     1.007825032230
         H           -3.711183033027     1.568050035503    -1.195510544670     1.007825032230
         H           -4.856770033027     0.563169035503    -0.285003544670     1.007825032230

  Basis Set: AUG-CC-PVTZ
    Blend: AUG-CC-PVTZ
  Basis Set: (AUG-CC-PVTZ AUX)
    Blend: AUG-CC-PVTZ-JKFIT
	 Reference Energy          =    -857.6251359853830536 [Eh]
	 Singles Energy            =      -0.0000000000000000 [Eh]
	 Same-Spin Energy          =      -0.5251441651072941 [Eh]
	 Opposite-Spin Energy      =      -1.6803202562086184 [Eh]
	 Correlation Energy        =      -2.2054644213159125 [Eh]
	 Total Energy              =    -859.8306004066989772 [Eh]

	 ================> DF-SCS-MP2 Energies <==================
	-----------------------------------------------------------
	 SCS Same-Spin Scale       =       0.3333333333333333 [-]
	 SCS Opposite-Spin Scale   =       1.2000000000000000 [-]
	 SCS Same-Spin Energy      =      -0.1750480550357647 [Eh]
	 SCS Opposite-Spin Energy  =      -2.0163843074503420 [Eh]
	 SCS Correlation Energy    =      -2.1914323624861067 [Eh]
	 SCS Total Energy          =    -859.8165683478691790 [Eh]
	-----------------------------------------------------------

  Dipole Moment: [D]
     X:     0.3385      Y:     2.8708      Z:    -1.2339     Total:     3.1430

*** Psi4 exiting successfully. Buy a developer a beer!
