                               Psi4 1.4a3.dev225

  ==> Input File <==

--------------------------------------------------------------------------
#psi4
#
memory 32 gb

molecule  {
0 1
  S       -0.2946600    -0.4360860     0.1655790
  O       -1.5657890     0.5673500    -0.1009940
  O       -0.3508230    -1.5212030    -0.8163730
  O       -0.2159750    -0.7550950     1.5921100
  C        2.3621670     0.3010360     0.2220870
  C        0.9741440     0.7483390    -0.2426020
  C        2.8380310    -0.9649040    -0.4891310
  C        3.3410260     1.4538450    -0.0023010
  C       -2.8589370    -0.1133030    -0.1019100
  C       -3.8940079     0.9804097    -0.2188976
  H        2.2983390     0.1006560     1.2981690
  H        0.9320730     0.8904060    -1.3271310
  H        0.6744950     1.6778970     0.2503870
  H        2.8691440    -0.8060450    -1.5725570
  H        2.1878640    -1.8202610    -0.2948070
  H        3.8478330    -1.2217420    -0.1555610
  H        3.4181100     1.6939920    -1.0681710
  H        3.0282660     2.3570280     0.5308300
  H        4.3384750     1.1791220     0.3530350
  H       -2.8783840    -0.8196920    -0.9355340
  H       -2.9674710    -0.6619300     0.8385710
  H       -3.8465560     1.6647390     0.5984370
  H       -3.7534550     1.5250040    -1.1701160
  H       -4.8990420     0.5201230    -0.2596090
units angstrom
no_reorient  #important for SAPT in psi4, default
symmetry c1  #important for SAPT in psi4, default
}

set PROPERTIES_ORIGIN ["COM"]
properties('MP2/aug-cc-pvtz', properties = ['dipole'])
--------------------------------------------------------------------------

    Molecular point group: c1
  Charge       = 0
  Multiplicity = 1
  Basis Set: AUG-CC-PVTZ
    Blend: AUG-CC-PVTZ
  Basis Set: (AUG-CC-PVTZ AUX)
    Blend: AUG-CC-PVTZ-JKFIT

    Orbital Energies [Eh]
    ---------------------

    Doubly Occupied:

       1A    -92.213704     2A    -20.614702     3A    -20.553694
       4A    -20.553474     5A    -11.302067     6A    -11.278056
       7A    -11.251448     8A    -11.233184     9A    -11.229499
      10A    -11.218595    11A     -9.177964    12A     -6.863417
      13A     -6.861975    14A     -6.861802    15A     -1.481004
      16A     -1.375096    17A     -1.337401    18A     -1.120901
      19A     -1.051579    20A     -0.996607    21A     -0.942318
      22A     -0.877043    23A     -0.831020    24A     -0.787993
      25A     -0.725084    26A     -0.693205    27A     -0.690700
      28A     -0.656740    29A     -0.635572    30A     -0.616170
      31A     -0.606472    32A     -0.586680    33A     -0.566655
      34A     -0.560511    35A     -0.553684    36A     -0.543477
      37A     -0.535830    38A     -0.510247    39A     -0.501367
      40A     -0.496609    41A     -0.490339    42A     -0.485292
      43A     -0.482591    44A     -0.463333    45A     -0.453444

  @DF-RHF Final Energy:  -857.62567567906910

   => Energetics <=

    Nuclear Repulsion Energy =            722.6584863920091948
    One-Electron Energy =               -2612.8312346852580959
    Two-Electron Energy =                1032.5470726141797968
    Total Energy =                       -857.6256756790689906
  Basis Set: (AUG-CC-PVTZ AUX)
    Blend: AUG-CC-PVTZ-RI
    Molecular point group: c1

    Geometry (in Angstrom), charge = 0, multiplicity = 1:

       Center              X                  Y                   Z               Mass
    ------------   -----------------  -----------------  -----------------  -----------------
         S           -0.264000027043    -0.399452784958     0.146571867225    31.972071174400
         O           -1.535129027043     0.603983215042    -0.120001132775    15.994914619570
         O           -0.320163027043    -1.484569784958    -0.835380132775    15.994914619570
         O           -0.185315027043    -0.718461784958     1.573102867225    15.994914619570
         C            2.392826972957     0.337669215042     0.203079867225    12.000000000000
         C            1.004803972957     0.784972215042    -0.261609132775    12.000000000000
         C            2.868690972957    -0.928270784958    -0.508138132775    12.000000000000
         C            3.371685972957     1.490478215042    -0.021308132775    12.000000000000
         C           -2.828277027043    -0.076669784958    -0.120917132775    12.000000000000
         C           -3.863347927043     1.017042915042    -0.237904732775    12.000000000000
         H            2.328998972957     0.137289215042     1.279161867225     1.007825032230
         H            0.962732972957     0.927039215042    -1.346138132775     1.007825032230
         H            0.705154972957     1.714530215042     0.231379867225     1.007825032230
         H            2.899803972957    -0.769411784958    -1.591564132775     1.007825032230
         H            2.218523972957    -1.783627784958    -0.313814132775     1.007825032230
         H            3.878492972957    -1.185108784958    -0.174568132775     1.007825032230
         H            3.448769972957     1.730625215042    -1.087178132775     1.007825032230
         H            3.058925972957     2.393661215042     0.511822867225     1.007825032230
         H            4.369134972957     1.215755215042     0.334027867225     1.007825032230
         H           -2.847724027043    -0.783058784958    -0.954541132775     1.007825032230
         H           -2.936811027043    -0.625296784958     0.819563867225     1.007825032230
         H           -3.815896027043     1.701372215042     0.579429867225     1.007825032230
         H           -3.722795027043     1.561637215042    -1.189123132775     1.007825032230
         H           -4.868382027043     0.556756215042    -0.278616132775     1.007825032230

  Basis Set: AUG-CC-PVTZ
    Blend: AUG-CC-PVTZ
  Basis Set: (AUG-CC-PVTZ AUX)
    Blend: AUG-CC-PVTZ-JKFIT
	 Reference Energy          =    -857.6256756790691043 [Eh]
	 Singles Energy            =      -0.0000000000000000 [Eh]
	 Same-Spin Energy          =      -0.5253205213449740 [Eh]
	 Opposite-Spin Energy      =      -1.6808524475904709 [Eh]
	 Correlation Energy        =      -2.2061729689354448 [Eh]
	 Total Energy              =    -859.8318486480045522 [Eh]

	 ================> DF-SCS-MP2 Energies <==================
	-----------------------------------------------------------
	 SCS Same-Spin Scale       =       0.3333333333333333 [-]
	 SCS Opposite-Spin Scale   =       1.2000000000000000 [-]
	 SCS Same-Spin Energy      =      -0.1751068404483246 [Eh]
	 SCS Opposite-Spin Energy  =      -2.0170229371085648 [Eh]
	 SCS Correlation Energy    =      -2.1921297775568895 [Eh]
	 SCS Total Energy          =    -859.8178054566260471 [Eh]
	-----------------------------------------------------------

  Dipole Moment: [D]
     X:    -0.0687      Y:     2.7130      Z:    -1.0367     Total:     2.9052

*** Psi4 exiting successfully. Buy a developer a beer!
