                               Psi4 1.4a3.dev225

  ==> Input File <==

--------------------------------------------------------------------------
#psi4
#
memory 32 gb

molecule  {
0 1
  S       -0.2946600    -0.4360860     0.1655790
  O       -1.5657890     0.5673500    -0.1009940
  O       -0.3508230    -1.5212030    -0.8163730
  O       -0.2159750    -0.7550950     1.5921100
  C        2.3621670     0.3010360     0.2220870
  C        0.9741440     0.7483390    -0.2426020
  C        2.8380310    -0.9649040    -0.4891310
  C        3.3410260     1.4538450    -0.0023010
  C       -2.8589370    -0.1133030    -0.1019100
  C       -3.9021700     0.9699320    -0.2416680
  H        2.2983390     0.1006560     1.2981690
  H        0.9320730     0.8904060    -1.3271310
  H        0.6744950     1.6778970     0.2503870
  H        2.8691440    -0.8060450    -1.5725570
  H        2.1878640    -1.8202610    -0.2948070
  H        3.8478330    -1.2217420    -0.1555610
  H        3.4181100     1.6939920    -1.0681710
  H        3.0282660     2.3570280     0.5308300
  H        4.3384750     1.1791220     0.3530350
  H       -2.8783840    -0.8196920    -0.9355340
  H       -2.9674710    -0.6619300     0.8385710
  H       -3.8465560     1.6647390     0.5984370
  H       -3.7534550     1.5250040    -1.1701160
  H       -4.9172696     0.5118983    -0.2599370
units angstrom
no_reorient  #important for SAPT in psi4, default
symmetry c1  #important for SAPT in psi4, default
}

set PROPERTIES_ORIGIN ["COM"]
properties('MP2/aug-cc-pvtz', properties = ['dipole'])
--------------------------------------------------------------------------

    Molecular point group: c1
  Charge       = 0
  Multiplicity = 1
  Basis Set: AUG-CC-PVTZ
    Blend: AUG-CC-PVTZ
  Basis Set: (AUG-CC-PVTZ AUX)
    Blend: AUG-CC-PVTZ-JKFIT

    Orbital Energies [Eh]
    ---------------------

    Doubly Occupied:

       1A    -92.213933     2A    -20.615033     3A    -20.553764
       4A    -20.553625     5A    -11.302081     6A    -11.278201
       7A    -11.251545     8A    -11.235454     9A    -11.229573
      10A    -11.218661    11A     -9.178180    12A     -6.863636
      13A     -6.862190    14A     -6.862015    15A     -1.481140
      16A     -1.375207    17A     -1.337501    18A     -1.120995
      19A     -1.050975    20A     -0.996431    21A     -0.942389
      22A     -0.876031    23A     -0.830741    24A     -0.788072
      25A     -0.725054    26A     -0.692982    27A     -0.690760
      28A     -0.656875    29A     -0.635131    30A     -0.616170
      31A     -0.606582    32A     -0.586550    33A     -0.566069
      34A     -0.558998    35A     -0.553248    36A     -0.543391
      37A     -0.536985    38A     -0.510096    39A     -0.500100
      40A     -0.496973    41A     -0.490547    42A     -0.485490
      43A     -0.482621    44A     -0.463416    45A     -0.453669

  @DF-RHF Final Energy:  -857.62600869788946

   => Energetics <=

    Nuclear Repulsion Energy =            722.4823379404541583
    One-Electron Energy =               -2612.4785337514067578
    Two-Electron Energy =                1032.3701871130631389
    Total Energy =                       -857.6260086978893469
  Basis Set: (AUG-CC-PVTZ AUX)
    Blend: AUG-CC-PVTZ-RI
    Molecular point group: c1

    Geometry (in Angstrom), charge = 0, multiplicity = 1:

       Center              X                  Y                   Z               Mass
    ------------   -----------------  -----------------  -----------------  -----------------
         S           -0.263299611693    -0.398645749420     0.148219252991    31.972071174400
         O           -1.534428611693     0.604790250580    -0.118353747009    15.994914619570
         O           -0.319462611693    -1.483762749420    -0.833732747009    15.994914619570
         O           -0.184614611693    -0.717654749420     1.574750252991    15.994914619570
         C            2.393527388307     0.338476250580     0.204727252991    12.000000000000
         C            1.005504388307     0.785779250580    -0.259961747009    12.000000000000
         C            2.869391388307    -0.927463749420    -0.506490747009    12.000000000000
         C            3.372386388307     1.491285250580    -0.019660747009    12.000000000000
         C           -2.827576611693    -0.075862749420    -0.119269747009    12.000000000000
         C           -3.870809611693     1.007372250580    -0.259027747009    12.000000000000
         H            2.329699388307     0.138096250580     1.280809252991     1.007825032230
         H            0.963433388307     0.927846250580    -1.344490747009     1.007825032230
         H            0.705855388307     1.715337250580     0.233027252991     1.007825032230
         H            2.900504388307    -0.768604749420    -1.589916747009     1.007825032230
         H            2.219224388307    -1.782820749420    -0.312166747009     1.007825032230
         H            3.879193388307    -1.184301749420    -0.172920747009     1.007825032230
         H            3.449470388307     1.731432250580    -1.085530747009     1.007825032230
         H            3.059626388307     2.394468250580     0.513470252991     1.007825032230
         H            4.369835388307     1.216562250580     0.335675252991     1.007825032230
         H           -2.847023611693    -0.782251749420    -0.952893747009     1.007825032230
         H           -2.936110611693    -0.624489749420     0.821211252991     1.007825032230
         H           -3.815195611693     1.702179250580     0.581077252991     1.007825032230
         H           -3.722094611693     1.562444250580    -1.187475747009     1.007825032230
         H           -4.885909211693     0.549338550580    -0.277296747009     1.007825032230

  Basis Set: AUG-CC-PVTZ
    Blend: AUG-CC-PVTZ
  Basis Set: (AUG-CC-PVTZ AUX)
    Blend: AUG-CC-PVTZ-JKFIT
	 Reference Energy          =    -857.6260086978894606 [Eh]
	 Singles Energy            =      -0.0000000000000000 [Eh]
	 Same-Spin Energy          =      -0.5252801728762728 [Eh]
	 Opposite-Spin Energy      =      -1.6809151071658628 [Eh]
	 Correlation Energy        =      -2.2061952800421354 [Eh]
	 Total Energy              =    -859.8322039779316128 [Eh]

	 ================> DF-SCS-MP2 Energies <==================
	-----------------------------------------------------------
	 SCS Same-Spin Scale       =       0.3333333333333333 [-]
	 SCS Opposite-Spin Scale   =       1.2000000000000000 [-]
	 SCS Same-Spin Energy      =      -0.1750933909587576 [Eh]
	 SCS Opposite-Spin Energy  =      -2.0170981285990353 [Eh]
	 SCS Correlation Energy    =      -2.1921915195577930 [Eh]
	 SCS Total Energy          =    -859.8182002174472700 [Eh]
	-----------------------------------------------------------

  Dipole Moment: [D]
     X:    -0.0543      Y:     2.7108      Z:    -1.0438     Total:     2.9053

*** Psi4 exiting successfully. Buy a developer a beer!
