                               Psi4 1.4a3.dev225

  ==> Input File <==

--------------------------------------------------------------------------
#psi4
#
memory 32 gb

molecule  {
0 1
  S       -0.2946600    -0.4360860     0.1655790
  O       -1.5657890     0.5673500    -0.1009940
  O       -0.3508230    -1.5212030    -0.8163730
  O       -0.2159750    -0.7550950     1.5921100
  C        2.3621670     0.3010360     0.2220870
  C        0.9565761     0.7427218    -0.1924628
  C        2.8380310    -0.9649040    -0.4891310
  C        3.3410260     1.4538450    -0.0023010
  C       -2.8589370    -0.1133030    -0.1019100
  C       -3.9021700     0.9699320    -0.2416680
  H        2.2983390     0.1006560     1.2981690
  H        0.9320730     0.8904060    -1.3271310
  H        0.6744950     1.6778970     0.2503870
  H        2.8691440    -0.8060450    -1.5725570
  H        2.1878640    -1.8202610    -0.2948070
  H        3.8478330    -1.2217420    -0.1555610
  H        3.4181100     1.6939920    -1.0681710
  H        3.0282660     2.3570280     0.5308300
  H        4.3384750     1.1791220     0.3530350
  H       -2.8783840    -0.8196920    -0.9355340
  H       -2.9674710    -0.6619300     0.8385710
  H       -3.8465560     1.6647390     0.5984370
  H       -3.7534550     1.5250040    -1.1701160
  H       -4.8990420     0.5201230    -0.2596090
units angstrom
no_reorient  #important for SAPT in psi4, default
symmetry c1  #important for SAPT in psi4, default
}

set PROPERTIES_ORIGIN ["COM"]
properties('MP2/aug-cc-pvtz', properties = ['dipole'])
--------------------------------------------------------------------------

    Molecular point group: c1
  Charge       = 0
  Multiplicity = 1
  Basis Set: AUG-CC-PVTZ
    Blend: AUG-CC-PVTZ
  Basis Set: (AUG-CC-PVTZ AUX)
    Blend: AUG-CC-PVTZ-JKFIT

    Orbital Energies [Eh]
    ---------------------

    Doubly Occupied:

       1A    -92.214816     2A    -20.615183     3A    -20.555634
       4A    -20.551907     5A    -11.302145     6A    -11.278271
       7A    -11.251864     8A    -11.233166     9A    -11.229927
      10A    -11.219122    11A     -9.179198    12A     -6.864685
      13A     -6.863298    14A     -6.863023    15A     -1.482084
      16A     -1.375519    17A     -1.337899    18A     -1.121508
      19A     -1.052456    20A     -0.999383    21A     -0.942500
      22A     -0.877262    23A     -0.832024    24A     -0.786166
      25A     -0.727565    26A     -0.693466    27A     -0.689501
      28A     -0.659012    29A     -0.635353    30A     -0.616502
      31A     -0.607263    32A     -0.580245    33A     -0.566922
      34A     -0.558289    35A     -0.554841    36A     -0.543162
      37A     -0.537772    38A     -0.512475    39A     -0.500188
      40A     -0.496922    41A     -0.492697    42A     -0.483350
      43A     -0.478622    44A     -0.463868    45A     -0.457668

  @DF-RHF Final Energy:  -857.62335958687481

   => Energetics <=

    Nuclear Repulsion Energy =            723.1504992548448172
    One-Electron Energy =               -2613.7782696408839911
    Two-Electron Energy =                1033.0044107991643614
    Total Energy =                       -857.6233595868748125
  Basis Set: (AUG-CC-PVTZ AUX)
    Blend: AUG-CC-PVTZ-RI
    Molecular point group: c1

    Geometry (in Angstrom), charge = 0, multiplicity = 1:

       Center              X                  Y                   Z               Mass
    ------------   -----------------  -----------------  -----------------  -----------------
         S           -0.262140770359    -0.398289763178     0.144594190415    31.972071174400
         O           -1.533269770359     0.605146236822    -0.121978809585    15.994914619570
         O           -0.318303770359    -1.483406763178    -0.837357809585    15.994914619570
         O           -0.183455770359    -0.717298763178     1.571125190415    15.994914619570
         C            2.394686229641     0.338832236822     0.201102190415    12.000000000000
         C            0.989095329641     0.780518036822    -0.213447609585    12.000000000000
         C            2.870550229641    -0.927107763178    -0.510115809585    12.000000000000
         C            3.373545229641     1.491641236822    -0.023285809585    12.000000000000
         C           -2.826417770359    -0.075506763178    -0.122894809585    12.000000000000
         C           -3.869650770359     1.007728236822    -0.262652809585    12.000000000000
         H            2.330858229641     0.138452236822     1.277184190415     1.007825032230
         H            0.964592229641     0.928202236822    -1.348115809585     1.007825032230
         H            0.707014229641     1.715693236822     0.229402190415     1.007825032230
         H            2.901663229641    -0.768248763178    -1.593541809585     1.007825032230
         H            2.220383229641    -1.782464763178    -0.315791809585     1.007825032230
         H            3.880352229641    -1.183945763178    -0.176545809585     1.007825032230
         H            3.450629229641     1.731788236822    -1.089155809585     1.007825032230
         H            3.060785229641     2.394824236822     0.509845190415     1.007825032230
         H            4.370994229641     1.216918236822     0.332050190415     1.007825032230
         H           -2.845864770359    -0.781895763178    -0.956518809585     1.007825032230
         H           -2.934951770359    -0.624133763178     0.817586190415     1.007825032230
         H           -3.814036770359     1.702535236822     0.577452190415     1.007825032230
         H           -3.720935770359     1.562800236822    -1.191100809585     1.007825032230
         H           -4.866522770359     0.557919236822    -0.280593809585     1.007825032230

  Basis Set: AUG-CC-PVTZ
    Blend: AUG-CC-PVTZ
  Basis Set: (AUG-CC-PVTZ AUX)
    Blend: AUG-CC-PVTZ-JKFIT
	 Reference Energy          =    -857.6233595868748125 [Eh]
	 Singles Energy            =      -0.0000000000000000 [Eh]
	 Same-Spin Energy          =      -0.5254780130569119 [Eh]
	 Opposite-Spin Energy      =      -1.6809824566679510 [Eh]
	 Correlation Energy        =      -2.2064604697248629 [Eh]
	 Total Energy              =    -859.8298200565997149 [Eh]

	 ================> DF-SCS-MP2 Energies <==================
	-----------------------------------------------------------
	 SCS Same-Spin Scale       =       0.3333333333333333 [-]
	 SCS Opposite-Spin Scale   =       1.2000000000000000 [-]
	 SCS Same-Spin Energy      =      -0.1751593376856373 [Eh]
	 SCS Opposite-Spin Energy  =      -2.0171789480015412 [Eh]
	 SCS Correlation Energy    =      -2.1923382856871783 [Eh]
	 SCS Total Energy          =    -859.8156978725619410 [Eh]
	-----------------------------------------------------------

  Dipole Moment: [D]
     X:    -0.0516      Y:     2.7120      Z:    -1.0561     Total:     2.9108

*** Psi4 exiting successfully. Buy a developer a beer!
