                               Psi4 1.4a3.dev225

  ==> Input File <==

--------------------------------------------------------------------------
#psi4
#
memory 32 gb

molecule  {
0 1
  S       -0.2946600    -0.4360860     0.1655790
  O       -1.5730584     0.5806553    -0.0804849
  O       -0.3508230    -1.5212030    -0.8163730
  O       -0.2159750    -0.7550950     1.5921100
  C        2.3621670     0.3010360     0.2220870
  C        0.9741440     0.7483390    -0.2426020
  C        2.8380310    -0.9649040    -0.4891310
  C        3.3410260     1.4538450    -0.0023010
  C       -2.8589370    -0.1133030    -0.1019100
  C       -3.9021700     0.9699320    -0.2416680
  H        2.2983390     0.1006560     1.2981690
  H        0.9320730     0.8904060    -1.3271310
  H        0.6744950     1.6778970     0.2503870
  H        2.8691440    -0.8060450    -1.5725570
  H        2.1878640    -1.8202610    -0.2948070
  H        3.8478330    -1.2217420    -0.1555610
  H        3.4181100     1.6939920    -1.0681710
  H        3.0282660     2.3570280     0.5308300
  H        4.3384750     1.1791220     0.3530350
  H       -2.8783840    -0.8196920    -0.9355340
  H       -2.9674710    -0.6619300     0.8385710
  H       -3.8465560     1.6647390     0.5984370
  H       -3.7534550     1.5250040    -1.1701160
  H       -4.8990420     0.5201230    -0.2596090
units angstrom
no_reorient  #important for SAPT in psi4, default
symmetry c1  #important for SAPT in psi4, default
}

set PROPERTIES_ORIGIN ["COM"]
properties('MP2/aug-cc-pvtz', properties = ['dipole'])
--------------------------------------------------------------------------

    Molecular point group: c1
  Charge       = 0
  Multiplicity = 1
  Basis Set: AUG-CC-PVTZ
    Blend: AUG-CC-PVTZ
  Basis Set: (AUG-CC-PVTZ AUX)
    Blend: AUG-CC-PVTZ-JKFIT

    Orbital Energies [Eh]
    ---------------------

    Doubly Occupied:

       1A    -92.214286     2A    -20.614756     3A    -20.555795
       4A    -20.553352     5A    -11.301100     6A    -11.278605
       7A    -11.251818     8A    -11.232278     9A    -11.229768
      10A    -11.218958    11A     -9.178541    12A     -6.863961
      13A     -6.862531    14A     -6.862365    15A     -1.479329
      16A     -1.374138    17A     -1.338107    18A     -1.121229
      19A     -1.050290    20A     -0.996894    21A     -0.942640
      22A     -0.875478    23A     -0.831454    24A     -0.788080
      25A     -0.724622    26A     -0.691735    27A     -0.690750
      28A     -0.656647    29A     -0.635546    30A     -0.616058
      31A     -0.606664    32A     -0.587050    33A     -0.566357
      34A     -0.558380    35A     -0.554458    36A     -0.543872
      37A     -0.537296    38A     -0.510611    39A     -0.500146
      40A     -0.496776    41A     -0.490604    42A     -0.485287
      43A     -0.482779    44A     -0.463866    45A     -0.453835

  @DF-RHF Final Energy:  -857.62521406817996

   => Energetics <=

    Nuclear Repulsion Energy =            722.1868739281982243
    One-Electron Energy =               -2611.8859943313805161
    Two-Electron Energy =                1032.0739063350024480
    Total Energy =                       -857.6252140681799574
  Basis Set: (AUG-CC-PVTZ AUX)
    Blend: AUG-CC-PVTZ-RI
    Molecular point group: c1

    Geometry (in Angstrom), charge = 0, multiplicity = 1:

       Center              X                  Y                   Z               Mass
    ------------   -----------------  -----------------  -----------------  -----------------
         S           -0.262710069069    -0.399977182160     0.146241899725    31.972071174400
         O           -1.541108469069     0.616764117840    -0.099822000275    15.994914619570
         O           -0.318873069069    -1.485094182160    -0.835710100275    15.994914619570
         O           -0.184025069069    -0.718986182160     1.572772899725    15.994914619570
         C            2.394116930931     0.337144817840     0.202749899725    12.000000000000
         C            1.006093930931     0.784447817840    -0.261939100275    12.000000000000
         C            2.869980930931    -0.928795182160    -0.508468100275    12.000000000000
         C            3.372975930931     1.489953817840    -0.021638100275    12.000000000000
         C           -2.826987069069    -0.077194182160    -0.121247100275    12.000000000000
         C           -3.870220069069     1.006040817840    -0.261005100275    12.000000000000
         H            2.330288930931     0.136764817840     1.278831899725     1.007825032230
         H            0.964022930931     0.926514817840    -1.346468100275     1.007825032230
         H            0.706444930931     1.714005817840     0.231049899725     1.007825032230
         H            2.901093930931    -0.769936182160    -1.591894100275     1.007825032230
         H            2.219813930931    -1.784152182160    -0.314144100275     1.007825032230
         H            3.879782930931    -1.185633182160    -0.174898100275     1.007825032230
         H            3.450059930931     1.730100817840    -1.087508100275     1.007825032230
         H            3.060215930931     2.393136817840     0.511492899725     1.007825032230
         H            4.370424930931     1.215230817840     0.333697899725     1.007825032230
         H           -2.846434069069    -0.783583182160    -0.954871100275     1.007825032230
         H           -2.935521069069    -0.625821182160     0.819233899725     1.007825032230
         H           -3.814606069069     1.700847817840     0.579099899725     1.007825032230
         H           -3.721505069069     1.561112817840    -1.189453100275     1.007825032230
         H           -4.867092069069     0.556231817840    -0.278946100275     1.007825032230

  Basis Set: AUG-CC-PVTZ
    Blend: AUG-CC-PVTZ
  Basis Set: (AUG-CC-PVTZ AUX)
    Blend: AUG-CC-PVTZ-JKFIT
	 Reference Energy          =    -857.6252140681799574 [Eh]
	 Singles Energy            =      -0.0000000000000000 [Eh]
	 Same-Spin Energy          =      -0.5255309904758823 [Eh]
	 Opposite-Spin Energy      =      -1.6814321635370644 [Eh]
	 Correlation Energy        =      -2.2069631540129464 [Eh]
	 Total Energy              =    -859.8321772221928541 [Eh]

	 ================> DF-SCS-MP2 Energies <==================
	-----------------------------------------------------------
	 SCS Same-Spin Scale       =       0.3333333333333333 [-]
	 SCS Opposite-Spin Scale   =       1.2000000000000000 [-]
	 SCS Same-Spin Energy      =      -0.1751769968252941 [Eh]
	 SCS Opposite-Spin Energy  =      -2.0177185962444772 [Eh]
	 SCS Correlation Energy    =      -2.1928955930697711 [Eh]
	 SCS Total Energy          =    -859.8181096612497640 [Eh]
	-----------------------------------------------------------

  Dipole Moment: [D]
     X:     0.0047      Y:     2.6658      Z:    -1.0801     Total:     2.8763

*** Psi4 exiting successfully. Buy a developer a beer!
