                               Psi4 1.4a3.dev225

  ==> Input File <==

--------------------------------------------------------------------------
#psi4
#
memory 32 gb

molecule  {
0 1
  S       -0.2946600    -0.4360860     0.1655790
  O       -1.5657890     0.5673500    -0.1009940
  O       -0.3508230    -1.5212030    -0.8163730
  O       -0.2159750    -0.7550950     1.5921100
  C        2.3621670     0.3010360     0.2220870
  C        0.9741440     0.7483390    -0.2426020
  C        2.8380310    -0.9649040    -0.4891310
  C        3.3410260     1.4538450    -0.0023010
  C       -2.8589370    -0.1133030    -0.1019100
  C       -3.9021700     0.9699320    -0.2416680
  H        2.2983390     0.1006560     1.2981690
  H        0.9320730     0.8904060    -1.3271310
  H        0.6608003     1.7203801     0.2729178
  H        2.8691440    -0.8060450    -1.5725570
  H        2.1878640    -1.8202610    -0.2948070
  H        3.8478330    -1.2217420    -0.1555610
  H        3.4181100     1.6939920    -1.0681710
  H        3.0282660     2.3570280     0.5308300
  H        4.3384750     1.1791220     0.3530350
  H       -2.8783840    -0.8196920    -0.9355340
  H       -2.9674710    -0.6619300     0.8385710
  H       -3.8465560     1.6647390     0.5984370
  H       -3.7534550     1.5250040    -1.1701160
  H       -4.8990420     0.5201230    -0.2596090
units angstrom
no_reorient  #important for SAPT in psi4, default
symmetry c1  #important for SAPT in psi4, default
}

set PROPERTIES_ORIGIN ["COM"]
properties('MP2/aug-cc-pvtz', properties = ['dipole'])
--------------------------------------------------------------------------

    Molecular point group: c1
  Charge       = 0
  Multiplicity = 1
  Basis Set: AUG-CC-PVTZ
    Blend: AUG-CC-PVTZ
  Basis Set: (AUG-CC-PVTZ AUX)
    Blend: AUG-CC-PVTZ-JKFIT

    Orbital Energies [Eh]
    ---------------------

    Doubly Occupied:

       1A    -92.214033     2A    -20.614747     3A    -20.553958
       4A    -20.553482     5A    -11.301808     6A    -11.283316
       7A    -11.251728     8A    -11.232973     9A    -11.229441
      10A    -11.218922    11A     -9.178243    12A     -6.863703
      13A     -6.862260    14A     -6.862084    15A     -1.481012
      16A     -1.375018    17A     -1.337499    18A     -1.119695
      19A     -1.051339    20A     -0.994772    21A     -0.942304
      22A     -0.876421    23A     -0.830565    24A     -0.786917
      25A     -0.724343    26A     -0.692268    27A     -0.690672
      28A     -0.652664    29A     -0.633770    30A     -0.615670
      31A     -0.606709    32A     -0.586009    33A     -0.566547
      34A     -0.558163    35A     -0.554479    36A     -0.543486
      37A     -0.537217    38A     -0.509358    39A     -0.499987
      40A     -0.496809    41A     -0.490100    42A     -0.485146
      43A     -0.482567    44A     -0.463205    45A     -0.453492

  @DF-RHF Final Energy:  -857.62416943598521

   => Energetics <=

    Nuclear Repulsion Energy =            722.3030660483291285
    One-Electron Energy =               -2612.1366654933763130
    Two-Electron Energy =                1032.2094300090618617
    Total Energy =                       -857.6241694359853227
  Basis Set: (AUG-CC-PVTZ AUX)
    Blend: AUG-CC-PVTZ-RI
    Molecular point group: c1

    Geometry (in Angstrom), charge = 0, multiplicity = 1:

       Center              X                  Y                   Z               Mass
    ------------   -----------------  -----------------  -----------------  -----------------
         S           -0.263327120997    -0.398953485367     0.148080527302    31.972071174400
         O           -1.534456120997     0.604482514633    -0.118492472698    15.994914619570
         O           -0.319490120997    -1.484070485367    -0.833871472698    15.994914619570
         O           -0.184642120997    -0.717962485367     1.574611527302    15.994914619570
         C            2.393499879003     0.338168514633     0.204588527302    12.000000000000
         C            1.005476879003     0.785471514633    -0.260100472698    12.000000000000
         C            2.869363879003    -0.927771485367    -0.506629472698    12.000000000000
         C            3.372358879003     1.490977514633    -0.019799472698    12.000000000000
         C           -2.827604120997    -0.076170485367    -0.119408472698    12.000000000000
         C           -3.870837120997     1.007064514633    -0.259166472698    12.000000000000
         H            2.329671879003     0.137788514633     1.280670527302     1.007825032230
         H            0.963405879003     0.927538514633    -1.344629472698     1.007825032230
         H            0.692133179003     1.757512614633     0.255419327302     1.007825032230
         H            2.900476879003    -0.768912485367    -1.590055472698     1.007825032230
         H            2.219196879003    -1.783128485367    -0.312305472698     1.007825032230
         H            3.879165879003    -1.184609485367    -0.173059472698     1.007825032230
         H            3.449442879003     1.731124514633    -1.085669472698     1.007825032230
         H            3.059598879003     2.394160514633     0.513331527302     1.007825032230
         H            4.369807879003     1.216254514633     0.335536527302     1.007825032230
         H           -2.847051120997    -0.782559485367    -0.953032472698     1.007825032230
         H           -2.936138120997    -0.624797485367     0.821072527302     1.007825032230
         H           -3.815223120997     1.701871514633     0.580938527302     1.007825032230
         H           -3.722122120997     1.562136514633    -1.187614472698     1.007825032230
         H           -4.867709120997     0.557255514633    -0.277107472698     1.007825032230

  Basis Set: AUG-CC-PVTZ
    Blend: AUG-CC-PVTZ
  Basis Set: (AUG-CC-PVTZ AUX)
    Blend: AUG-CC-PVTZ-JKFIT
	 Reference Energy          =    -857.6241694359852090 [Eh]
	 Singles Energy            =      -0.0000000000000000 [Eh]
	 Same-Spin Energy          =      -0.5254119654129356 [Eh]
	 Opposite-Spin Energy      =      -1.6812587404602333 [Eh]
	 Correlation Energy        =      -2.2066707058731687 [Eh]
	 Total Energy              =    -859.8308401418584026 [Eh]

	 ================> DF-SCS-MP2 Energies <==================
	-----------------------------------------------------------
	 SCS Same-Spin Scale       =       0.3333333333333333 [-]
	 SCS Opposite-Spin Scale   =       1.2000000000000000 [-]
	 SCS Same-Spin Energy      =      -0.1751373218043119 [Eh]
	 SCS Opposite-Spin Energy  =      -2.0175104885522797 [Eh]
	 SCS Correlation Energy    =      -2.1926478103565916 [Eh]
	 SCS Total Energy          =    -859.8168172463417704 [Eh]
	-----------------------------------------------------------

  Dipole Moment: [D]
     X:    -0.0596      Y:     2.7012      Z:    -1.0444     Total:     2.8967

*** Psi4 exiting successfully. Buy a developer a beer!
