                               Psi4 1.4a3.dev225

  ==> Input File <==

--------------------------------------------------------------------------
#psi4
#
memory 32 gb

molecule  {
0 1
  S       -0.2768904    -0.4137131     0.1635234
  O       -1.5657890     0.5673500    -0.1009940
  O       -0.3508230    -1.5212030    -0.8163730
  O       -0.2159750    -0.7550950     1.5921100
  C        2.3621670     0.3010360     0.2220870
  C        0.9741440     0.7483390    -0.2426020
  C        2.8380310    -0.9649040    -0.4891310
  C        3.3410260     1.4538450    -0.0023010
  C       -2.8589370    -0.1133030    -0.1019100
  C       -3.9021700     0.9699320    -0.2416680
  H        2.2983390     0.1006560     1.2981690
  H        0.9320730     0.8904060    -1.3271310
  H        0.6744950     1.6778970     0.2503870
  H        2.8691440    -0.8060450    -1.5725570
  H        2.1878640    -1.8202610    -0.2948070
  H        3.8478330    -1.2217420    -0.1555610
  H        3.4181100     1.6939920    -1.0681710
  H        3.0282660     2.3570280     0.5308300
  H        4.3384750     1.1791220     0.3530350
  H       -2.8783840    -0.8196920    -0.9355340
  H       -2.9674710    -0.6619300     0.8385710
  H       -3.8465560     1.6647390     0.5984370
  H       -3.7534550     1.5250040    -1.1701160
  H       -4.8990420     0.5201230    -0.2596090
units angstrom
no_reorient  #important for SAPT in psi4, default
symmetry c1  #important for SAPT in psi4, default
}

set PROPERTIES_ORIGIN ["COM"]
properties('MP2/aug-cc-pvtz', properties = ['dipole'])
--------------------------------------------------------------------------

    Molecular point group: c1
  Charge       = 0
  Multiplicity = 1
  Basis Set: AUG-CC-PVTZ
    Blend: AUG-CC-PVTZ
  Basis Set: (AUG-CC-PVTZ AUX)
    Blend: AUG-CC-PVTZ-JKFIT

    Orbital Energies [Eh]
    ---------------------

    Doubly Occupied:

       1A    -92.214800     2A    -20.614136     3A    -20.552370
       4A    -20.550044     5A    -11.301297     6A    -11.280599
       7A    -11.254127     8A    -11.232588     9A    -11.231208
      10A    -11.219680    11A     -9.179072    12A     -6.864498
      13A     -6.863111    14A     -6.862769    15A     -1.476297
      16A     -1.371247    17A     -1.328517    18A     -1.126035
      19A     -1.052587    20A     -1.002832    21A     -0.943808
      22A     -0.877569    23A     -0.830460    24A     -0.789733
      25A     -0.725700    26A     -0.692413    27A     -0.690240
      28A     -0.657643    29A     -0.633323    30A     -0.617333
      31A     -0.605481    32A     -0.587365    33A     -0.567087
      34A     -0.558094    35A     -0.554506    36A     -0.544450
      37A     -0.536002    38A     -0.509792    39A     -0.497792
      40A     -0.495954    41A     -0.491452    42A     -0.484827
      43A     -0.481675    44A     -0.460187    45A     -0.456253

  @DF-RHF Final Energy:  -857.62416036921604

   => Energetics <=

    Nuclear Repulsion Energy =            722.5992269273027659
    One-Electron Energy =               -2612.7128673426009300
    Two-Electron Energy =                1032.4894800460820079
    Total Energy =                       -857.6241603692160425
  Basis Set: (AUG-CC-PVTZ AUX)
    Blend: AUG-CC-PVTZ-RI
    Molecular point group: c1

    Geometry (in Angstrom), charge = 0, multiplicity = 1:

       Center              X                  Y                   Z               Mass
    ------------   -----------------  -----------------  -----------------  -----------------
         S           -0.249061739179    -0.380630125547     0.146557418596    31.972071174400
         O           -1.537960339179     0.600432974453    -0.117959981404    15.994914619570
         O           -0.322994339179    -1.488120025547    -0.833338981404    15.994914619570
         O           -0.188146339179    -0.722012025547     1.575144018596    15.994914619570
         C            2.389995660821     0.334118974453     0.205121018596    12.000000000000
         C            1.001972660821     0.781421974453    -0.259567981404    12.000000000000
         C            2.865859660821    -0.931821025547    -0.506096981404    12.000000000000
         C            3.368854660821     1.486927974453    -0.019266981404    12.000000000000
         C           -2.831108339179    -0.080220025547    -0.118875981404    12.000000000000
         C           -3.874341339179     1.003014974453    -0.258633981404    12.000000000000
         H            2.326167660821     0.133738974453     1.281203018596     1.007825032230
         H            0.959901660821     0.923488974453    -1.344096981404     1.007825032230
         H            0.702323660821     1.710979974453     0.233421018596     1.007825032230
         H            2.896972660821    -0.772962025547    -1.589522981404     1.007825032230
         H            2.215692660821    -1.787178025547    -0.311772981404     1.007825032230
         H            3.875661660821    -1.188659025547    -0.172526981404     1.007825032230
         H            3.445938660821     1.727074974453    -1.085136981404     1.007825032230
         H            3.056094660821     2.390110974453     0.513864018596     1.007825032230
         H            4.366303660821     1.212204974453     0.336069018596     1.007825032230
         H           -2.850555339179    -0.786609025547    -0.952499981404     1.007825032230
         H           -2.939642339179    -0.628847025547     0.821605018596     1.007825032230
         H           -3.818727339179     1.697821974453     0.581471018596     1.007825032230
         H           -3.725626339179     1.558086974453    -1.187081981404     1.007825032230
         H           -4.871213339179     0.553205974453    -0.276574981404     1.007825032230

  Basis Set: AUG-CC-PVTZ
    Blend: AUG-CC-PVTZ
  Basis Set: (AUG-CC-PVTZ AUX)
    Blend: AUG-CC-PVTZ-JKFIT
	 Reference Energy          =    -857.6241603692160425 [Eh]
	 Singles Energy            =      -0.0000000000000000 [Eh]
	 Same-Spin Energy          =      -0.5257493245414899 [Eh]
	 Opposite-Spin Energy      =      -1.6814274437424688 [Eh]
	 Correlation Energy        =      -2.2071767682839587 [Eh]
	 Total Energy              =    -859.8313371374999861 [Eh]

	 ================> DF-SCS-MP2 Energies <==================
	-----------------------------------------------------------
	 SCS Same-Spin Scale       =       0.3333333333333333 [-]
	 SCS Opposite-Spin Scale   =       1.2000000000000000 [-]
	 SCS Same-Spin Energy      =      -0.1752497748471633 [Eh]
	 SCS Opposite-Spin Energy  =      -2.0177129324909626 [Eh]
	 SCS Correlation Energy    =      -2.1929627073381259 [Eh]
	 SCS Total Energy          =    -859.8171230765541395 [Eh]
	-----------------------------------------------------------

  Dipole Moment: [D]
     X:     0.1050      Y:     2.8829      Z:    -1.0520     Total:     3.0706

*** Psi4 exiting successfully. Buy a developer a beer!
