                               Psi4 1.4a3.dev225

  ==> Input File <==

--------------------------------------------------------------------------
#psi4
#
memory 32 gb

molecule  {
0 1
  S       -0.2946600    -0.4360860     0.1655790
  O       -1.5657890     0.5673500    -0.1009940
  O       -0.3508230    -1.5212030    -0.8163730
  O       -0.2159750    -0.7550950     1.5921100
  C        2.3933588     0.3044973     0.1199688
  C        0.9741440     0.7483390    -0.2426020
  C        2.8380310    -0.9649040    -0.4891310
  C        3.3410260     1.4538450    -0.0023010
  C       -2.8589370    -0.1133030    -0.1019100
  C       -3.9021700     0.9699320    -0.2416680
  H        2.2983390     0.1006560     1.2981690
  H        0.9320730     0.8904060    -1.3271310
  H        0.6744950     1.6778970     0.2503870
  H        2.8691440    -0.8060450    -1.5725570
  H        2.1878640    -1.8202610    -0.2948070
  H        3.8478330    -1.2217420    -0.1555610
  H        3.4181100     1.6939920    -1.0681710
  H        3.0282660     2.3570280     0.5308300
  H        4.3384750     1.1791220     0.3530350
  H       -2.8783840    -0.8196920    -0.9355340
  H       -2.9674710    -0.6619300     0.8385710
  H       -3.8465560     1.6647390     0.5984370
  H       -3.7534550     1.5250040    -1.1701160
  H       -4.8990420     0.5201230    -0.2596090
units angstrom
no_reorient  #important for SAPT in psi4, default
symmetry c1  #important for SAPT in psi4, default
}

set PROPERTIES_ORIGIN ["COM"]
properties('MP2/aug-cc-pvtz', properties = ['dipole'])
--------------------------------------------------------------------------

    Molecular point group: c1
  Charge       = 0
  Multiplicity = 1
  Basis Set: AUG-CC-PVTZ
    Blend: AUG-CC-PVTZ
  Basis Set: (AUG-CC-PVTZ AUX)
    Blend: AUG-CC-PVTZ-JKFIT

    Orbital Energies [Eh]
    ---------------------

    Doubly Occupied:

       1A    -92.215003     2A    -20.615738     3A    -20.554110
       4A    -20.553385     5A    -11.302482     6A    -11.278734
       7A    -11.256360     8A    -11.233365     9A    -11.229486
      10A    -11.218252    11A     -9.179090    12A     -6.864543
      13A     -6.863160    14A     -6.862931    15A     -1.481424
      16A     -1.375528    17A     -1.337503    18A     -1.126911
      19A     -1.053275    20A     -1.000909    21A     -0.951683
      22A     -0.877661    23A     -0.830560    24A     -0.775586
      25A     -0.725830    26A     -0.693713    27A     -0.690032
      28A     -0.659216    29A     -0.635962    30A     -0.623167
      31A     -0.607853    32A     -0.588358    33A     -0.567358
      34A     -0.559142    35A     -0.555375    36A     -0.546901
      37A     -0.538578    38A     -0.517024    39A     -0.505575
      40A     -0.499910    41A     -0.495557    42A     -0.484965
      43A     -0.463987    44A     -0.458417    45A     -0.445963

  @DF-RHF Final Energy:  -857.61324638030555

   => Energetics <=

    Nuclear Repulsion Energy =            722.7625246524866043
    One-Electron Energy =               -2612.9504253114869243
    Two-Electron Energy =                1032.5746542786946520
    Total Energy =                       -857.6132463803055543
  Basis Set: (AUG-CC-PVTZ AUX)
    Blend: AUG-CC-PVTZ-RI
    Molecular point group: c1

    Geometry (in Angstrom), charge = 0, multiplicity = 1:

       Center              X                  Y                   Z               Mass
    ------------   -----------------  -----------------  -----------------  -----------------
         S           -0.265664159327    -0.398945778017     0.155596350874    31.972071174400
         O           -1.536793159327     0.604490221983    -0.110976649126    15.994914619570
         O           -0.321827159327    -1.484062778017    -0.826355649126    15.994914619570
         O           -0.186979159327    -0.717954778017     1.582127350874    15.994914619570
         C            2.422354640673     0.341637521983     0.109986150874    12.000000000000
         C            1.003139840673     0.785479221983    -0.252584649126    12.000000000000
         C            2.867026840673    -0.927763778017    -0.499113649126    12.000000000000
         C            3.370021840673     1.490985221983    -0.012283649126    12.000000000000
         C           -2.829941159327    -0.076162778017    -0.111892649126    12.000000000000
         C           -3.873174159327     1.007072221983    -0.251650649126    12.000000000000
         H            2.327334840673     0.137796221983     1.288186350874     1.007825032230
         H            0.961068840673     0.927546221983    -1.337113649126     1.007825032230
         H            0.703490840673     1.715037221983     0.240404350874     1.007825032230
         H            2.898139840673    -0.768904778017    -1.582539649126     1.007825032230
         H            2.216859840673    -1.783120778017    -0.304789649126     1.007825032230
         H            3.876828840673    -1.184601778017    -0.165543649126     1.007825032230
         H            3.447105840673     1.731132221983    -1.078153649126     1.007825032230
         H            3.057261840673     2.394168221983     0.520847350874     1.007825032230
         H            4.367470840673     1.216262221983     0.343052350874     1.007825032230
         H           -2.849388159327    -0.782551778017    -0.945516649126     1.007825032230
         H           -2.938475159327    -0.624789778017     0.828588350874     1.007825032230
         H           -3.817560159327     1.701879221983     0.588454350874     1.007825032230
         H           -3.724459159327     1.562144221983    -1.180098649126     1.007825032230
         H           -4.870046159327     0.557263221983    -0.269591649126     1.007825032230

  Basis Set: AUG-CC-PVTZ
    Blend: AUG-CC-PVTZ
  Basis Set: (AUG-CC-PVTZ AUX)
    Blend: AUG-CC-PVTZ-JKFIT
	 Reference Energy          =    -857.6132463803055543 [Eh]
	 Singles Energy            =      -0.0000000000000000 [Eh]
	 Same-Spin Energy          =      -0.5261574933750119 [Eh]
	 Opposite-Spin Energy      =      -1.6821278342965909 [Eh]
	 Correlation Energy        =      -2.2082853276716028 [Eh]
	 Total Energy              =    -859.8215317079771012 [Eh]

	 ================> DF-SCS-MP2 Energies <==================
	-----------------------------------------------------------
	 SCS Same-Spin Scale       =       0.3333333333333333 [-]
	 SCS Opposite-Spin Scale   =       1.2000000000000000 [-]
	 SCS Same-Spin Energy      =      -0.1753858311250040 [Eh]
	 SCS Opposite-Spin Energy  =      -2.0185534011559088 [Eh]
	 SCS Correlation Energy    =      -2.1939392322809126 [Eh]
	 SCS Total Energy          =    -859.8071856125865224 [Eh]
	-----------------------------------------------------------

  Dipole Moment: [D]
     X:    -0.0805      Y:     2.6903      Z:    -1.0741     Total:     2.8979

*** Psi4 exiting successfully. Buy a developer a beer!
