                               Psi4 1.4a3.dev225

  ==> Input File <==

--------------------------------------------------------------------------
#psi4
#
memory 32 gb

molecule  {
0 1
  S       -0.2946600    -0.4360860     0.1655790
  O       -1.5657890     0.5673500    -0.1009940
  O       -0.3508230    -1.5212030    -0.8163730
  O       -0.2159750    -0.7550950     1.5921100
  C        2.3621670     0.3010360     0.2220870
  C        0.9741440     0.7483390    -0.2426020
  C        2.8380310    -0.9649040    -0.4891310
  C        3.3410260     1.4538450    -0.0023010
  C       -2.8589370    -0.1133030    -0.1019100
  C       -3.9021700     0.9699320    -0.2416680
  H        2.2983390     0.1006560     1.2981690
  H        0.9320730     0.8904060    -1.3271310
  H        0.6744950     1.6778970     0.2503870
  H        2.8691440    -0.8060450    -1.5725570
  H        2.1878640    -1.8202610    -0.2948070
  H        3.8478330    -1.2217420    -0.1555610
  H        3.4181100     1.6939920    -1.0681710
  H        3.0282660     2.3570280     0.5308300
  H        4.3202386     1.1841448     0.3465384
  H       -2.8783840    -0.8196920    -0.9355340
  H       -2.9674710    -0.6619300     0.8385710
  H       -3.8465560     1.6647390     0.5984370
  H       -3.7534550     1.5250040    -1.1701160
  H       -4.8990420     0.5201230    -0.2596090
units angstrom
no_reorient  #important for SAPT in psi4, default
symmetry c1  #important for SAPT in psi4, default
}

set PROPERTIES_ORIGIN ["COM"]
properties('MP2/aug-cc-pvtz', properties = ['dipole'])
--------------------------------------------------------------------------

    Molecular point group: c1
  Charge       = 0
  Multiplicity = 1
  Basis Set: AUG-CC-PVTZ
    Blend: AUG-CC-PVTZ
  Basis Set: (AUG-CC-PVTZ AUX)
    Blend: AUG-CC-PVTZ-JKFIT

    Orbital Energies [Eh]
    ---------------------

    Doubly Occupied:

       1A    -92.213718     2A    -20.614818     3A    -20.553602
       4A    -20.553462     5A    -11.301856     6A    -11.277969
       7A    -11.251322     8A    -11.232987     9A    -11.227091
      10A    -11.218628    11A     -9.177971    12A     -6.863427
      13A     -6.861980    14A     -6.861808    15A     -1.480954
      16A     -1.375005    17A     -1.337345    18A     -1.120993
      19A     -1.051543    20A     -0.997098    21A     -0.943318
      22A     -0.877207    23A     -0.830941    24A     -0.788212
      25A     -0.725244    26A     -0.692797    27A     -0.690777
      28A     -0.656697    29A     -0.635063    30A     -0.616281
      31A     -0.607114    32A     -0.587261    33A     -0.567293
      34A     -0.558971    35A     -0.554558    36A     -0.545169
      37A     -0.537674    38A     -0.509943    39A     -0.499957
      40A     -0.496880    41A     -0.490817    42A     -0.485343
      43A     -0.482510    44A     -0.463266    45A     -0.453649

  @DF-RHF Final Energy:  -857.62654471304313

   => Energetics <=

    Nuclear Repulsion Energy =            722.6709723989506529
    One-Electron Energy =               -2612.8539978517137570
    Two-Electron Energy =                1032.5564807397199729
    Total Energy =                       -857.6265447130431312
  Basis Set: (AUG-CC-PVTZ AUX)
    Blend: AUG-CC-PVTZ-RI
    Molecular point group: c1

    Geometry (in Angstrom), charge = 0, multiplicity = 1:

       Center              X                  Y                   Z               Mass
    ------------   -----------------  -----------------  -----------------  -----------------
         S           -0.263299558287    -0.398726145966     0.148256689045    31.972071174400
         O           -1.534428558287     0.604709854034    -0.118316310955    15.994914619570
         O           -0.319462558287    -1.483843145966    -0.833695310955    15.994914619570
         O           -0.184614558287    -0.717735145966     1.574787689045    15.994914619570
         C            2.393527441713     0.338395854034     0.204764689045    12.000000000000
         C            1.005504441713     0.785698854034    -0.259924310955    12.000000000000
         C            2.869391441713    -0.927544145966    -0.506453310955    12.000000000000
         C            3.372386441713     1.491204854034    -0.019623310955    12.000000000000
         C           -2.827576558287    -0.075943145966    -0.119232310955    12.000000000000
         C           -3.870809558287     1.007291854034    -0.258990310955    12.000000000000
         H            2.329699441713     0.138015854034     1.280846689045     1.007825032230
         H            0.963433441713     0.927765854034    -1.344453310955     1.007825032230
         H            0.705855441713     1.715256854034     0.233064689045     1.007825032230
         H            2.900504441713    -0.768685145966    -1.589879310955     1.007825032230
         H            2.219224441713    -1.782901145966    -0.312129310955     1.007825032230
         H            3.879193441713    -1.184382145966    -0.172883310955     1.007825032230
         H            3.449470441713     1.731351854034    -1.085493310955     1.007825032230
         H            3.059626441713     2.394387854034     0.513507689045     1.007825032230
         H            4.351599041713     1.221504654034     0.329216089045     1.007825032230
         H           -2.847023558287    -0.782332145966    -0.952856310955     1.007825032230
         H           -2.936110558287    -0.624570145966     0.821248689045     1.007825032230
         H           -3.815195558287     1.702098854034     0.581114689045     1.007825032230
         H           -3.722094558287     1.562363854034    -1.187438310955     1.007825032230
         H           -4.867681558287     0.557482854034    -0.276931310955     1.007825032230

  Basis Set: AUG-CC-PVTZ
    Blend: AUG-CC-PVTZ
  Basis Set: (AUG-CC-PVTZ AUX)
    Blend: AUG-CC-PVTZ-JKFIT
	 Reference Energy          =    -857.6265447130431312 [Eh]
	 Singles Energy            =      -0.0000000000000000 [Eh]
	 Same-Spin Energy          =      -0.5252882242530943 [Eh]
	 Opposite-Spin Energy      =      -1.6806749595225008 [Eh]
	 Correlation Energy        =      -2.2059631837755953 [Eh]
	 Total Energy              =    -859.8325078968186972 [Eh]

	 ================> DF-SCS-MP2 Energies <==================
	-----------------------------------------------------------
	 SCS Same-Spin Scale       =       0.3333333333333333 [-]
	 SCS Opposite-Spin Scale   =       1.2000000000000000 [-]
	 SCS Same-Spin Energy      =      -0.1750960747510314 [Eh]
	 SCS Opposite-Spin Energy  =      -2.0168099514270010 [Eh]
	 SCS Correlation Energy    =      -2.1919060261780325 [Eh]
	 SCS Total Energy          =    -859.8184507392211344 [Eh]
	-----------------------------------------------------------

  Dipole Moment: [D]
     X:    -0.0518      Y:     2.7100      Z:    -1.0418     Total:     2.9039

*** Psi4 exiting successfully. Buy a developer a beer!
