                               Psi4 1.4a3.dev225

  ==> Input File <==

--------------------------------------------------------------------------
#psi4
#
memory 32 gb

molecule  {
0 1
  S       -0.2946600    -0.4360860     0.1655790
  O       -1.5657890     0.5673500    -0.1009940
  O       -0.3508230    -1.5212030    -0.8163730
  O       -0.2159750    -0.7550950     1.5921100
  C        2.3621670     0.3010360     0.2220870
  C        0.9741440     0.7483390    -0.2426020
  C        2.8380310    -0.9649040    -0.4891310
  C        3.3410260     1.4538450    -0.0023010
  C       -2.8589370    -0.1133030    -0.1019100
  C       -3.8855306     0.9905543    -0.1960915
  H        2.2983390     0.1006560     1.2981690
  H        0.9320730     0.8904060    -1.3271310
  H        0.6744950     1.6778970     0.2503870
  H        2.8691440    -0.8060450    -1.5725570
  H        2.1878640    -1.8202610    -0.2948070
  H        3.8478330    -1.2217420    -0.1555610
  H        3.4181100     1.6939920    -1.0681710
  H        3.0282660     2.3570280     0.5308300
  H        4.3384750     1.1791220     0.3530350
  H       -2.8783840    -0.8196920    -0.9355340
  H       -2.9674710    -0.6619300     0.8385710
  H       -3.8465560     1.6647390     0.5984370
  H       -3.7534550     1.5250040    -1.1701160
  H       -4.8990420     0.5201230    -0.2596090
units angstrom
no_reorient  #important for SAPT in psi4, default
symmetry c1  #important for SAPT in psi4, default
}

set PROPERTIES_ORIGIN ["COM"]
properties('MP2/aug-cc-pvtz', properties = ['dipole'])
--------------------------------------------------------------------------

    Molecular point group: c1
  Charge       = 0
  Multiplicity = 1
  Basis Set: AUG-CC-PVTZ
    Blend: AUG-CC-PVTZ
  Basis Set: (AUG-CC-PVTZ AUX)
    Blend: AUG-CC-PVTZ-JKFIT

    Orbital Energies [Eh]
    ---------------------

    Doubly Occupied:

       1A    -92.213590     2A    -20.614531     3A    -20.553719
       4A    -20.553419     5A    -11.302339     6A    -11.277994
       7A    -11.251410     8A    -11.233567     9A    -11.229474
      10A    -11.218579    11A     -9.177861    12A     -6.863311
      13A     -6.861872    14A     -6.861701    15A     -1.480993
      16A     -1.375139    17A     -1.337394    18A     -1.120872
      19A     -1.051724    20A     -0.996525    21A     -0.942298
      22A     -0.877268    23A     -0.831370    24A     -0.787959
      25A     -0.724993    26A     -0.693648    27A     -0.690710
      28A     -0.656740    29A     -0.636193    30A     -0.616320
      31A     -0.606612    32A     -0.586706    33A     -0.569144
      34A     -0.560818    35A     -0.551793    36A     -0.543182
      37A     -0.533802    38A     -0.510359    39A     -0.502244
      40A     -0.495976    41A     -0.490124    42A     -0.485116
      43A     -0.482586    44A     -0.463319    45A     -0.453211

  @DF-RHF Final Energy:  -857.62318486828224

   => Energetics <=

    Nuclear Repulsion Energy =            722.7456301265591492
    One-Electron Energy =               -2613.0006135863923191
    Two-Electron Energy =                1032.6317985915507052
    Total Energy =                       -857.6231848682823511
  Basis Set: (AUG-CC-PVTZ AUX)
    Blend: AUG-CC-PVTZ-RI
    Molecular point group: c1

    Geometry (in Angstrom), charge = 0, multiplicity = 1:

       Center              X                  Y                   Z               Mass
    ------------   -----------------  -----------------  -----------------  -----------------
         S           -0.264612599009    -0.400185836468     0.144923892338    31.972071174400
         O           -1.535741599009     0.603250163532    -0.121649107662    15.994914619570
         O           -0.320775599009    -1.485302836468    -0.837028107662    15.994914619570
         O           -0.185927599009    -0.719194836468     1.571454892338    15.994914619570
         C            2.392214400991     0.336936163532     0.201431892338    12.000000000000
         C            1.004191400991     0.784239163532    -0.263257107662    12.000000000000
         C            2.868078400991    -0.929003836468    -0.509786107662    12.000000000000
         C            3.371073400991     1.489745163532    -0.022956107662    12.000000000000
         C           -2.828889599009    -0.077402836468    -0.122565107662    12.000000000000
         C           -3.855483199009     1.026454463532    -0.216746607662    12.000000000000
         H            2.328386400991     0.136556163532     1.277513892338     1.007825032230
         H            0.962120400991     0.926306163532    -1.347786107662     1.007825032230
         H            0.704542400991     1.713797163532     0.229731892338     1.007825032230
         H            2.899191400991    -0.770144836468    -1.593212107662     1.007825032230
         H            2.217911400991    -1.784360836468    -0.315462107662     1.007825032230
         H            3.877880400991    -1.185841836468    -0.176216107662     1.007825032230
         H            3.448157400991     1.729892163532    -1.088826107662     1.007825032230
         H            3.058313400991     2.392928163532     0.510174892338     1.007825032230
         H            4.368522400991     1.215022163532     0.332379892338     1.007825032230
         H           -2.848336599009    -0.783791836468    -0.956189107662     1.007825032230
         H           -2.937423599009    -0.626029836468     0.817915892338     1.007825032230
         H           -3.816508599009     1.700639163532     0.577781892338     1.007825032230
         H           -3.723407599009     1.560904163532    -1.190771107662     1.007825032230
         H           -4.868994599009     0.556023163532    -0.280264107662     1.007825032230

  Basis Set: AUG-CC-PVTZ
    Blend: AUG-CC-PVTZ
  Basis Set: (AUG-CC-PVTZ AUX)
    Blend: AUG-CC-PVTZ-JKFIT
	 Reference Energy          =    -857.6231848682822374 [Eh]
	 Singles Energy            =      -0.0000000000000000 [Eh]
	 Same-Spin Energy          =      -0.5253737916566656 [Eh]
	 Opposite-Spin Energy      =      -1.6809737591260907 [Eh]
	 Correlation Energy        =      -2.2063475507827564 [Eh]
	 Total Energy              =    -859.8295324190650035 [Eh]

	 ================> DF-SCS-MP2 Energies <==================
	-----------------------------------------------------------
	 SCS Same-Spin Scale       =       0.3333333333333333 [-]
	 SCS Opposite-Spin Scale   =       1.2000000000000000 [-]
	 SCS Same-Spin Energy      =      -0.1751245972188885 [Eh]
	 SCS Opposite-Spin Energy  =      -2.0171685109513087 [Eh]
	 SCS Correlation Energy    =      -2.1922931081701971 [Eh]
	 SCS Total Energy          =    -859.8154779764524847 [Eh]
	-----------------------------------------------------------

  Dipole Moment: [D]
     X:    -0.0699      Y:     2.7149      Z:    -1.0299     Total:     2.9045

*** Psi4 exiting successfully. Buy a developer a beer!
