                               Psi4 1.4a3.dev225

  ==> Input File <==

--------------------------------------------------------------------------
#psi4
#
memory 32 gb

molecule  {
0 1
  S       -0.2946600    -0.4360860     0.1655790
  O       -1.5657890     0.5673500    -0.1009940
  O       -0.3508230    -1.5212030    -0.8163730
  O       -0.2159750    -0.7550950     1.5921100
  C        2.3621670     0.3010360     0.2220870
  C        0.9741440     0.7483390    -0.2426020
  C        2.8380310    -0.9649040    -0.4891310
  C        3.3410260     1.4538450    -0.0023010
  C       -2.8589370    -0.1133030    -0.1019100
  C       -3.9021700     0.9699320    -0.2416680
  H        2.2983390     0.1006560     1.2981690
  H        0.9320730     0.8904060    -1.3271310
  H        0.6744950     1.6778970     0.2503870
  H        2.8691440    -0.8060450    -1.5725570
  H        2.1878640    -1.8202610    -0.2948070
  H        3.8478330    -1.2217420    -0.1555610
  H        3.4181100     1.6939920    -1.0681710
  H        3.0282660     2.3570280     0.5308300
  H        4.3384750     1.1791220     0.3530350
  H       -2.8780281    -0.8067644    -0.9202779
  H       -2.9674710    -0.6619300     0.8385710
  H       -3.8465560     1.6647390     0.5984370
  H       -3.7534550     1.5250040    -1.1701160
  H       -4.8990420     0.5201230    -0.2596090
units angstrom
no_reorient  #important for SAPT in psi4, default
symmetry c1  #important for SAPT in psi4, default
}

set PROPERTIES_ORIGIN ["COM"]
properties('MP2/aug-cc-pvtz', properties = ['dipole'])
--------------------------------------------------------------------------

    Molecular point group: c1
  Charge       = 0
  Multiplicity = 1
  Basis Set: AUG-CC-PVTZ
    Blend: AUG-CC-PVTZ
  Basis Set: (AUG-CC-PVTZ AUX)
    Blend: AUG-CC-PVTZ-JKFIT

    Orbital Energies [Eh]
    ---------------------

    Doubly Occupied:

       1A    -92.213790     2A    -20.614666     3A    -20.553701
       4A    -20.553497     5A    -11.299674     6A    -11.278090
       7A    -11.251467     8A    -11.232927     9A    -11.229510
      10A    -11.218605    11A     -9.178039    12A     -6.863493
      13A     -6.862050    14A     -6.861876    15A     -1.480990
      16A     -1.375026    17A     -1.337412    18A     -1.120929
      19A     -1.052198    20A     -0.996773    21A     -0.942329
      22A     -0.877727    23A     -0.832062    24A     -0.788013
      25A     -0.725246    26A     -0.694050    27A     -0.690831
      28A     -0.657061    29A     -0.635479    30A     -0.616116
      31A     -0.606745    32A     -0.586729    33A     -0.567180
      34A     -0.558827    35A     -0.554616    36A     -0.543638
      37A     -0.537720    38A     -0.510147    39A     -0.500959
      40A     -0.497281    41A     -0.490504    42A     -0.485499
      43A     -0.482620    44A     -0.463484    45A     -0.453612

  @DF-RHF Final Energy:  -857.62663399232986

   => Energetics <=

    Nuclear Repulsion Energy =            722.6737796440335160
    One-Electron Energy =               -2612.8544574695774827
    Two-Electron Energy =                1032.5540438332141093
    Total Energy =                       -857.6266339923299711
  Basis Set: (AUG-CC-PVTZ AUX)
    Blend: AUG-CC-PVTZ-RI
    Molecular point group: c1

    Geometry (in Angstrom), charge = 0, multiplicity = 1:

       Center              X                  Y                   Z               Mass
    ------------   -----------------  -----------------  -----------------  -----------------
         S           -0.263412391403    -0.398774118686     0.148124676066    31.972071174400
         O           -1.534541391403     0.604661881314    -0.118448323934    15.994914619570
         O           -0.319575391403    -1.483891118686    -0.833827323934    15.994914619570
         O           -0.184727391403    -0.717783118686     1.574655676066    15.994914619570
         C            2.393414608597     0.338347881314     0.204632676066    12.000000000000
         C            1.005391608597     0.785650881314    -0.260056323934    12.000000000000
         C            2.869278608597    -0.927592118686    -0.506585323934    12.000000000000
         C            3.372273608597     1.491156881314    -0.019755323934    12.000000000000
         C           -2.827689391403    -0.075991118686    -0.119364323934    12.000000000000
         C           -3.870922391403     1.007243881314    -0.259122323934    12.000000000000
         H            2.329586608597     0.137967881314     1.280714676066     1.007825032230
         H            0.963320608597     0.927717881314    -1.344585323934     1.007825032230
         H            0.705742608597     1.715208881314     0.232932676066     1.007825032230
         H            2.900391608597    -0.768733118686    -1.590011323934     1.007825032230
         H            2.219111608597    -1.782949118686    -0.312261323934     1.007825032230
         H            3.879080608597    -1.184430118686    -0.173015323934     1.007825032230
         H            3.449357608597     1.731303881314    -1.085625323934     1.007825032230
         H            3.059513608597     2.394339881314     0.513375676066     1.007825032230
         H            4.369722608597     1.216433881314     0.335580676066     1.007825032230
         H           -2.846780491403    -0.769452518686    -0.937732223934     1.007825032230
         H           -2.936223391403    -0.624618118686     0.821116676066     1.007825032230
         H           -3.815308391403     1.702050881314     0.580982676066     1.007825032230
         H           -3.722207391403     1.562315881314    -1.187570323934     1.007825032230
         H           -4.867794391403     0.557434881314    -0.277063323934     1.007825032230

  Basis Set: AUG-CC-PVTZ
    Blend: AUG-CC-PVTZ
  Basis Set: (AUG-CC-PVTZ AUX)
    Blend: AUG-CC-PVTZ-JKFIT
	 Reference Energy          =    -857.6266339923298574 [Eh]
	 Singles Energy            =      -0.0000000000000000 [Eh]
	 Same-Spin Energy          =      -0.5252466110361274 [Eh]
	 Opposite-Spin Energy      =      -1.6806318446982458 [Eh]
	 Correlation Energy        =      -2.2058784557343731 [Eh]
	 Total Energy              =    -859.8325124480642216 [Eh]

	 ================> DF-SCS-MP2 Energies <==================
	-----------------------------------------------------------
	 SCS Same-Spin Scale       =       0.3333333333333333 [-]
	 SCS Opposite-Spin Scale   =       1.2000000000000000 [-]
	 SCS Same-Spin Energy      =      -0.1750822036787091 [Eh]
	 SCS Opposite-Spin Energy  =      -2.0167582136378948 [Eh]
	 SCS Correlation Energy    =      -2.1918404173166040 [Eh]
	 SCS Total Energy          =    -859.8184744096464556 [Eh]
	-----------------------------------------------------------

  Dipole Moment: [D]
     X:    -0.0714      Y:     2.7045      Z:    -1.0479     Total:     2.9013

*** Psi4 exiting successfully. Buy a developer a beer!
