                               Psi4 1.4a3.dev225

  ==> Input File <==

--------------------------------------------------------------------------
#psi4
#
memory 32 gb

molecule  {
0 1
  S       -0.2946600    -0.4360860     0.1655790
  O       -1.5657890     0.5673500    -0.1009940
  O       -0.3508230    -1.5212030    -0.8163730
  O       -0.2159750    -0.7550950     1.5921100
  C        2.3621670     0.3010360     0.2220870
  C        0.9741440     0.7483390    -0.2426020
  C        2.8380310    -0.9649040    -0.4891310
  C        3.3410260     1.4538450    -0.0023010
  C       -2.8589370    -0.1133030    -0.1019100
  C       -3.9021700     0.9699320    -0.2416680
  H        2.2983390     0.1006560     1.2981690
  H        0.9320730     0.8904060    -1.3271310
  H        0.6744950     1.6778970     0.2503870
  H        2.8691440    -0.8060450    -1.5725570
  H        2.1878640    -1.8202610    -0.2948070
  H        3.8478330    -1.2217420    -0.1555610
  H        3.4181100     1.6939920    -1.0681710
  H        3.0282660     2.3570280     0.5308300
  H        4.3384750     1.1791220     0.3530350
  H       -2.8783840    -0.8196920    -0.9355340
  H       -2.9674710    -0.6619300     0.8385710
  H       -3.8465560     1.6647390     0.5984370
  H       -3.7398351     1.5758396    -1.2551468
  H       -4.8990420     0.5201230    -0.2596090
units angstrom
no_reorient  #important for SAPT in psi4, default
symmetry c1  #important for SAPT in psi4, default
}

set PROPERTIES_ORIGIN ["COM"]
properties('MP2/aug-cc-pvtz', properties = ['dipole'])
--------------------------------------------------------------------------

    Molecular point group: c1
  Charge       = 0
  Multiplicity = 1
  Basis Set: AUG-CC-PVTZ
    Blend: AUG-CC-PVTZ
  Basis Set: (AUG-CC-PVTZ AUX)
    Blend: AUG-CC-PVTZ-JKFIT

    Orbital Energies [Eh]
    ---------------------

    Doubly Occupied:

       1A    -92.213984     2A    -20.615178     3A    -20.553844
       4A    -20.553721     5A    -11.303166     6A    -11.278204
       7A    -11.251556     8A    -11.244786     9A    -11.229566
      10A    -11.218673    11A     -9.178239    12A     -6.863694
      13A     -6.862249    14A     -6.862075    15A     -1.481248
      16A     -1.375309    17A     -1.337601    18A     -1.120996
      19A     -1.049449    20A     -0.995589    21A     -0.942392
      22A     -0.873181    23A     -0.829489    24A     -0.788113
      25A     -0.725481    26A     -0.692503    27A     -0.690477
      28A     -0.655648    29A     -0.634939    30A     -0.616180
      31A     -0.605268    32A     -0.586911    33A     -0.566692
      34A     -0.555385    35A     -0.554792    36A     -0.543493
      37A     -0.530299    38A     -0.509951    39A     -0.500301
      40A     -0.494662    41A     -0.489865    42A     -0.485323
      43A     -0.482441    44A     -0.463429    45A     -0.453780

  @DF-RHF Final Energy:  -857.62005785508995

   => Energetics <=

    Nuclear Repulsion Energy =            722.1787387078848042
    One-Electron Energy =               -2611.8773507698811045
    Two-Electron Energy =                1032.0785542069063467
    Total Energy =                       -857.6200578550899536
  Basis Set: (AUG-CC-PVTZ AUX)
    Blend: AUG-CC-PVTZ-RI
    Molecular point group: c1

    Geometry (in Angstrom), charge = 0, multiplicity = 1:

       Center              X                  Y                   Z               Mass
    ------------   -----------------  -----------------  -----------------  -----------------
         S           -0.263492888083    -0.399004175093     0.148733298095    31.972071174400
         O           -1.534621888083     0.604431824907    -0.117839701905    15.994914619570
         O           -0.319655888083    -1.484121175093    -0.833218701905    15.994914619570
         O           -0.184807888083    -0.718013175093     1.575264298095    15.994914619570
         C            2.393334111917     0.338117824907     0.205241298095    12.000000000000
         C            1.005311111917     0.785420824907    -0.259447701905    12.000000000000
         C            2.869198111917    -0.927822175093    -0.505976701905    12.000000000000
         C            3.372193111917     1.490926824907    -0.019146701905    12.000000000000
         C           -2.827769888083    -0.076221175093    -0.118755701905    12.000000000000
         C           -3.871002888083     1.007013824907    -0.258513701905    12.000000000000
         H            2.329506111917     0.137737824907     1.281323298095     1.007825032230
         H            0.963240111917     0.927487824907    -1.343976701905     1.007825032230
         H            0.705662111917     1.714978824907     0.233541298095     1.007825032230
         H            2.900311111917    -0.768963175093    -1.589402701905     1.007825032230
         H            2.219031111917    -1.783179175093    -0.311652701905     1.007825032230
         H            3.879000111917    -1.184660175093    -0.172406701905     1.007825032230
         H            3.449277111917     1.731073824907    -1.085016701905     1.007825032230
         H            3.059433111917     2.394109824907     0.513984298095     1.007825032230
         H            4.369642111917     1.216203824907     0.336189298095     1.007825032230
         H           -2.847216888083    -0.782610175093    -0.952379701905     1.007825032230
         H           -2.936303888083    -0.624848175093     0.821725298095     1.007825032230
         H           -3.815388888083     1.701820824907     0.581591298095     1.007825032230
         H           -3.708667988083     1.612921424907    -1.271992501905     1.007825032230
         H           -4.867874888083     0.557204824907    -0.276454701905     1.007825032230

  Basis Set: AUG-CC-PVTZ
    Blend: AUG-CC-PVTZ
  Basis Set: (AUG-CC-PVTZ AUX)
    Blend: AUG-CC-PVTZ-JKFIT
	 Reference Energy          =    -857.6200578550899536 [Eh]
	 Singles Energy            =      -0.0000000000000000 [Eh]
	 Same-Spin Energy          =      -0.5252491400102716 [Eh]
	 Opposite-Spin Energy      =      -1.6814578476960693 [Eh]
	 Correlation Energy        =      -2.2067069877063408 [Eh]
	 Total Energy              =    -859.8267648427962513 [Eh]

	 ================> DF-SCS-MP2 Energies <==================
	-----------------------------------------------------------
	 SCS Same-Spin Scale       =       0.3333333333333333 [-]
	 SCS Opposite-Spin Scale   =       1.2000000000000000 [-]
	 SCS Same-Spin Energy      =      -0.1750830466700905 [Eh]
	 SCS Opposite-Spin Energy  =      -2.0177494172352830 [Eh]
	 SCS Correlation Energy    =      -2.1928324639053733 [Eh]
	 SCS Total Energy          =    -859.8128903189953007 [Eh]
	-----------------------------------------------------------

  Dipole Moment: [D]
     X:    -0.0553      Y:     2.6769      Z:    -1.0038     Total:     2.8594

*** Psi4 exiting successfully. Buy a developer a beer!
