                               Psi4 1.4a3.dev225

  ==> Input File <==

--------------------------------------------------------------------------
#psi4
#
memory 32 gb

molecule  {
0 1
  S       -0.2946600    -0.4360860     0.1655790
  O       -1.5657890     0.5673500    -0.1009940
  O       -0.3508230    -1.5212030    -0.8163730
  O       -0.2159750    -0.7550950     1.5921100
  C        2.3621670     0.3010360     0.2220870
  C        0.9741440     0.7483390    -0.2426020
  C        2.8380310    -0.9649040    -0.4891310
  C        3.3410260     1.4538450    -0.0023010
  C       -2.9031822    -0.1365916    -0.1019413
  C       -3.9021700     0.9699320    -0.2416680
  H        2.2983390     0.1006560     1.2981690
  H        0.9320730     0.8904060    -1.3271310
  H        0.6744950     1.6778970     0.2503870
  H        2.8691440    -0.8060450    -1.5725570
  H        2.1878640    -1.8202610    -0.2948070
  H        3.8478330    -1.2217420    -0.1555610
  H        3.4181100     1.6939920    -1.0681710
  H        3.0282660     2.3570280     0.5308300
  H        4.3384750     1.1791220     0.3530350
  H       -2.8783840    -0.8196920    -0.9355340
  H       -2.9674710    -0.6619300     0.8385710
  H       -3.8465560     1.6647390     0.5984370
  H       -3.7534550     1.5250040    -1.1701160
  H       -4.8990420     0.5201230    -0.2596090
units angstrom
no_reorient  #important for SAPT in psi4, default
symmetry c1  #important for SAPT in psi4, default
}

set PROPERTIES_ORIGIN ["COM"]
properties('MP2/aug-cc-pvtz', properties = ['dipole'])
--------------------------------------------------------------------------

    Molecular point group: c1
  Charge       = 0
  Multiplicity = 1
  Basis Set: AUG-CC-PVTZ
    Blend: AUG-CC-PVTZ
  Basis Set: (AUG-CC-PVTZ AUX)
    Blend: AUG-CC-PVTZ-JKFIT

    Orbital Energies [Eh]
    ---------------------

    Doubly Occupied:

       1A    -92.210664     2A    -20.609309     3A    -20.551172
       4A    -20.550931     5A    -11.304676     6A    -11.275859
       7A    -11.249887     8A    -11.235227     9A    -11.228320
      10A    -11.217394    11A     -9.174850    12A     -6.860264
      13A     -6.858906    14A     -6.858740    15A     -1.474727
      16A     -1.363234    17A     -1.335053    18A     -1.119045
      19A     -1.055463    20A     -0.996011    21A     -0.941103
      22A     -0.875522    23A     -0.831413    24A     -0.785752
      25A     -0.718861    26A     -0.690905    27A     -0.687839
      28A     -0.656838    29A     -0.634638    30A     -0.613886
      31A     -0.601953    32A     -0.585295    33A     -0.566178
      34A     -0.557352    35A     -0.551854    36A     -0.544228
      37A     -0.541319    38A     -0.509292    39A     -0.503735
      40A     -0.498358    41A     -0.488912    42A     -0.483996
      43A     -0.481220    44A     -0.461695    45A     -0.450965

  @DF-RHF Final Energy:  -857.62407031937312

   => Energetics <=

    Nuclear Repulsion Energy =            721.5785439830649466
    One-Electron Energy =               -2610.8195415324421447
    Two-Electron Energy =                1031.6169272300041939
    Total Energy =                       -857.6240703193730042
  Basis Set: (AUG-CC-PVTZ AUX)
    Blend: AUG-CC-PVTZ-RI
    Molecular point group: c1

    Geometry (in Angstrom), charge = 0, multiplicity = 1:

       Center              X                  Y                   Z               Mass
    ------------   -----------------  -----------------  -----------------  -----------------
         S           -0.260213061524    -0.397012823086     0.148219524168    31.972071174400
         O           -1.531342061524     0.606423176914    -0.118353475832    15.994914619570
         O           -0.316376061524    -1.482129823086    -0.833732475832    15.994914619570
         O           -0.181528061524    -0.716021823086     1.574750524168    15.994914619570
         C            2.396613938476     0.340109176914     0.204727524168    12.000000000000
         C            1.008590938476     0.787412176914    -0.259961475832    12.000000000000
         C            2.872477938476    -0.925830823086    -0.506490475832    12.000000000000
         C            3.375472938476     1.492918176914    -0.019660475832    12.000000000000
         C           -2.868735261524    -0.097518423086    -0.119300775832    12.000000000000
         C           -3.867723061524     1.009005176914    -0.259027475832    12.000000000000
         H            2.332785938476     0.139729176914     1.280809524168     1.007825032230
         H            0.966519938476     0.929479176914    -1.344490475832     1.007825032230
         H            0.708941938476     1.716970176914     0.233027524168     1.007825032230
         H            2.903590938476    -0.766971823086    -1.589916475832     1.007825032230
         H            2.222310938476    -1.781187823086    -0.312166475832     1.007825032230
         H            3.882279938476    -1.182668823086    -0.172920475832     1.007825032230
         H            3.452556938476     1.733065176914    -1.085530475832     1.007825032230
         H            3.062712938476     2.396101176914     0.513470524168     1.007825032230
         H            4.372921938476     1.218195176914     0.335675524168     1.007825032230
         H           -2.843937061524    -0.780618823086    -0.952893475832     1.007825032230
         H           -2.933024061524    -0.622856823086     0.821211524168     1.007825032230
         H           -3.812109061524     1.703812176914     0.581077524168     1.007825032230
         H           -3.719008061524     1.564077176914    -1.187475475832     1.007825032230
         H           -4.864595061524     0.559196176914    -0.276968475832     1.007825032230

  Basis Set: AUG-CC-PVTZ
    Blend: AUG-CC-PVTZ
  Basis Set: (AUG-CC-PVTZ AUX)
    Blend: AUG-CC-PVTZ-JKFIT
	 Reference Energy          =    -857.6240703193731179 [Eh]
	 Singles Energy            =      -0.0000000000000000 [Eh]
	 Same-Spin Energy          =      -0.5253797938819031 [Eh]
	 Opposite-Spin Energy      =      -1.6812874481620961 [Eh]
	 Correlation Energy        =      -2.2066672420439994 [Eh]
	 Total Energy              =    -859.8307375614170951 [Eh]

	 ================> DF-SCS-MP2 Energies <==================
	-----------------------------------------------------------
	 SCS Same-Spin Scale       =       0.3333333333333333 [-]
	 SCS Opposite-Spin Scale   =       1.2000000000000000 [-]
	 SCS Same-Spin Energy      =      -0.1751265979606344 [Eh]
	 SCS Opposite-Spin Energy  =      -2.0175449377945154 [Eh]
	 SCS Correlation Energy    =      -2.1926715357551498 [Eh]
	 SCS Total Energy          =    -859.8167418551282708 [Eh]
	-----------------------------------------------------------

  Dipole Moment: [D]
     X:    -0.3329      Y:     2.6936      Z:    -1.0575     Total:     2.9128

*** Psi4 exiting successfully. Buy a developer a beer!
