                               Psi4 1.4a3.dev225

  ==> Input File <==

--------------------------------------------------------------------------
#psi4
#
memory 32 gb

molecule  {
0 1
  S       -0.2946600    -0.4360860     0.1655790
  O       -1.5657890     0.5673500    -0.1009940
  O       -0.3508230    -1.5212030    -0.8163730
  O       -0.2159750    -0.7550950     1.5921100
  C        2.3621670     0.3010360     0.2220870
  C        0.9741440     0.7483390    -0.2426020
  C        2.8380310    -0.9649040    -0.4891310
  C        3.3410260     1.4538450    -0.0023010
  C       -2.8589370    -0.1133030    -0.1019100
  C       -3.9021700     0.9699320    -0.2416680
  H        2.2983390     0.1006560     1.2981690
  H        0.9320730     0.8904060    -1.3271310
  H        0.6744950     1.6778970     0.2503870
  H        2.8691440    -0.8060450    -1.5725570
  H        2.1878640    -1.8202610    -0.2948070
  H        3.8478330    -1.2217420    -0.1555610
  H        3.4181100     1.6939920    -1.0681710
  H        3.0282660     2.3570280     0.5308300
  H        4.3384750     1.1791220     0.3530350
  H       -2.8792737    -0.8520110    -0.9736744
  H       -2.9674710    -0.6619300     0.8385710
  H       -3.8465560     1.6647390     0.5984370
  H       -3.7534550     1.5250040    -1.1701160
  H       -4.8990420     0.5201230    -0.2596090
units angstrom
no_reorient  #important for SAPT in psi4, default
symmetry c1  #important for SAPT in psi4, default
}

set PROPERTIES_ORIGIN ["COM"]
properties('MP2/aug-cc-pvtz', properties = ['dipole'])
--------------------------------------------------------------------------

    Molecular point group: c1
  Charge       = 0
  Multiplicity = 1
  Basis Set: AUG-CC-PVTZ
    Blend: AUG-CC-PVTZ
  Basis Set: (AUG-CC-PVTZ AUX)
    Blend: AUG-CC-PVTZ-JKFIT

    Orbital Energies [Eh]
    ---------------------

    Doubly Occupied:

       1A    -92.213958     2A    -20.615551     3A    -20.553681
       4A    -20.553640     5A    -11.307394     6A    -11.278238
       7A    -11.251566     8A    -11.233340     9A    -11.229586
      10A    -11.218657    11A     -9.178206    12A     -6.863666
      13A     -6.862214    14A     -6.862038    15A     -1.481184
      16A     -1.375278    17A     -1.337462    18A     -1.120983
      19A     -1.050129    20A     -0.996670    21A     -0.942393
      22A     -0.875671    23A     -0.827812    24A     -0.788114
      25A     -0.725193    26A     -0.691547    27A     -0.688957
      28A     -0.656096    29A     -0.633941    30A     -0.616245
      31A     -0.606787    32A     -0.586723    33A     -0.567337
      34A     -0.559031    35A     -0.554786    36A     -0.543543
      37A     -0.536732    38A     -0.509868    39A     -0.498971
      40A     -0.494646    41A     -0.490383    42A     -0.485118
      43A     -0.482296    44A     -0.462827    45A     -0.453791

  @DF-RHF Final Energy:  -857.62415413275050

   => Energetics <=

    Nuclear Repulsion Energy =            722.3382373275925374
    One-Electron Energy =               -2612.2002920438408182
    Two-Electron Energy =                1032.2379005834977761
    Total Energy =                       -857.6241541327503910
  Basis Set: (AUG-CC-PVTZ AUX)
    Blend: AUG-CC-PVTZ-RI
    Molecular point group: c1

    Geometry (in Angstrom), charge = 0, multiplicity = 1:

       Center              X                  Y                   Z               Mass
    ------------   -----------------  -----------------  -----------------  -----------------
         S           -0.263404832094    -0.398499525719     0.148448729219    31.972071174400
         O           -1.534533832094     0.604936474281    -0.118124270781    15.994914619570
         O           -0.319567832094    -1.483616525719    -0.833503270781    15.994914619570
         O           -0.184719832094    -0.717508525719     1.574979729219    15.994914619570
         C            2.393422167906     0.338622474281     0.204956729219    12.000000000000
         C            1.005399167906     0.785925474281    -0.259732270781    12.000000000000
         C            2.869286167906    -0.927317525719    -0.506261270781    12.000000000000
         C            3.372281167906     1.491431474281    -0.019431270781    12.000000000000
         C           -2.827681832094    -0.075716525719    -0.119040270781    12.000000000000
         C           -3.870914832094     1.007518474281    -0.258798270781    12.000000000000
         H            2.329594167906     0.138242474281     1.281038729219     1.007825032230
         H            0.963328167906     0.927992474281    -1.344261270781     1.007825032230
         H            0.705750167906     1.715483474281     0.233256729219     1.007825032230
         H            2.900399167906    -0.768458525719    -1.589687270781     1.007825032230
         H            2.219119167906    -1.782674525719    -0.311937270781     1.007825032230
         H            3.879088167906    -1.184155525719    -0.172691270781     1.007825032230
         H            3.449365167906     1.731578474281    -1.085301270781     1.007825032230
         H            3.059521167906     2.394614474281     0.513699729219     1.007825032230
         H            4.369730167906     1.216708474281     0.335904729219     1.007825032230
         H           -2.848018532094    -0.814424525719    -0.990804670781     1.007825032230
         H           -2.936215832094    -0.624343525719     0.821440729219     1.007825032230
         H           -3.815300832094     1.702325474281     0.581306729219     1.007825032230
         H           -3.722199832094     1.562590474281    -1.187246270781     1.007825032230
         H           -4.867786832094     0.557709474281    -0.276739270781     1.007825032230

  Basis Set: AUG-CC-PVTZ
    Blend: AUG-CC-PVTZ
  Basis Set: (AUG-CC-PVTZ AUX)
    Blend: AUG-CC-PVTZ-JKFIT
	 Reference Energy          =    -857.6241541327505047 [Eh]
	 Singles Energy            =      -0.0000000000000000 [Eh]
	 Same-Spin Energy          =      -0.5254098071905338 [Eh]
	 Opposite-Spin Energy      =      -1.6812722411843517 [Eh]
	 Correlation Energy        =      -2.2066820483748852 [Eh]
	 Total Energy              =    -859.8308361811253917 [Eh]

	 ================> DF-SCS-MP2 Energies <==================
	-----------------------------------------------------------
	 SCS Same-Spin Scale       =       0.3333333333333333 [-]
	 SCS Opposite-Spin Scale   =       1.2000000000000000 [-]
	 SCS Same-Spin Energy      =      -0.1751366023968446 [Eh]
	 SCS Opposite-Spin Energy  =      -2.0175266894212220 [Eh]
	 SCS Correlation Energy    =      -2.1926632918180666 [Eh]
	 SCS Total Energy          =    -859.8168174245686259 [Eh]
	-----------------------------------------------------------

  Dipole Moment: [D]
     X:    -0.0507      Y:     2.7224      Z:    -1.0333     Total:     2.9123

*** Psi4 exiting successfully. Buy a developer a beer!
