                               Psi4 1.4a3.dev225

  ==> Input File <==

--------------------------------------------------------------------------
#psi4
#
memory 32 gb

molecule  {
0 1
  S       -0.2946600    -0.4360860     0.1655790
  O       -1.5657890     0.5673500    -0.1009940
  O       -0.3508230    -1.5212030    -0.8163730
  O       -0.2159750    -0.7550950     1.5921100
  C        2.3621670     0.3010360     0.2220870
  C        0.9741440     0.7483390    -0.2426020
  C        2.8380310    -0.9649040    -0.4891310
  C        3.3410260     1.4538450    -0.0023010
  C       -2.8589370    -0.1133030    -0.1019100
  C       -3.9021700     0.9699320    -0.2416680
  H        2.2983390     0.1006560     1.2981690
  H        0.9320730     0.8904060    -1.3271310
  H        0.6744950     1.6778970     0.2503870
  H        2.9439440    -0.8216914    -1.5700050
  H        2.1878640    -1.8202610    -0.2948070
  H        3.8478330    -1.2217420    -0.1555610
  H        3.4181100     1.6939920    -1.0681710
  H        3.0282660     2.3570280     0.5308300
  H        4.3384750     1.1791220     0.3530350
  H       -2.8783840    -0.8196920    -0.9355340
  H       -2.9674710    -0.6619300     0.8385710
  H       -3.8465560     1.6647390     0.5984370
  H       -3.7534550     1.5250040    -1.1701160
  H       -4.8990420     0.5201230    -0.2596090
units angstrom
no_reorient  #important for SAPT in psi4, default
symmetry c1  #important for SAPT in psi4, default
}

set PROPERTIES_ORIGIN ["COM"]
properties('MP2/aug-cc-pvtz', properties = ['dipole'])
--------------------------------------------------------------------------

    Molecular point group: c1
  Charge       = 0
  Multiplicity = 1
  Basis Set: AUG-CC-PVTZ
    Blend: AUG-CC-PVTZ
  Basis Set: (AUG-CC-PVTZ AUX)
    Blend: AUG-CC-PVTZ-JKFIT

    Orbital Energies [Eh]
    ---------------------

    Doubly Occupied:

       1A    -92.213769     2A    -20.614847     3A    -20.553587
       4A    -20.553542     5A    -11.301870     6A    -11.278020
       7A    -11.252039     8A    -11.232997     9A    -11.229639
      10A    -11.218441    11A     -9.178021    12A     -6.863477
      13A     -6.862031    14A     -6.861857    15A     -1.480986
      16A     -1.375035    17A     -1.337372    18A     -1.120776
      19A     -1.051481    20A     -0.996788    21A     -0.942294
      22A     -0.877126    23A     -0.830893    24A     -0.788568
      25A     -0.725195    26A     -0.692848    27A     -0.690374
      28A     -0.656834    29A     -0.634523    30A     -0.615732
      31A     -0.606533    32A     -0.588116    33A     -0.567150
      34A     -0.559251    35A     -0.555886    36A     -0.540613
      37A     -0.536799    38A     -0.510680    39A     -0.500008
      40A     -0.496063    41A     -0.490272    42A     -0.485316
      43A     -0.483660    44A     -0.463297    45A     -0.453638

  @DF-RHF Final Energy:  -857.62603216142543

   => Energetics <=

    Nuclear Repulsion Energy =            722.4286898492130149
    One-Electron Energy =               -2612.3729558455106599
    Two-Electron Energy =                1032.3182338348722169
    Total Energy =                       -857.6260321614254281
  Basis Set: (AUG-CC-PVTZ AUX)
    Blend: AUG-CC-PVTZ-RI
    Molecular point group: c1

    Geometry (in Angstrom), charge = 0, multiplicity = 1:

       Center              X                  Y                   Z               Mass
    ------------   -----------------  -----------------  -----------------  -----------------
         S           -0.263864178417    -0.398600708542     0.148201774821    31.972071174400
         O           -1.534993178417     0.604835291458    -0.118371225179    15.994914619570
         O           -0.320027178417    -1.483717708542    -0.833750225179    15.994914619570
         O           -0.185179178417    -0.717609708542     1.574732774821    15.994914619570
         C            2.392962821583     0.338521291458     0.204709774821    12.000000000000
         C            1.004939821583     0.785824291458    -0.259979225179    12.000000000000
         C            2.868826821583    -0.927418708542    -0.506508225179    12.000000000000
         C            3.371821821583     1.491330291458    -0.019678225179    12.000000000000
         C           -2.828141178417    -0.075817708542    -0.119287225179    12.000000000000
         C           -3.871374178417     1.007417291458    -0.259045225179    12.000000000000
         H            2.329134821583     0.138141291458     1.280791774821     1.007825032230
         H            0.962868821583     0.927891291458    -1.344508225179     1.007825032230
         H            0.705290821583     1.715382291458     0.233009774821     1.007825032230
         H            2.974739821583    -0.784206108542    -1.587382225179     1.007825032230
         H            2.218659821583    -1.782775708542    -0.312184225179     1.007825032230
         H            3.878628821583    -1.184256708542    -0.172938225179     1.007825032230
         H            3.448905821583     1.731477291458    -1.085548225179     1.007825032230
         H            3.059061821583     2.394513291458     0.513452774821     1.007825032230
         H            4.369270821583     1.216607291458     0.335657774821     1.007825032230
         H           -2.847588178417    -0.782206708542    -0.952911225179     1.007825032230
         H           -2.936675178417    -0.624444708542     0.821193774821     1.007825032230
         H           -3.815760178417     1.702224291458     0.581059774821     1.007825032230
         H           -3.722659178417     1.562489291458    -1.187493225179     1.007825032230
         H           -4.868246178417     0.557608291458    -0.276986225179     1.007825032230

  Basis Set: AUG-CC-PVTZ
    Blend: AUG-CC-PVTZ
  Basis Set: (AUG-CC-PVTZ AUX)
    Blend: AUG-CC-PVTZ-JKFIT
	 Reference Energy          =    -857.6260321614254281 [Eh]
	 Singles Energy            =      -0.0000000000000000 [Eh]
	 Same-Spin Energy          =      -0.5252725522168801 [Eh]
	 Opposite-Spin Energy      =      -1.6807648376332573 [Eh]
	 Correlation Energy        =      -2.2060373898501373 [Eh]
	 Total Energy              =    -859.8320695512755947 [Eh]

	 ================> DF-SCS-MP2 Energies <==================
	-----------------------------------------------------------
	 SCS Same-Spin Scale       =       0.3333333333333333 [-]
	 SCS Opposite-Spin Scale   =       1.2000000000000000 [-]
	 SCS Same-Spin Energy      =      -0.1750908507389600 [Eh]
	 SCS Opposite-Spin Energy  =      -2.0169178051599088 [Eh]
	 SCS Correlation Energy    =      -2.1920086558988690 [Eh]
	 SCS Total Energy          =    -859.8180408173243450 [Eh]
	-----------------------------------------------------------

  Dipole Moment: [D]
     X:    -0.0435      Y:     2.7128      Z:    -1.0538     Total:     2.9106

*** Psi4 exiting successfully. Buy a developer a beer!
