                               Psi4 1.4a3.dev225

  ==> Input File <==

--------------------------------------------------------------------------
#psi4
#
memory 32 gb

molecule  {
0 1
  S       -0.2946600    -0.4360860     0.1655790
  O       -1.5657890     0.5673500    -0.1009940
  O       -0.3508230    -1.5212030    -0.8163730
  O       -0.2159750    -0.7550950     1.5921100
  C        2.3621670     0.3010360     0.2220870
  C        0.9741440     0.7483390    -0.2426020
  C        2.8380310    -0.9649040    -0.4891310
  C        3.3410260     1.4538450    -0.0023010
  C       -2.8589370    -0.1133030    -0.1019100
  C       -3.9021700     0.9699320    -0.2416680
  H        2.2983390     0.1006560     1.2981690
  H        0.9320730     0.8904060    -1.3271310
  H        0.6744950     1.6778970     0.2503870
  H        2.8691440    -0.8060450    -1.5725570
  H        2.1878640    -1.8202610    -0.2948070
  H        3.8478330    -1.2217420    -0.1555610
  H        3.4181100     1.6939920    -1.0681710
  H        3.0282660     2.3570280     0.5308300
  H        4.3384750     1.1791220     0.3530350
  H       -2.8748250    -0.6904158    -0.7829725
  H       -2.9674710    -0.6619300     0.8385710
  H       -3.8465560     1.6647390     0.5984370
  H       -3.7534550     1.5250040    -1.1701160
  H       -4.8990420     0.5201230    -0.2596090
units angstrom
no_reorient  #important for SAPT in psi4, default
symmetry c1  #important for SAPT in psi4, default
}

set PROPERTIES_ORIGIN ["COM"]
properties('MP2/aug-cc-pvtz', properties = ['dipole'])
--------------------------------------------------------------------------

    Molecular point group: c1
  Charge       = 0
  Multiplicity = 1
  Basis Set: AUG-CC-PVTZ
    Blend: AUG-CC-PVTZ
  Basis Set: (AUG-CC-PVTZ AUX)
    Blend: AUG-CC-PVTZ-JKFIT

    Orbital Energies [Eh]
    ---------------------

    Doubly Occupied:

       1A    -92.213538     2A    -20.613168     3A    -20.553836
       4A    -20.553212     5A    -11.279071     6A    -11.277842
       7A    -11.251304     8A    -11.232369     9A    -11.229384
      10A    -11.218518    11A     -9.177784    12A     -6.863227
      13A     -6.861802    14A     -6.861631    15A     -1.480804
      16A     -1.375045    17A     -1.337346    18A     -1.121026
      19A     -1.062135    20A     -0.997529    21A     -0.942222
      22A     -0.890131    23A     -0.844293    24A     -0.787861
      25A     -0.726544    26A     -0.707041    27A     -0.690903
      28A     -0.659218    29A     -0.638421    30A     -0.615940
      31A     -0.606931    32A     -0.586818    33A     -0.567110
      34A     -0.558526    35A     -0.554463    36A     -0.545041
      37A     -0.540923    38A     -0.514059    39A     -0.507491
      40A     -0.497594    41A     -0.490447    42A     -0.485709
      43A     -0.482730    44A     -0.464229    45A     -0.453266

  @DF-RHF Final Energy:  -857.59312139757549

   => Energetics <=

    Nuclear Repulsion Energy =            723.6698397703837600
    One-Electron Energy =               -2614.6889625136982431
    Two-Electron Energy =                1033.4260013457389960
    Total Energy =                       -857.5931213975754872
  Basis Set: (AUG-CC-PVTZ AUX)
    Blend: AUG-CC-PVTZ-RI
    Molecular point group: c1

    Geometry (in Angstrom), charge = 0, multiplicity = 1:

       Center              X                  Y                   Z               Mass
    ------------   -----------------  -----------------  -----------------  -----------------
         S           -0.263431830404    -0.399480216102     0.147291395837    31.972071174400
         O           -1.534560830404     0.603955783898    -0.119281604163    15.994914619570
         O           -0.319594830404    -1.484597216102    -0.834660604163    15.994914619570
         O           -0.184746830404    -0.718489216102     1.573822395837    15.994914619570
         C            2.393395169596     0.337641783898     0.203799395837    12.000000000000
         C            1.005372169596     0.784944783898    -0.260889604163    12.000000000000
         C            2.869259169596    -0.928298216102    -0.507418604163    12.000000000000
         C            3.372254169596     1.490450783898    -0.020588604163    12.000000000000
         C           -2.827708830404    -0.076697216102    -0.120197604163    12.000000000000
         C           -3.870941830404     1.006537783898    -0.259955604163    12.000000000000
         H            2.329567169596     0.137261783898     1.279881395837     1.007825032230
         H            0.963301169596     0.927011783898    -1.345418604163     1.007825032230
         H            0.705723169596     1.714502783898     0.232099395837     1.007825032230
         H            2.900372169596    -0.769439216102    -1.590844604163     1.007825032230
         H            2.219092169596    -1.783655216102    -0.313094604163     1.007825032230
         H            3.879061169596    -1.185136216102    -0.173848604163     1.007825032230
         H            3.449338169596     1.730597783898    -1.086458604163     1.007825032230
         H            3.059494169596     2.393633783898     0.512542395837     1.007825032230
         H            4.369703169596     1.215727783898     0.334747395837     1.007825032230
         H           -2.843596830404    -0.653810016102    -0.801260104163     1.007825032230
         H           -2.936242830404    -0.625324216102     0.820283395837     1.007825032230
         H           -3.815327830404     1.701344783898     0.580149395837     1.007825032230
         H           -3.722226830404     1.561609783898    -1.188403604163     1.007825032230
         H           -4.867813830404     0.556728783898    -0.277896604163     1.007825032230

  Basis Set: AUG-CC-PVTZ
    Blend: AUG-CC-PVTZ
  Basis Set: (AUG-CC-PVTZ AUX)
    Blend: AUG-CC-PVTZ-JKFIT
	 Reference Energy          =    -857.5931213975754872 [Eh]
	 Singles Energy            =      -0.0000000000000000 [Eh]
	 Same-Spin Energy          =      -0.5250241472172796 [Eh]
	 Opposite-Spin Energy      =      -1.6798045348212969 [Eh]
	 Correlation Energy        =      -2.2048286820385767 [Eh]
	 Total Energy              =    -859.7979500796141110 [Eh]

	 ================> DF-SCS-MP2 Energies <==================
	-----------------------------------------------------------
	 SCS Same-Spin Scale       =       0.3333333333333333 [-]
	 SCS Opposite-Spin Scale   =       1.2000000000000000 [-]
	 SCS Same-Spin Energy      =      -0.1750080490724265 [Eh]
	 SCS Opposite-Spin Energy  =      -2.0157654417855562 [Eh]
	 SCS Correlation Energy    =      -2.1907734908579828 [Eh]
	 SCS Total Energy          =    -859.7838948884334513 [Eh]
	-----------------------------------------------------------

  Dipole Moment: [D]
     X:    -0.1095      Y:     2.6826      Z:    -1.0608     Total:     2.8868

*** Psi4 exiting successfully. Buy a developer a beer!
