                               Psi4 1.4a3.dev225

  ==> Input File <==

--------------------------------------------------------------------------
#psi4
#
memory 32 gb

molecule  {
0 1
  S       -0.2946600    -0.4360860     0.1655790
  O       -1.5657890     0.5673500    -0.1009940
  O       -0.3508230    -1.5212030    -0.8163730
  O       -0.2159750    -0.7550950     1.5921100
  C        2.3621670     0.3010360     0.2220870
  C        0.9741440     0.7483390    -0.2426020
  C        2.8380310    -0.9649040    -0.4891310
  C        3.3410260     1.4538450    -0.0023010
  C       -2.8589370    -0.1133030    -0.1019100
  C       -3.9021700     0.9699320    -0.2416680
  H        2.2983390     0.1006560     1.2981690
  H        0.9320730     0.8904060    -1.3271310
  H        0.6744950     1.6778970     0.2503870
  H        2.8691440    -0.8060450    -1.5725570
  H        2.1878640    -1.8202610    -0.2948070
  H        3.8478330    -1.2217420    -0.1555610
  H        3.4145912     1.6830294    -1.0195147
  H        3.0282660     2.3570280     0.5308300
  H        4.3384750     1.1791220     0.3530350
  H       -2.8783840    -0.8196920    -0.9355340
  H       -2.9674710    -0.6619300     0.8385710
  H       -3.8465560     1.6647390     0.5984370
  H       -3.7534550     1.5250040    -1.1701160
  H       -4.8990420     0.5201230    -0.2596090
units angstrom
no_reorient  #important for SAPT in psi4, default
symmetry c1  #important for SAPT in psi4, default
}

set PROPERTIES_ORIGIN ["COM"]
properties('MP2/aug-cc-pvtz', properties = ['dipole'])
--------------------------------------------------------------------------

    Molecular point group: c1
  Charge       = 0
  Multiplicity = 1
  Basis Set: AUG-CC-PVTZ
    Blend: AUG-CC-PVTZ
  Basis Set: (AUG-CC-PVTZ AUX)
    Blend: AUG-CC-PVTZ-JKFIT

    Orbital Energies [Eh]
    ---------------------

    Doubly Occupied:

       1A    -92.213766     2A    -20.614849     3A    -20.553625
       4A    -20.553464     5A    -11.301878     6A    -11.278048
       7A    -11.250902     8A    -11.233010     9A    -11.223237
      10A    -11.218545    11A     -9.178014    12A     -6.863469
      13A     -6.862024    14A     -6.861849    15A     -1.480971
      16A     -1.375024    17A     -1.337350    18A     -1.121289
      19A     -1.051655    20A     -0.997565    21A     -0.944976
      22A     -0.877393    23A     -0.831182    24A     -0.789299
      25A     -0.725194    26A     -0.692814    27A     -0.690722
      28A     -0.656936    29A     -0.635898    30A     -0.616161
      31A     -0.606661    32A     -0.587342    33A     -0.568383
      34A     -0.560853    35A     -0.556399    36A     -0.544921
      37A     -0.537284    38A     -0.509788    39A     -0.499941
      40A     -0.496924    41A     -0.490205    42A     -0.485336
      43A     -0.483748    44A     -0.463270    45A     -0.453429

  @DF-RHF Final Energy:  -857.62548301366246

   => Energetics <=

    Nuclear Repulsion Energy =            722.7984032379501969
    One-Electron Energy =               -2613.0965843331882752
    Two-Electron Energy =                1032.6726980815756178
    Total Energy =                       -857.6254830136624605
  Basis Set: (AUG-CC-PVTZ AUX)
    Blend: AUG-CC-PVTZ-RI
    Molecular point group: c1

    Geometry (in Angstrom), charge = 0, multiplicity = 1:

       Center              X                  Y                   Z               Mass
    ------------   -----------------  -----------------  -----------------  -----------------
         S           -0.263388876589    -0.398629133629     0.147921976636    31.972071174400
         O           -1.534517876589     0.604806866371    -0.118651023364    15.994914619570
         O           -0.319551876589    -1.483746133629    -0.834030023364    15.994914619570
         O           -0.184703876589    -0.717638133629     1.574452976636    15.994914619570
         C            2.393438123411     0.338492866371     0.204429976636    12.000000000000
         C            1.005415123411     0.785795866371    -0.260259023364    12.000000000000
         C            2.869302123411    -0.927447133629    -0.506788023364    12.000000000000
         C            3.372297123411     1.491301866371    -0.019958023364    12.000000000000
         C           -2.827665876589    -0.075846133629    -0.119567023364    12.000000000000
         C           -3.870898876589     1.007388866371    -0.259325023364    12.000000000000
         H            2.329610123411     0.138112866371     1.280511976636     1.007825032230
         H            0.963344123411     0.927862866371    -1.344788023364     1.007825032230
         H            0.705766123411     1.715353866371     0.232729976636     1.007825032230
         H            2.900415123411    -0.768588133629    -1.590214023364     1.007825032230
         H            2.219135123411    -1.782804133629    -0.312464023364     1.007825032230
         H            3.879104123411    -1.184285133629    -0.173218023364     1.007825032230
         H            3.445862323411     1.720486266371    -1.037171723364     1.007825032230
         H            3.059537123411     2.394484866371     0.513172976636     1.007825032230
         H            4.369746123411     1.216578866371     0.335377976636     1.007825032230
         H           -2.847112876589    -0.782235133629    -0.953191023364     1.007825032230
         H           -2.936199876589    -0.624473133629     0.820913976636     1.007825032230
         H           -3.815284876589     1.702195866371     0.580779976636     1.007825032230
         H           -3.722183876589     1.562460866371    -1.187773023364     1.007825032230
         H           -4.867770876589     0.557579866371    -0.277266023364     1.007825032230

  Basis Set: AUG-CC-PVTZ
    Blend: AUG-CC-PVTZ
  Basis Set: (AUG-CC-PVTZ AUX)
    Blend: AUG-CC-PVTZ-JKFIT
	 Reference Energy          =    -857.6254830136624605 [Eh]
	 Singles Energy            =      -0.0000000000000000 [Eh]
	 Same-Spin Energy          =      -0.5253018397938163 [Eh]
	 Opposite-Spin Energy      =      -1.6805433817421063 [Eh]
	 Correlation Energy        =      -2.2058452215359226 [Eh]
	 Total Energy              =    -859.8313282351983844 [Eh]

	 ================> DF-SCS-MP2 Energies <==================
	-----------------------------------------------------------
	 SCS Same-Spin Scale       =       0.3333333333333333 [-]
	 SCS Opposite-Spin Scale   =       1.2000000000000000 [-]
	 SCS Same-Spin Energy      =      -0.1751006132646054 [Eh]
	 SCS Opposite-Spin Energy  =      -2.0166520580905276 [Eh]
	 SCS Correlation Energy    =      -2.1917526713551330 [Eh]
	 SCS Total Energy          =    -859.8172356850176357 [Eh]
	-----------------------------------------------------------

  Dipole Moment: [D]
     X:    -0.0588      Y:     2.7200      Z:    -1.0688     Total:     2.9231

*** Psi4 exiting successfully. Buy a developer a beer!
