                               Psi4 1.4a3.dev225

  ==> Input File <==

--------------------------------------------------------------------------
#psi4
#
memory 32 gb

molecule  {
0 1
  S       -0.2946600    -0.4360860     0.1655790
  O       -1.5657890     0.5673500    -0.1009940
  O       -0.3508230    -1.5212030    -0.8163730
  O       -0.2159750    -0.7550950     1.5921100
  C        2.3621670     0.3010360     0.2220870
  C        0.9741440     0.7483390    -0.2426020
  C        2.8380310    -0.9649040    -0.4891310
  C        3.3410260     1.4538450    -0.0023010
  C       -2.8589370    -0.1133030    -0.1019100
  C       -3.9021700     0.9699320    -0.2416680
  H        2.2983390     0.1006560     1.2981690
  H        0.9320730     0.8904060    -1.3271310
  H        0.6744950     1.6778970     0.2503870
  H        2.8691440    -0.8060450    -1.5725570
  H        2.1878640    -1.8202610    -0.2948070
  H        3.8478330    -1.2217420    -0.1555610
  H        3.4181100     1.6939920    -1.0681710
  H        3.0282660     2.3570280     0.5308300
  H        4.5208389     1.1288943     0.4180012
  H       -2.8783840    -0.8196920    -0.9355340
  H       -2.9674710    -0.6619300     0.8385710
  H       -3.8465560     1.6647390     0.5984370
  H       -3.7534550     1.5250040    -1.1701160
  H       -4.8990420     0.5201230    -0.2596090
units angstrom
no_reorient  #important for SAPT in psi4, default
symmetry c1  #important for SAPT in psi4, default
}

set PROPERTIES_ORIGIN ["COM"]
properties('MP2/aug-cc-pvtz', properties = ['dipole'])
--------------------------------------------------------------------------

    Molecular point group: c1
  Charge       = 0
  Multiplicity = 1
  Basis Set: AUG-CC-PVTZ
    Blend: AUG-CC-PVTZ
  Basis Set: (AUG-CC-PVTZ AUX)
    Blend: AUG-CC-PVTZ-JKFIT

    Orbital Energies [Eh]
    ---------------------

    Doubly Occupied:

       1A    -92.215280     2A    -20.615969     3A    -20.554749
       4A    -20.554601     5A    -11.302681     6A    -11.280203
       7A    -11.253775     8A    -11.252290     9A    -11.233638
      10A    -11.218664    11A     -9.179476    12A     -6.864932
      13A     -6.863507    14A     -6.863311    15A     -1.482116
      16A     -1.376101    17A     -1.338450    18A     -1.121524
      19A     -1.051862    20A     -0.995085    21A     -0.936158
      22A     -0.876013    23A     -0.829941    24A     -0.787349
      25A     -0.725487    26A     -0.693833    27A     -0.690536
      28A     -0.658064    29A     -0.635755    30A     -0.616354
      31A     -0.604962    32A     -0.584044    33A     -0.567382
      34A     -0.559500    35A     -0.555974    36A     -0.539811
      37A     -0.521599    38A     -0.511301    39A     -0.500939
      40A     -0.497267    41A     -0.486572    42A     -0.485768
      43A     -0.480655    44A     -0.464140    45A     -0.452740

  @DF-RHF Final Energy:  -857.60641312982466

   => Energetics <=

    Nuclear Repulsion Energy =            721.7245586334879590
    One-Electron Energy =               -2610.9012313984358116
    Two-Electron Energy =                1031.5702596351231932
    Total Energy =                       -857.6064131298246593
  Basis Set: (AUG-CC-PVTZ AUX)
    Blend: AUG-CC-PVTZ-RI
    Molecular point group: c1

    Geometry (in Angstrom), charge = 0, multiplicity = 1:

       Center              X                  Y                   Z               Mass
    ------------   -----------------  -----------------  -----------------  -----------------
         S           -0.264516963168    -0.398390841241     0.147822994970    31.972071174400
         O           -1.535645963168     0.605045158759    -0.118750005030    15.994914619570
         O           -0.320679963168    -1.483507841241    -0.834129005030    15.994914619570
         O           -0.185831963168    -0.717399841241     1.574353994970    15.994914619570
         C            2.392310036832     0.338731158759     0.204330994970    12.000000000000
         C            1.004287036832     0.786034158759    -0.260358005030    12.000000000000
         C            2.868174036832    -0.927208841241    -0.506887005030    12.000000000000
         C            3.371169036832     1.491540158759    -0.020057005030    12.000000000000
         C           -2.828793963168    -0.075607841241    -0.119666005030    12.000000000000
         C           -3.872026963168     1.007627158759    -0.259424005030    12.000000000000
         H            2.328482036832     0.138351158759     1.280412994970     1.007825032230
         H            0.962216036832     0.928101158759    -1.344887005030     1.007825032230
         H            0.704638036832     1.715592158759     0.232630994970     1.007825032230
         H            2.899287036832    -0.768349841241    -1.590313005030     1.007825032230
         H            2.218007036832    -1.782565841241    -0.312563005030     1.007825032230
         H            3.877976036832    -1.184046841241    -0.173317005030     1.007825032230
         H            3.448253036832     1.731687158759    -1.085927005030     1.007825032230
         H            3.058409036832     2.394723158759     0.513073994970     1.007825032230
         H            4.550981936832     1.166589458759     0.400245194970     1.007825032230
         H           -2.848240963168    -0.781996841241    -0.953290005030     1.007825032230
         H           -2.937327963168    -0.624234841241     0.820814994970     1.007825032230
         H           -3.816412963168     1.702434158759     0.580680994970     1.007825032230
         H           -3.723311963168     1.562699158759    -1.187872005030     1.007825032230
         H           -4.868898963168     0.557818158759    -0.277365005030     1.007825032230

  Basis Set: AUG-CC-PVTZ
    Blend: AUG-CC-PVTZ
  Basis Set: (AUG-CC-PVTZ AUX)
    Blend: AUG-CC-PVTZ-JKFIT
	 Reference Energy          =    -857.6064131298246593 [Eh]
	 Singles Energy            =      -0.0000000000000000 [Eh]
	 Same-Spin Energy          =      -0.5253205470498374 [Eh]
	 Opposite-Spin Energy      =      -1.6824453793329273 [Eh]
	 Correlation Energy        =      -2.2077659263827645 [Eh]
	 Total Energy              =    -859.8141790562074220 [Eh]

	 ================> DF-SCS-MP2 Energies <==================
	-----------------------------------------------------------
	 SCS Same-Spin Scale       =       0.3333333333333333 [-]
	 SCS Opposite-Spin Scale   =       1.2000000000000000 [-]
	 SCS Same-Spin Energy      =      -0.1751068490166125 [Eh]
	 SCS Opposite-Spin Energy  =      -2.0189344551995125 [Eh]
	 SCS Correlation Energy    =      -2.1940413042161251 [Eh]
	 SCS Total Energy          =    -859.8004544340408302 [Eh]
	-----------------------------------------------------------

  Dipole Moment: [D]
     X:    -0.2426      Y:     2.6987      Z:    -1.0779     Total:     2.9161

*** Psi4 exiting successfully. Buy a developer a beer!
