                               Psi4 1.4a3.dev225

  ==> Input File <==

--------------------------------------------------------------------------
#psi4
#
memory 32 gb

molecule  {
0 1
  S       -0.2946600    -0.4360860     0.1655790
  O       -1.5657890     0.5673500    -0.1009940
  O       -0.3508230    -1.5212030    -0.8163730
  O       -0.2159750    -0.7550950     1.5921100
  C        2.3643259     0.3439318     0.2538583
  C        0.9741440     0.7483390    -0.2426020
  C        2.8380310    -0.9649040    -0.4891310
  C        3.3410260     1.4538450    -0.0023010
  C       -2.8589370    -0.1133030    -0.1019100
  C       -3.9021700     0.9699320    -0.2416680
  H        2.2983390     0.1006560     1.2981690
  H        0.9320730     0.8904060    -1.3271310
  H        0.6744950     1.6778970     0.2503870
  H        2.8691440    -0.8060450    -1.5725570
  H        2.1878640    -1.8202610    -0.2948070
  H        3.8478330    -1.2217420    -0.1555610
  H        3.4181100     1.6939920    -1.0681710
  H        3.0282660     2.3570280     0.5308300
  H        4.3384750     1.1791220     0.3530350
  H       -2.8783840    -0.8196920    -0.9355340
  H       -2.9674710    -0.6619300     0.8385710
  H       -3.8465560     1.6647390     0.5984370
  H       -3.7534550     1.5250040    -1.1701160
  H       -4.8990420     0.5201230    -0.2596090
units angstrom
no_reorient  #important for SAPT in psi4, default
symmetry c1  #important for SAPT in psi4, default
}

set PROPERTIES_ORIGIN ["COM"]
properties('MP2/aug-cc-pvtz', properties = ['dipole'])
--------------------------------------------------------------------------

    Molecular point group: c1
  Charge       = 0
  Multiplicity = 1
  Basis Set: AUG-CC-PVTZ
    Blend: AUG-CC-PVTZ
  Basis Set: (AUG-CC-PVTZ AUX)
    Blend: AUG-CC-PVTZ-JKFIT

    Orbital Energies [Eh]
    ---------------------

    Doubly Occupied:

       1A    -92.214479     2A    -20.615244     3A    -20.553772
       4A    -20.553722     5A    -11.302095     6A    -11.277820
       7A    -11.250720     8A    -11.233151     9A    -11.228709
      10A    -11.219536    11A     -9.178633    12A     -6.864084
      13A     -6.862671    14A     -6.862481    15A     -1.481240
      16A     -1.375293    17A     -1.337571    18A     -1.120210
      19A     -1.051607    20A     -0.996777    21A     -0.938942
      22A     -0.877328    23A     -0.831491    24A     -0.791142
      25A     -0.725398    26A     -0.693105    27A     -0.690986
      28A     -0.655879    29A     -0.634592    30A     -0.614597
      31A     -0.607393    32A     -0.586793    33A     -0.568475
      34A     -0.560069    35A     -0.555002    36A     -0.542491
      37A     -0.537874    38A     -0.512926    39A     -0.500242
      40A     -0.498146    41A     -0.490858    42A     -0.486152
      43A     -0.473417    44A     -0.463175    45A     -0.455633

  @DF-RHF Final Energy:  -857.62411698420181

   => Energetics <=

    Nuclear Repulsion Energy =            722.2610335403588806
    One-Electron Energy =               -2612.0264617880761762
    Two-Electron Energy =                1032.1413112635157177
    Total Energy =                       -857.6241169842016916
  Basis Set: (AUG-CC-PVTZ AUX)
    Blend: AUG-CC-PVTZ-RI
    Molecular point group: c1

    Geometry (in Angstrom), charge = 0, multiplicity = 1:

       Center              X                  Y                   Z               Mass
    ------------   -----------------  -----------------  -----------------  -----------------
         S           -0.263566234205    -0.401795325537     0.145921459783    31.972071174400
         O           -1.534695234205     0.601640674463    -0.120651540217    15.994914619570
         O           -0.319729234205    -1.486912325537    -0.836030540217    15.994914619570
         O           -0.184881234205    -0.720804325537     1.572452459783    15.994914619570
         C            2.395419665795     0.378222474463     0.234200759783    12.000000000000
         C            1.005237765795     0.782629674463    -0.262259540217    12.000000000000
         C            2.869124765795    -0.930613325537    -0.508788540217    12.000000000000
         C            3.372119765795     1.488135674463    -0.021958540217    12.000000000000
         C           -2.827843234205    -0.079012325537    -0.121567540217    12.000000000000
         C           -3.871076234205     1.004222674463    -0.261325540217    12.000000000000
         H            2.329432765795     0.134946674463     1.278511459783     1.007825032230
         H            0.963166765795     0.924696674463    -1.346788540217     1.007825032230
         H            0.705588765795     1.712187674463     0.230729459783     1.007825032230
         H            2.900237765795    -0.771754325537    -1.592214540217     1.007825032230
         H            2.218957765795    -1.785970325537    -0.314464540217     1.007825032230
         H            3.878926765795    -1.187451325537    -0.175218540217     1.007825032230
         H            3.449203765795     1.728282674463    -1.087828540217     1.007825032230
         H            3.059359765795     2.391318674463     0.511172459783     1.007825032230
         H            4.369568765795     1.213412674463     0.333377459783     1.007825032230
         H           -2.847290234205    -0.785401325537    -0.955191540217     1.007825032230
         H           -2.936377234205    -0.627639325537     0.818913459783     1.007825032230
         H           -3.815462234205     1.699029674463     0.578779459783     1.007825032230
         H           -3.722361234205     1.559294674463    -1.189773540217     1.007825032230
         H           -4.867948234205     0.554413674463    -0.279266540217     1.007825032230

  Basis Set: AUG-CC-PVTZ
    Blend: AUG-CC-PVTZ
  Basis Set: (AUG-CC-PVTZ AUX)
    Blend: AUG-CC-PVTZ-JKFIT
	 Reference Energy          =    -857.6241169842018053 [Eh]
	 Singles Energy            =      -0.0000000000000000 [Eh]
	 Same-Spin Energy          =      -0.5251916258165674 [Eh]
	 Opposite-Spin Energy      =      -1.6807905053818692 [Eh]
	 Correlation Energy        =      -2.2059821311984367 [Eh]
	 Total Energy              =    -859.8300991154002304 [Eh]

	 ================> DF-SCS-MP2 Energies <==================
	-----------------------------------------------------------
	 SCS Same-Spin Scale       =       0.3333333333333333 [-]
	 SCS Opposite-Spin Scale   =       1.2000000000000000 [-]
	 SCS Same-Spin Energy      =      -0.1750638752721891 [Eh]
	 SCS Opposite-Spin Energy  =      -2.0169486064582429 [Eh]
	 SCS Correlation Energy    =      -2.1920124817304321 [Eh]
	 SCS Total Energy          =    -859.8161294659322493 [Eh]
	-----------------------------------------------------------

  Dipole Moment: [D]
     X:    -0.0812      Y:     2.7361      Z:    -1.0338     Total:     2.9260

*** Psi4 exiting successfully. Buy a developer a beer!
