                               Psi4 1.4a3.dev225

  ==> Input File <==

--------------------------------------------------------------------------
#psi4
#
memory 32 gb

molecule  {
0 1
  S       -0.2946600    -0.4360860     0.1655790
  O       -1.5657890     0.5673500    -0.1009940
  O       -0.3508230    -1.5212030    -0.8163730
  O       -0.2159750    -0.7550950     1.5921100
  C        2.3621670     0.3010360     0.2220870
  C        0.9741440     0.7483390    -0.2426020
  C        2.8380310    -0.9649040    -0.4891310
  C        3.3410260     1.4538450    -0.0023010
  C       -2.6819561    -0.0201485    -0.1017846
  C       -3.9021700     0.9699320    -0.2416680
  H        2.2983390     0.1006560     1.2981690
  H        0.9320730     0.8904060    -1.3271310
  H        0.6744950     1.6778970     0.2503870
  H        2.8691440    -0.8060450    -1.5725570
  H        2.1878640    -1.8202610    -0.2948070
  H        3.8478330    -1.2217420    -0.1555610
  H        3.4181100     1.6939920    -1.0681710
  H        3.0282660     2.3570280     0.5308300
  H        4.3384750     1.1791220     0.3530350
  H       -2.8783840    -0.8196920    -0.9355340
  H       -2.9674710    -0.6619300     0.8385710
  H       -3.8465560     1.6647390     0.5984370
  H       -3.7534550     1.5250040    -1.1701160
  H       -4.8990420     0.5201230    -0.2596090
units angstrom
no_reorient  #important for SAPT in psi4, default
symmetry c1  #important for SAPT in psi4, default
}

set PROPERTIES_ORIGIN ["COM"]
properties('MP2/aug-cc-pvtz', properties = ['dipole'])
--------------------------------------------------------------------------

    Molecular point group: c1
  Charge       = 0
  Multiplicity = 1
  Basis Set: AUG-CC-PVTZ
    Blend: AUG-CC-PVTZ
  Basis Set: (AUG-CC-PVTZ AUX)
    Blend: AUG-CC-PVTZ-JKFIT

    Orbital Energies [Eh]
    ---------------------

    Doubly Occupied:

       1A    -92.226118     2A    -20.633554     3A    -20.564438
       4A    -20.564175     5A    -11.300686     6A    -11.286924
       7A    -11.257647     8A    -11.234208     9A    -11.227010
      10A    -11.223375    11A     -9.190772    12A     -6.876409
      13A     -6.874530    14A     -6.874348    15A     -1.526919
      16A     -1.424342    17A     -1.347042    18A     -1.128775
      19A     -1.047625    20A     -0.992314    21A     -0.947166
      22A     -0.898081    23A     -0.823839    24A     -0.797833
      25A     -0.751173    26A     -0.715684    27A     -0.702152
      28A     -0.663662    29A     -0.646236    30A     -0.635617
      31A     -0.619577    32A     -0.592682    33A     -0.571628
      34A     -0.561908    35A     -0.559503    36A     -0.548365
      37A     -0.529877    38A     -0.517123    39A     -0.499983
      40A     -0.496643    41A     -0.489892    42A     -0.481453
      43A     -0.471384    44A     -0.456086    45A     -0.435923

  @DF-RHF Final Energy:  -857.58757109743715

   => Energetics <=

    Nuclear Repulsion Energy =            726.9443116161121452
    One-Electron Energy =               -2620.6343989002280068
    Two-Electron Energy =                1036.1025161866787130
    Total Energy =                       -857.5875710974371486
  Basis Set: (AUG-CC-PVTZ AUX)
    Blend: AUG-CC-PVTZ-RI
    Molecular point group: c1

    Geometry (in Angstrom), charge = 0, multiplicity = 1:

       Center              X                  Y                   Z               Mass
    ------------   -----------------  -----------------  -----------------  -----------------
         S           -0.276198918698    -0.405427032646     0.148208200984    31.972071174400
         O           -1.547327918698     0.598008967354    -0.118364799016    15.994914619570
         O           -0.332361918698    -1.490544032646    -0.833743799016    15.994914619570
         O           -0.197513918698    -0.724436032646     1.574739200984    15.994914619570
         C            2.380628081302     0.331694967354     0.204716200984    12.000000000000
         C            0.992605081302     0.778997967354    -0.259972799016    12.000000000000
         C            2.856492081302    -0.934245032646    -0.506501799016    12.000000000000
         C            3.359487081302     1.484503967354    -0.019671799016    12.000000000000
         C           -2.663495018698     0.010510467354    -0.119155399016    12.000000000000
         C           -3.883708918698     1.000590967354    -0.259038799016    12.000000000000
         H            2.316800081302     0.131314967354     1.280798200984     1.007825032230
         H            0.950534081302     0.921064967354    -1.344501799016     1.007825032230
         H            0.692956081302     1.708555967354     0.233016200984     1.007825032230
         H            2.887605081302    -0.775386032646    -1.589927799016     1.007825032230
         H            2.206325081302    -1.789602032646    -0.312177799016     1.007825032230
         H            3.866294081302    -1.191083032646    -0.172931799016     1.007825032230
         H            3.436571081302     1.724650967354    -1.085541799016     1.007825032230
         H            3.046727081302     2.387686967354     0.513459200984     1.007825032230
         H            4.356936081302     1.209780967354     0.335664200984     1.007825032230
         H           -2.859922918698    -0.789033032646    -0.952904799016     1.007825032230
         H           -2.949009918698    -0.631271032646     0.821200200984     1.007825032230
         H           -3.828094918698     1.695397967354     0.581066200984     1.007825032230
         H           -3.734993918698     1.555662967354    -1.187486799016     1.007825032230
         H           -4.880580918698     0.550781967354    -0.276979799016     1.007825032230

  Basis Set: AUG-CC-PVTZ
    Blend: AUG-CC-PVTZ
  Basis Set: (AUG-CC-PVTZ AUX)
    Blend: AUG-CC-PVTZ-JKFIT
	 Reference Energy          =    -857.5875710974371486 [Eh]
	 Singles Energy            =      -0.0000000000000000 [Eh]
	 Same-Spin Energy          =      -0.5264763646608217 [Eh]
	 Opposite-Spin Energy      =      -1.6812904513273472 [Eh]
	 Correlation Energy        =      -2.2077668159881689 [Eh]
	 Total Energy              =    -859.7953379134253282 [Eh]

	 ================> DF-SCS-MP2 Energies <==================
	-----------------------------------------------------------
	 SCS Same-Spin Scale       =       0.3333333333333333 [-]
	 SCS Opposite-Spin Scale   =       1.2000000000000000 [-]
	 SCS Same-Spin Energy      =      -0.1754921215536072 [Eh]
	 SCS Opposite-Spin Energy  =      -2.0175485415928165 [Eh]
	 SCS Correlation Energy    =      -2.1930406631464239 [Eh]
	 SCS Total Energy          =    -859.7806117605836107 [Eh]
	-----------------------------------------------------------

  Dipole Moment: [D]
     X:     1.0668      Y:     2.8261      Z:    -0.9897     Total:     3.1787

*** Psi4 exiting successfully. Buy a developer a beer!
