                               Psi4 1.4a3.dev225

  ==> Input File <==

--------------------------------------------------------------------------
#psi4
#
memory 32 gb

molecule  {
0 1
  S       -0.2946600    -0.4360860     0.1655790
  O       -1.5657890     0.5673500    -0.1009940
  O       -0.3508230    -1.5212030    -0.8163730
  O       -0.2159750    -0.7550950     1.5921100
  C        2.3621670     0.3010360     0.2220870
  C        0.9741440     0.7483390    -0.2426020
  C        2.8380310    -0.9649040    -0.4891310
  C        3.3410260     1.4538450    -0.0023010
  C       -2.8589370    -0.1133030    -0.1019100
  C       -3.9021700     0.9699320    -0.2416680
  H        2.2983390     0.1006560     1.2981690
  H        0.9320730     0.8904060    -1.3271310
  H        0.6744950     1.6778970     0.2503870
  H        2.8719842    -0.7915433    -1.6714591
  H        2.1878640    -1.8202610    -0.2948070
  H        3.8478330    -1.2217420    -0.1555610
  H        3.4181100     1.6939920    -1.0681710
  H        3.0282660     2.3570280     0.5308300
  H        4.3384750     1.1791220     0.3530350
  H       -2.8783840    -0.8196920    -0.9355340
  H       -2.9674710    -0.6619300     0.8385710
  H       -3.8465560     1.6647390     0.5984370
  H       -3.7534550     1.5250040    -1.1701160
  H       -4.8990420     0.5201230    -0.2596090
units angstrom
no_reorient  #important for SAPT in psi4, default
symmetry c1  #important for SAPT in psi4, default
}

set PROPERTIES_ORIGIN ["COM"]
properties('MP2/aug-cc-pvtz', properties = ['dipole'])
--------------------------------------------------------------------------

    Molecular point group: c1
  Charge       = 0
  Multiplicity = 1
  Basis Set: AUG-CC-PVTZ
    Blend: AUG-CC-PVTZ
  Basis Set: (AUG-CC-PVTZ AUX)
    Blend: AUG-CC-PVTZ-JKFIT

    Orbital Energies [Eh]
    ---------------------

    Doubly Occupied:

       1A    -92.213985     2A    -20.615016     3A    -20.553797
       4A    -20.553762     5A    -11.301992     6A    -11.278304
       7A    -11.252866     8A    -11.233087     9A    -11.230779
      10A    -11.229722    11A     -9.178236    12A     -6.863691
      13A     -6.862246    14A     -6.862072    15A     -1.481185
      16A     -1.375219    17A     -1.337584    18A     -1.120742
      19A     -1.051455    20A     -0.996152    21A     -0.937917
      22A     -0.876722    23A     -0.830485    24A     -0.785597
      25A     -0.725271    26A     -0.692962    27A     -0.690532
      28A     -0.657076    29A     -0.634963    30A     -0.616773
      31A     -0.606729    32A     -0.584137    33A     -0.567282
      34A     -0.558698    35A     -0.553352    36A     -0.537788
      37A     -0.534717    38A     -0.510539    39A     -0.500144
      40A     -0.496649    41A     -0.491448    42A     -0.485617
      43A     -0.477711    44A     -0.463446    45A     -0.454026

  @DF-RHF Final Energy:  -857.62016777812039

   => Energetics <=

    Nuclear Repulsion Energy =            722.1428491244714678
    One-Electron Energy =               -2611.8010884222053392
    Two-Electron Energy =                1032.0380715196135952
    Total Energy =                       -857.6201677781202761
  Basis Set: (AUG-CC-PVTZ AUX)
    Blend: AUG-CC-PVTZ-RI
    Molecular point group: c1

    Geometry (in Angstrom), charge = 0, multiplicity = 1:

       Center              X                  Y                   Z               Mass
    ------------   -----------------  -----------------  -----------------  -----------------
         S           -0.263427468144    -0.398783671598     0.148817480363    31.972071174400
         O           -1.534556468144     0.604652328402    -0.117755519637    15.994914619570
         O           -0.319590468144    -1.483900671598    -0.833134519637    15.994914619570
         O           -0.184742468144    -0.717792671598     1.575348480363    15.994914619570
         C            2.393399531856     0.338338328402     0.205325480363    12.000000000000
         C            1.005376531856     0.785641328402    -0.259363519637    12.000000000000
         C            2.869263531856    -0.927601671598    -0.505892519637    12.000000000000
         C            3.372258531856     1.491147328402    -0.019062519637    12.000000000000
         C           -2.827704468144    -0.076000671598    -0.118671519637    12.000000000000
         C           -3.870937468144     1.007234328402    -0.258429519637    12.000000000000
         H            2.329571531856     0.137958328402     1.281407480363     1.007825032230
         H            0.963305531856     0.927708328402    -1.343892519637     1.007825032230
         H            0.705727531856     1.715199328402     0.233625480363     1.007825032230
         H            2.903216731856    -0.754240971598    -1.688220619637     1.007825032230
         H            2.219096531856    -1.782958671598    -0.311568519637     1.007825032230
         H            3.879065531856    -1.184439671598    -0.172322519637     1.007825032230
         H            3.449342531856     1.731294328402    -1.084932519637     1.007825032230
         H            3.059498531856     2.394330328402     0.514068480363     1.007825032230
         H            4.369707531856     1.216424328402     0.336273480363     1.007825032230
         H           -2.847151468144    -0.782389671598    -0.952295519637     1.007825032230
         H           -2.936238468144    -0.624627671598     0.821809480363     1.007825032230
         H           -3.815323468144     1.702041328402     0.581675480363     1.007825032230
         H           -3.722222468144     1.562306328402    -1.186877519637     1.007825032230
         H           -4.867809468144     0.557425328402    -0.276370519637     1.007825032230

  Basis Set: AUG-CC-PVTZ
    Blend: AUG-CC-PVTZ
  Basis Set: (AUG-CC-PVTZ AUX)
    Blend: AUG-CC-PVTZ-JKFIT
	 Reference Energy          =    -857.6201677781203898 [Eh]
	 Singles Energy            =      -0.0000000000000000 [Eh]
	 Same-Spin Energy          =      -0.5252910811964466 [Eh]
	 Opposite-Spin Energy      =      -1.6814921906052938 [Eh]
	 Correlation Energy        =      -2.2067832718017404 [Eh]
	 Total Energy              =    -859.8269510499221724 [Eh]

	 ================> DF-SCS-MP2 Energies <==================
	-----------------------------------------------------------
	 SCS Same-Spin Scale       =       0.3333333333333333 [-]
	 SCS Opposite-Spin Scale   =       1.2000000000000000 [-]
	 SCS Same-Spin Energy      =      -0.1750970270654822 [Eh]
	 SCS Opposite-Spin Energy  =      -2.0177906287263525 [Eh]
	 SCS Correlation Energy    =      -2.1928876557918349 [Eh]
	 SCS Total Energy          =    -859.8130554339122682 [Eh]
	-----------------------------------------------------------

  Dipole Moment: [D]
     X:    -0.0767      Y:     2.7100      Z:    -0.9825     Total:     2.8836

*** Psi4 exiting successfully. Buy a developer a beer!
