                               Psi4 1.4a3.dev225

  ==> Input File <==

--------------------------------------------------------------------------
#psi4
#
memory 32 gb

molecule  {
0 1
  S       -0.2946600    -0.4360860     0.1655790
  O       -1.5657890     0.5673500    -0.1009940
  O       -0.3508230    -1.5212030    -0.8163730
  O       -0.2159750    -0.7550950     1.5921100
  C        2.3621670     0.3010360     0.2220870
  C        0.9741440     0.7483390    -0.2426020
  C        2.8380310    -0.9649040    -0.4891310
  C        3.3410260     1.4538450    -0.0023010
  C       -2.8589370    -0.1133030    -0.1019100
  C       -3.9021700     0.9699320    -0.2416680
  H        2.2983390     0.1006560     1.2981690
  H        0.9320730     0.8904060    -1.3271310
  H        0.6744950     1.6778970     0.2503870
  H        2.8691440    -0.8060450    -1.5725570
  H        2.1878640    -1.8202610    -0.2948070
  H        3.8478330    -1.2217420    -0.1555610
  H        3.4216288     1.7049546    -1.1168273
  H        3.0282660     2.3570280     0.5308300
  H        4.3384750     1.1791220     0.3530350
  H       -2.8783840    -0.8196920    -0.9355340
  H       -2.9674710    -0.6619300     0.8385710
  H       -3.8465560     1.6647390     0.5984370
  H       -3.7534550     1.5250040    -1.1701160
  H       -4.8990420     0.5201230    -0.2596090
units angstrom
no_reorient  #important for SAPT in psi4, default
symmetry c1  #important for SAPT in psi4, default
}

set PROPERTIES_ORIGIN ["COM"]
properties('MP2/aug-cc-pvtz', properties = ['dipole'])
--------------------------------------------------------------------------

    Molecular point group: c1
  Charge       = 0
  Multiplicity = 1
  Basis Set: AUG-CC-PVTZ
    Blend: AUG-CC-PVTZ
  Basis Set: (AUG-CC-PVTZ AUX)
    Blend: AUG-CC-PVTZ-JKFIT

    Orbital Energies [Eh]
    ---------------------

    Doubly Occupied:

       1A    -92.213917     2A    -20.614967     3A    -20.553757
       4A    -20.553640     5A    -11.301962     6A    -11.278231
       7A    -11.252155     8A    -11.235674     9A    -11.233065
      10A    -11.218713    11A     -9.178166    12A     -6.863621
      13A     -6.862177    14A     -6.862003    15A     -1.481119
      16A     -1.375157    17A     -1.337514    18A     -1.120740
      19A     -1.051453    20A     -0.996148    21A     -0.940182
      22A     -0.876731    23A     -0.830459    24A     -0.786944
      25A     -0.725256    26A     -0.692940    27A     -0.690674
      28A     -0.656710    29A     -0.634419    30A     -0.616259
      31A     -0.606874    32A     -0.586394    33A     -0.566770
      34A     -0.558304    35A     -0.552284    36A     -0.540684
      37A     -0.537544    38A     -0.510327    39A     -0.500115
      40A     -0.496862    41A     -0.490830    42A     -0.485545
      43A     -0.480984    44A     -0.463407    45A     -0.453922

  @DF-RHF Final Energy:  -857.62449296441048

   => Energetics <=

    Nuclear Repulsion Energy =            722.3649086278037430
    One-Electron Energy =               -2612.2476060358285395
    Two-Electron Energy =                1032.2582044436144315
    Total Energy =                       -857.6244929644103649
  Basis Set: (AUG-CC-PVTZ AUX)
    Blend: AUG-CC-PVTZ-RI
    Molecular point group: c1

    Geometry (in Angstrom), charge = 0, multiplicity = 1:

       Center              X                  Y                   Z               Mass
    ------------   -----------------  -----------------  -----------------  -----------------
         S           -0.263431586438    -0.398762193477     0.148512548206    31.972071174400
         O           -1.534560586438     0.604673806523    -0.118060451794    15.994914619570
         O           -0.319594586438    -1.483879193477    -0.833439451794    15.994914619570
         O           -0.184746586438    -0.717771193477     1.575043548206    15.994914619570
         C            2.393395413562     0.338359806523     0.205020548206    12.000000000000
         C            1.005372413562     0.785662806523    -0.259668451794    12.000000000000
         C            2.869259413562    -0.927580193477    -0.506197451794    12.000000000000
         C            3.372254413562     1.491168806523    -0.019367451794    12.000000000000
         C           -2.827708586438    -0.075979193477    -0.118976451794    12.000000000000
         C           -3.870941586438     1.007255806523    -0.258734451794    12.000000000000
         H            2.329567413562     0.137979806523     1.281102548206     1.007825032230
         H            0.963301413562     0.927729806523    -1.344197451794     1.007825032230
         H            0.705723413562     1.715220806523     0.233320548206     1.007825032230
         H            2.900372413562    -0.768721193477    -1.589623451794     1.007825032230
         H            2.219092413562    -1.782937193477    -0.311873451794     1.007825032230
         H            3.879061413562    -1.184418193477    -0.172627451794     1.007825032230
         H            3.452857213562     1.742278406523    -1.133893751794     1.007825032230
         H            3.059494413562     2.394351806523     0.513763548206     1.007825032230
         H            4.369703413562     1.216445806523     0.335968548206     1.007825032230
         H           -2.847155586438    -0.782368193477    -0.952600451794     1.007825032230
         H           -2.936242586438    -0.624606193477     0.821504548206     1.007825032230
         H           -3.815327586438     1.702062806523     0.581370548206     1.007825032230
         H           -3.722226586438     1.562327806523    -1.187182451794     1.007825032230
         H           -4.867813586438     0.557446806523    -0.276675451794     1.007825032230

  Basis Set: AUG-CC-PVTZ
    Blend: AUG-CC-PVTZ
  Basis Set: (AUG-CC-PVTZ AUX)
    Blend: AUG-CC-PVTZ-JKFIT
	 Reference Energy          =    -857.6244929644104786 [Eh]
	 Singles Energy            =      -0.0000000000000000 [Eh]
	 Same-Spin Energy          =      -0.5252824759401247 [Eh]
	 Opposite-Spin Energy      =      -1.6811138898556979 [Eh]
	 Correlation Energy        =      -2.2063963657958228 [Eh]
	 Total Energy              =    -859.8308893302063325 [Eh]

	 ================> DF-SCS-MP2 Energies <==================
	-----------------------------------------------------------
	 SCS Same-Spin Scale       =       0.3333333333333333 [-]
	 SCS Opposite-Spin Scale   =       1.2000000000000000 [-]
	 SCS Same-Spin Energy      =      -0.1750941586467082 [Eh]
	 SCS Opposite-Spin Energy  =      -2.0173366678268372 [Eh]
	 SCS Correlation Energy    =      -2.1924308264735455 [Eh]
	 SCS Total Energy          =    -859.8169237908840614 [Eh]
	-----------------------------------------------------------

  Dipole Moment: [D]
     X:    -0.0739      Y:     2.6967      Z:    -1.0165     Total:     2.8828

*** Psi4 exiting successfully. Buy a developer a beer!
