                               Psi4 1.4a3.dev225

  ==> Input File <==

--------------------------------------------------------------------------
#psi4
#
memory 32 gb

molecule  {
0 1
  S       -0.2946600    -0.4360860     0.1655790
  O       -1.5657890     0.5673500    -0.1009940
  O       -0.3508230    -1.5212030    -0.8163730
  O       -0.2159750    -0.7550950     1.5921100
  C        2.3621670     0.3010360     0.2220870
  C        0.9741440     0.7483390    -0.2426020
  C        2.8380310    -0.9649040    -0.4891310
  C        3.3410260     1.4538450    -0.0023010
  C       -2.8589370    -0.1133030    -0.1019100
  C       -3.9021700     0.9699320    -0.2416680
  H        2.2983390     0.1006560     1.2981690
  H        0.9320730     0.8904060    -1.3271310
  H        0.6744950     1.6778970     0.2503870
  H        2.8705641    -0.7987942    -1.6220081
  H        2.1878640    -1.8202610    -0.2948070
  H        3.8478330    -1.2217420    -0.1555610
  H        3.4181100     1.6939920    -1.0681710
  H        3.0282660     2.3570280     0.5308300
  H        4.3384750     1.1791220     0.3530350
  H       -2.8783840    -0.8196920    -0.9355340
  H       -2.9674710    -0.6619300     0.8385710
  H       -3.8465560     1.6647390     0.5984370
  H       -3.7534550     1.5250040    -1.1701160
  H       -4.8990420     0.5201230    -0.2596090
units angstrom
no_reorient  #important for SAPT in psi4, default
symmetry c1  #important for SAPT in psi4, default
}

set PROPERTIES_ORIGIN ["COM"]
properties('MP2/aug-cc-pvtz', properties = ['dipole'])
--------------------------------------------------------------------------

    Molecular point group: c1
  Charge       = 0
  Multiplicity = 1
  Basis Set: AUG-CC-PVTZ
    Blend: AUG-CC-PVTZ
  Basis Set: (AUG-CC-PVTZ AUX)
    Blend: AUG-CC-PVTZ-JKFIT

    Orbital Energies [Eh]
    ---------------------

    Doubly Occupied:

       1A    -92.213902     2A    -20.614953     3A    -20.553721
       4A    -20.553658     5A    -11.301950     6A    -11.278206
       7A    -11.252145     8A    -11.233058     9A    -11.229615
      10A    -11.224787    11A     -9.178151    12A     -6.863607
      13A     -6.862162    14A     -6.861988    15A     -1.481105
      16A     -1.375145    17A     -1.337497    18A     -1.120782
      19A     -1.051473    20A     -0.996374    21A     -0.939876
      22A     -0.876855    23A     -0.830604    24A     -0.786712
      25A     -0.725231    26A     -0.692907    27A     -0.690592
      28A     -0.656914    29A     -0.634982    30A     -0.616412
      31A     -0.606710    32A     -0.585210    33A     -0.567237
      34A     -0.558724    35A     -0.553709    36A     -0.539606
      37A     -0.537351    38A     -0.510271    39A     -0.500071
      40A     -0.496762    41A     -0.490926    42A     -0.485500
      43A     -0.480540    44A     -0.463388    45A     -0.453831

  @DF-RHF Final Energy:  -857.62448327671848

   => Energetics <=

    Nuclear Repulsion Energy =            722.3537677935439660
    One-Electron Energy =               -2612.2261000225362295
    Two-Electron Energy =                1032.2478489522738982
    Total Energy =                       -857.6244832767183652
  Basis Set: (AUG-CC-PVTZ AUX)
    Blend: AUG-CC-PVTZ-RI
    Molecular point group: c1

    Geometry (in Angstrom), charge = 0, multiplicity = 1:

       Center              X                  Y                   Z               Mass
    ------------   -----------------  -----------------  -----------------  -----------------
         S           -0.263418849829    -0.398739667272     0.148517371696    31.972071174400
         O           -1.534547849829     0.604696332728    -0.118055628304    15.994914619570
         O           -0.319581849829    -1.483856667272    -0.833434628304    15.994914619570
         O           -0.184733849829    -0.717748667272     1.575048371696    15.994914619570
         C            2.393408150171     0.338382332728     0.205025371696    12.000000000000
         C            1.005385150171     0.785685332728    -0.259663628304    12.000000000000
         C            2.869272150171    -0.927557667272    -0.506192628304    12.000000000000
         C            3.372267150171     1.491191332728    -0.019362628304    12.000000000000
         C           -2.827695849829    -0.075956667272    -0.118971628304    12.000000000000
         C           -3.870928849829     1.007278332728    -0.258729628304    12.000000000000
         H            2.329580150171     0.138002332728     1.281107371696     1.007825032230
         H            0.963314150171     0.927752332728    -1.344192628304     1.007825032230
         H            0.705736150171     1.715243332728     0.233325371696     1.007825032230
         H            2.901805250171    -0.761447867272    -1.639069728304     1.007825032230
         H            2.219105150171    -1.782914667272    -0.311868628304     1.007825032230
         H            3.879074150171    -1.184395667272    -0.172622628304     1.007825032230
         H            3.449351150171     1.731338332728    -1.085232628304     1.007825032230
         H            3.059507150171     2.394374332728     0.513768371696     1.007825032230
         H            4.369716150171     1.216468332728     0.335973371696     1.007825032230
         H           -2.847142849829    -0.782345667272    -0.952595628304     1.007825032230
         H           -2.936229849829    -0.624583667272     0.821509371696     1.007825032230
         H           -3.815314849829     1.702085332728     0.581375371696     1.007825032230
         H           -3.722213849829     1.562350332728    -1.187177628304     1.007825032230
         H           -4.867800849829     0.557469332728    -0.276670628304     1.007825032230

  Basis Set: AUG-CC-PVTZ
    Blend: AUG-CC-PVTZ
  Basis Set: (AUG-CC-PVTZ AUX)
    Blend: AUG-CC-PVTZ-JKFIT
	 Reference Energy          =    -857.6244832767184789 [Eh]
	 Singles Energy            =      -0.0000000000000000 [Eh]
	 Same-Spin Energy          =      -0.5252902955967970 [Eh]
	 Opposite-Spin Energy      =      -1.6811244407612509 [Eh]
	 Correlation Energy        =      -2.2064147363580480 [Eh]
	 Total Energy              =    -859.8308980130765349 [Eh]

	 ================> DF-SCS-MP2 Energies <==================
	-----------------------------------------------------------
	 SCS Same-Spin Scale       =       0.3333333333333333 [-]
	 SCS Opposite-Spin Scale   =       1.2000000000000000 [-]
	 SCS Same-Spin Energy      =      -0.1750967651989323 [Eh]
	 SCS Opposite-Spin Energy  =      -2.0173493289135012 [Eh]
	 SCS Correlation Energy    =      -2.1924460941124333 [Eh]
	 SCS Total Energy          =    -859.8169293708309624 [Eh]
	-----------------------------------------------------------

  Dipole Moment: [D]
     X:    -0.0709      Y:     2.7094      Z:    -1.0150     Total:     2.8942

*** Psi4 exiting successfully. Buy a developer a beer!
