                               Psi4 1.4a3.dev225

  ==> Input File <==

--------------------------------------------------------------------------
#psi4
#
memory 32 gb

molecule  {
0 1
  S       -0.2946600    -0.4360860     0.1655790
  O       -1.5657890     0.5673500    -0.1009940
  O       -0.3508230    -1.5212030    -0.8163730
  O       -0.2159750    -0.7550950     1.5921100
  C        2.3621670     0.3010360     0.2220870
  C        0.9741440     0.7483390    -0.2426020
  C        2.8380310    -0.9649040    -0.4891310
  C        3.3410260     1.4538450    -0.0023010
  C       -2.8589370    -0.1133030    -0.1019100
  C       -3.9021700     0.9699320    -0.2416680
  H        2.2983390     0.1006560     1.2981690
  H        0.9320730     0.8904060    -1.3271310
  H        0.6744950     1.6778970     0.2503870
  H        2.7567740    -0.7840493    -1.5664912
  H        2.1878640    -1.8202610    -0.2948070
  H        3.8478330    -1.2217420    -0.1555610
  H        3.4181100     1.6939920    -1.0681710
  H        3.0282660     2.3570280     0.5308300
  H        4.3384750     1.1791220     0.3530350
  H       -2.8783840    -0.8196920    -0.9355340
  H       -2.9674710    -0.6619300     0.8385710
  H       -3.8465560     1.6647390     0.5984370
  H       -3.7534550     1.5250040    -1.1701160
  H       -4.8990420     0.5201230    -0.2596090
units angstrom
no_reorient  #important for SAPT in psi4, default
symmetry c1  #important for SAPT in psi4, default
}

set PROPERTIES_ORIGIN ["COM"]
properties('MP2/aug-cc-pvtz', properties = ['dipole'])
--------------------------------------------------------------------------

    Molecular point group: c1
  Charge       = 0
  Multiplicity = 1
  Basis Set: AUG-CC-PVTZ
    Blend: AUG-CC-PVTZ
  Basis Set: (AUG-CC-PVTZ AUX)
    Blend: AUG-CC-PVTZ-JKFIT

    Orbital Energies [Eh]
    ---------------------

    Doubly Occupied:

       1A    -92.213968     2A    -20.615010     3A    -20.553883
       4A    -20.553566     5A    -11.302001     6A    -11.278319
       7A    -11.250733     8A    -11.233102     9A    -11.229390
      10A    -11.218913    11A     -9.178210    12A     -6.863665
      13A     -6.862221    14A     -6.862046    15A     -1.481150
      16A     -1.375187    17A     -1.337540    18A     -1.121306
      19A     -1.051626    20A     -0.996712    21A     -0.942674
      22A     -0.876929    23A     -0.830650    24A     -0.787333
      25A     -0.725271    26A     -0.692937    27A     -0.691244
      28A     -0.656925    29A     -0.636115    30A     -0.617224
      31A     -0.607080    32A     -0.584788    33A     -0.567384
      34A     -0.558664    35A     -0.552464    36A     -0.548676
      37A     -0.537529    38A     -0.509300    39A     -0.500050
      40A     -0.498072    41A     -0.491044    42A     -0.485484
      43A     -0.478979    44A     -0.463398    45A     -0.453709

  @DF-RHF Final Energy:  -857.62510764276226

   => Energetics <=

    Nuclear Repulsion Energy =            722.8168279963933855
    One-Electron Energy =               -2613.1389249386775191
    Two-Electron Energy =                1032.6969892995218743
    Total Energy =                       -857.6251076427622593
  Basis Set: (AUG-CC-PVTZ AUX)
    Blend: AUG-CC-PVTZ-RI
    Molecular point group: c1

    Geometry (in Angstrom), charge = 0, multiplicity = 1:

       Center              X                  Y                   Z               Mass
    ------------   -----------------  -----------------  -----------------  -----------------
         S           -0.262728279461    -0.398829151252     0.148180450240    31.972071174400
         O           -1.533857279461     0.604606848748    -0.118392549760    15.994914619570
         O           -0.318891279461    -1.483946151252    -0.833771549760    15.994914619570
         O           -0.184043279461    -0.717838151252     1.574711450240    15.994914619570
         C            2.394098720539     0.338292848748     0.204688450240    12.000000000000
         C            1.006075720539     0.785595848748    -0.260000549760    12.000000000000
         C            2.869962720539    -0.927647151252    -0.506529549760    12.000000000000
         C            3.372957720539     1.491101848748    -0.019699549760    12.000000000000
         C           -2.827005279461    -0.076046151252    -0.119308549760    12.000000000000
         C           -3.870238279461     1.007188848748    -0.259066549760    12.000000000000
         H            2.330270720539     0.137912848748     1.280770450240     1.007825032230
         H            0.964004720539     0.927662848748    -1.344529549760     1.007825032230
         H            0.706426720539     1.715153848748     0.232988450240     1.007825032230
         H            2.788705720539    -0.746792451252    -1.583889749760     1.007825032230
         H            2.219795720539    -1.783004151252    -0.312205549760     1.007825032230
         H            3.879764720539    -1.184485151252    -0.172959549760     1.007825032230
         H            3.450041720539     1.731248848748    -1.085569549760     1.007825032230
         H            3.060197720539     2.394284848748     0.513431450240     1.007825032230
         H            4.370406720539     1.216378848748     0.335636450240     1.007825032230
         H           -2.846452279461    -0.782435151252    -0.952932549760     1.007825032230
         H           -2.935539279461    -0.624673151252     0.821172450240     1.007825032230
         H           -3.814624279461     1.701995848748     0.581038450240     1.007825032230
         H           -3.721523279461     1.562260848748    -1.187514549760     1.007825032230
         H           -4.867110279461     0.557379848748    -0.277007549760     1.007825032230

  Basis Set: AUG-CC-PVTZ
    Blend: AUG-CC-PVTZ
  Basis Set: (AUG-CC-PVTZ AUX)
    Blend: AUG-CC-PVTZ-JKFIT
	 Reference Energy          =    -857.6251076427622593 [Eh]
	 Singles Energy            =      -0.0000000000000000 [Eh]
	 Same-Spin Energy          =      -0.5254247907745491 [Eh]
	 Opposite-Spin Energy      =      -1.6810073210141927 [Eh]
	 Correlation Energy        =      -2.2064321117887418 [Eh]
	 Total Energy              =    -859.8315397545510450 [Eh]

	 ================> DF-SCS-MP2 Energies <==================
	-----------------------------------------------------------
	 SCS Same-Spin Scale       =       0.3333333333333333 [-]
	 SCS Opposite-Spin Scale   =       1.2000000000000000 [-]
	 SCS Same-Spin Energy      =      -0.1751415969248497 [Eh]
	 SCS Opposite-Spin Energy  =      -2.0172087852170311 [Eh]
	 SCS Correlation Energy    =      -2.1923503821418806 [Eh]
	 SCS Total Energy          =    -859.8174580249041128 [Eh]
	-----------------------------------------------------------

  Dipole Moment: [D]
     X:    -0.0971      Y:     2.7029      Z:    -1.0247     Total:     2.8922

*** Psi4 exiting successfully. Buy a developer a beer!
