                               Psi4 1.4a3.dev225

  ==> Input File <==

--------------------------------------------------------------------------
#psi4
#
memory 32 gb

molecule  {
0 1
  S       -0.2946600    -0.4360860     0.1655790
  O       -1.5657890     0.5673500    -0.1009940
  O       -0.3508230    -1.5212030    -0.8163730
  O       -0.2159750    -0.7550950     1.5921100
  C        2.3621670     0.3010360     0.2220870
  C        0.9385648     0.7151259    -0.2311560
  C        2.8380310    -0.9649040    -0.4891310
  C        3.3410260     1.4538450    -0.0023010
  C       -2.8589370    -0.1133030    -0.1019100
  C       -3.9021700     0.9699320    -0.2416680
  H        2.2983390     0.1006560     1.2981690
  H        0.9320730     0.8904060    -1.3271310
  H        0.6744950     1.6778970     0.2503870
  H        2.8691440    -0.8060450    -1.5725570
  H        2.1878640    -1.8202610    -0.2948070
  H        3.8478330    -1.2217420    -0.1555610
  H        3.4181100     1.6939920    -1.0681710
  H        3.0282660     2.3570280     0.5308300
  H        4.3384750     1.1791220     0.3530350
  H       -2.8783840    -0.8196920    -0.9355340
  H       -2.9674710    -0.6619300     0.8385710
  H       -3.8465560     1.6647390     0.5984370
  H       -3.7534550     1.5250040    -1.1701160
  H       -4.8990420     0.5201230    -0.2596090
units angstrom
no_reorient  #important for SAPT in psi4, default
symmetry c1  #important for SAPT in psi4, default
}

set PROPERTIES_ORIGIN ["COM"]
properties('MP2/aug-cc-pvtz', properties = ['dipole'])
--------------------------------------------------------------------------

    Molecular point group: c1
  Charge       = 0
  Multiplicity = 1
  Basis Set: AUG-CC-PVTZ
    Blend: AUG-CC-PVTZ
  Basis Set: (AUG-CC-PVTZ AUX)
    Blend: AUG-CC-PVTZ-JKFIT

    Orbital Energies [Eh]
    ---------------------

    Doubly Occupied:

       1A    -92.215206     2A    -20.614894     3A    -20.553878
       4A    -20.553655     5A    -11.301935     6A    -11.276896
       7A    -11.253516     8A    -11.233045     9A    -11.230294
      10A    -11.218187    11A     -9.179747    12A     -6.865242
      13A     -6.863913    14A     -6.863585    15A     -1.482669
      16A     -1.375568    17A     -1.338061    18A     -1.120076
      19A     -1.053011    20A     -1.001706    21A     -0.942044
      22A     -0.876213    23A     -0.831638    24A     -0.785995
      25A     -0.728364    26A     -0.693272    27A     -0.691442
      28A     -0.655518    29A     -0.633665    30A     -0.615278
      31A     -0.607127    32A     -0.584028    33A     -0.567231
      34A     -0.558482    35A     -0.554887    36A     -0.543267
      37A     -0.537616    38A     -0.509694    39A     -0.500545
      40A     -0.496631    41A     -0.487479    42A     -0.484542
      43A     -0.481202    44A     -0.463961    45A     -0.460337

  @DF-RHF Final Energy:  -857.62420456775783

   => Energetics <=

    Nuclear Repulsion Energy =            723.5316128543742025
    One-Electron Energy =               -2614.5405478958859931
    Two-Electron Energy =                1033.3847304737541890
    Total Energy =                       -857.6242045677577153
  Basis Set: (AUG-CC-PVTZ AUX)
    Blend: AUG-CC-PVTZ-RI
    Molecular point group: c1

    Geometry (in Angstrom), charge = 0, multiplicity = 1:

       Center              X                  Y                   Z               Mass
    ------------   -----------------  -----------------  -----------------  -----------------
         S           -0.260839269002    -0.396295676061     0.147390171399    31.972071174400
         O           -1.531968269002     0.607140323939    -0.119182828601    15.994914619570
         O           -0.317002269002    -1.481412676061    -0.834561828601    15.994914619570
         O           -0.182154269002    -0.715304676061     1.573921171399    15.994914619570
         C            2.395987730998     0.340826323939     0.203898171399    12.000000000000
         C            0.972385530998     0.754916223939    -0.249344828601    12.000000000000
         C            2.871851730998    -0.925113676061    -0.507319828601    12.000000000000
         C            3.374846730998     1.493635323939    -0.020489828601    12.000000000000
         C           -2.825116269002    -0.073512676061    -0.120098828601    12.000000000000
         C           -3.868349269002     1.009722323939    -0.259856828601    12.000000000000
         H            2.332159730998     0.140446323939     1.279980171399     1.007825032230
         H            0.965893730998     0.930196323939    -1.345319828601     1.007825032230
         H            0.708315730998     1.717687323939     0.232198171399     1.007825032230
         H            2.902964730998    -0.766254676061    -1.590745828601     1.007825032230
         H            2.221684730998    -1.780470676061    -0.312995828601     1.007825032230
         H            3.881653730998    -1.181951676061    -0.173749828601     1.007825032230
         H            3.451930730998     1.733782323939    -1.086359828601     1.007825032230
         H            3.062086730998     2.396818323939     0.512641171399     1.007825032230
         H            4.372295730998     1.218912323939     0.334846171399     1.007825032230
         H           -2.844563269002    -0.779901676061    -0.953722828601     1.007825032230
         H           -2.933650269002    -0.622139676061     0.820382171399     1.007825032230
         H           -3.812735269002     1.704529323939     0.580248171399     1.007825032230
         H           -3.719634269002     1.564794323939    -1.188304828601     1.007825032230
         H           -4.865221269002     0.559913323939    -0.277797828601     1.007825032230

  Basis Set: AUG-CC-PVTZ
    Blend: AUG-CC-PVTZ
  Basis Set: (AUG-CC-PVTZ AUX)
    Blend: AUG-CC-PVTZ-JKFIT
	 Reference Energy          =    -857.6242045677578290 [Eh]
	 Singles Energy            =      -0.0000000000000000 [Eh]
	 Same-Spin Energy          =      -0.5254484165271115 [Eh]
	 Opposite-Spin Energy      =      -1.6808721395625081 [Eh]
	 Correlation Energy        =      -2.2063205560896195 [Eh]
	 Total Energy              =    -859.8305251238474511 [Eh]

	 ================> DF-SCS-MP2 Energies <==================
	-----------------------------------------------------------
	 SCS Same-Spin Scale       =       0.3333333333333333 [-]
	 SCS Opposite-Spin Scale   =       1.2000000000000000 [-]
	 SCS Same-Spin Energy      =      -0.1751494721757038 [Eh]
	 SCS Opposite-Spin Energy  =      -2.0170465674750098 [Eh]
	 SCS Correlation Energy    =      -2.1921960396507134 [Eh]
	 SCS Total Energy          =    -859.8164006074085819 [Eh]
	-----------------------------------------------------------

  Dipole Moment: [D]
     X:    -0.0259      Y:     2.7426      Z:    -1.0496     Total:     2.9367

*** Psi4 exiting successfully. Buy a developer a beer!
