                               Psi4 1.4a3.dev225

  ==> Input File <==

--------------------------------------------------------------------------
#psi4
#
memory 32 gb

molecule  {
0 1
  S       -0.2946600    -0.4360860     0.1655790
  O       -1.5657890     0.5673500    -0.1009940
  O       -0.3508230    -1.5212030    -0.8163730
  O       -0.2159750    -0.7550950     1.5921100
  C        2.3621670     0.3010360     0.2220870
  C        0.9029856     0.6819128    -0.2197100
  C        2.8380310    -0.9649040    -0.4891310
  C        3.3410260     1.4538450    -0.0023010
  C       -2.8589370    -0.1133030    -0.1019100
  C       -3.9021700     0.9699320    -0.2416680
  H        2.2983390     0.1006560     1.2981690
  H        0.9320730     0.8904060    -1.3271310
  H        0.6744950     1.6778970     0.2503870
  H        2.8691440    -0.8060450    -1.5725570
  H        2.1878640    -1.8202610    -0.2948070
  H        3.8478330    -1.2217420    -0.1555610
  H        3.4181100     1.6939920    -1.0681710
  H        3.0282660     2.3570280     0.5308300
  H        4.3384750     1.1791220     0.3530350
  H       -2.8783840    -0.8196920    -0.9355340
  H       -2.9674710    -0.6619300     0.8385710
  H       -3.8465560     1.6647390     0.5984370
  H       -3.7534550     1.5250040    -1.1701160
  H       -4.8990420     0.5201230    -0.2596090
units angstrom
no_reorient  #important for SAPT in psi4, default
symmetry c1  #important for SAPT in psi4, default
}

set PROPERTIES_ORIGIN ["COM"]
properties('MP2/aug-cc-pvtz', properties = ['dipole'])
--------------------------------------------------------------------------

    Molecular point group: c1
  Charge       = 0
  Multiplicity = 1
  Basis Set: AUG-CC-PVTZ
    Blend: AUG-CC-PVTZ
  Basis Set: (AUG-CC-PVTZ AUX)
    Blend: AUG-CC-PVTZ-JKFIT

    Orbital Energies [Eh]
    ---------------------

    Doubly Occupied:

       1A    -92.215474     2A    -20.614408     3A    -20.553558
       4A    -20.553285     5A    -11.301633     6A    -11.276162
       7A    -11.256206     8A    -11.232849     9A    -11.231490
      10A    -11.217989    11A     -9.180547    12A     -6.866059
      13A     -6.864869    14A     -6.864350    15A     -1.484069
      16A     -1.375652    17A     -1.338268    18A     -1.120209
      19A     -1.054701    20A     -1.006939    21A     -0.942092
      22A     -0.875062    23A     -0.832275    24A     -0.784191
      25A     -0.731335    26A     -0.693424    27A     -0.692146
      28A     -0.654615    29A     -0.632024    30A     -0.614638
      31A     -0.607399    32A     -0.581411    33A     -0.567047
      34A     -0.557796    35A     -0.555142    36A     -0.543044
      37A     -0.537671    38A     -0.509441    39A     -0.501025
      40A     -0.496834    41A     -0.485391    42A     -0.483709
      43A     -0.477809    44A     -0.467134    45A     -0.462224

  @DF-RHF Final Energy:  -857.61715947567848

   => Energetics <=

    Nuclear Repulsion Energy =            724.5350832040365958
    One-Electron Energy =               -2616.5172913058713675
    Two-Electron Energy =                1034.3650486261560673
    Total Energy =                       -857.6171594756785908
  Basis Set: (AUG-CC-PVTZ AUX)
    Blend: AUG-CC-PVTZ-RI
    Molecular point group: c1

    Geometry (in Angstrom), charge = 0, multiplicity = 1:

       Center              X                  Y                   Z               Mass
    ------------   -----------------  -----------------  -----------------  -----------------
         S           -0.258268306491    -0.393895688569     0.146563080377    31.972071174400
         O           -1.529397306491     0.609540311431    -0.120009919623    15.994914619570
         O           -0.314431306491    -1.479012688569    -0.835388919623    15.994914619570
         O           -0.179583306491    -0.712904688569     1.573094080377    15.994914619570
         C            2.398558693509     0.343226311431     0.203071080377    12.000000000000
         C            0.939377293509     0.724103111431    -0.238725919623    12.000000000000
         C            2.874422693509    -0.922713688569    -0.508146919623    12.000000000000
         C            3.377417693509     1.496035311431    -0.021316919623    12.000000000000
         C           -2.822545306491    -0.071112688569    -0.120925919623    12.000000000000
         C           -3.865778306491     1.012122311431    -0.260683919623    12.000000000000
         H            2.334730693509     0.142846311431     1.279153080377     1.007825032230
         H            0.968464693509     0.932596311431    -1.346146919623     1.007825032230
         H            0.710886693509     1.720087311431     0.231371080377     1.007825032230
         H            2.905535693509    -0.763854688569    -1.591572919623     1.007825032230
         H            2.224255693509    -1.778070688569    -0.313822919623     1.007825032230
         H            3.884224693509    -1.179551688569    -0.174576919623     1.007825032230
         H            3.454501693509     1.736182311431    -1.087186919623     1.007825032230
         H            3.064657693509     2.399218311431     0.511814080377     1.007825032230
         H            4.374866693509     1.221312311431     0.334019080377     1.007825032230
         H           -2.841992306491    -0.777501688569    -0.954549919623     1.007825032230
         H           -2.931079306491    -0.619739688569     0.819555080377     1.007825032230
         H           -3.810164306491     1.706929311431     0.579421080377     1.007825032230
         H           -3.717063306491     1.567194311431    -1.189131919623     1.007825032230
         H           -4.862650306491     0.562313311431    -0.278624919623     1.007825032230

  Basis Set: AUG-CC-PVTZ
    Blend: AUG-CC-PVTZ
  Basis Set: (AUG-CC-PVTZ AUX)
    Blend: AUG-CC-PVTZ-JKFIT
	 Reference Energy          =    -857.6171594756784771 [Eh]
	 Singles Energy            =      -0.0000000000000000 [Eh]
	 Same-Spin Energy          =      -0.5258287031453148 [Eh]
	 Opposite-Spin Energy      =      -1.6812981241744607 [Eh]
	 Correlation Energy        =      -2.2071268273197755 [Eh]
	 Total Energy              =    -859.8242863029983027 [Eh]

	 ================> DF-SCS-MP2 Energies <==================
	-----------------------------------------------------------
	 SCS Same-Spin Scale       =       0.3333333333333333 [-]
	 SCS Opposite-Spin Scale   =       1.2000000000000000 [-]
	 SCS Same-Spin Energy      =      -0.1752762343817716 [Eh]
	 SCS Opposite-Spin Energy  =      -2.0175577490093528 [Eh]
	 SCS Correlation Energy    =      -2.1928339833911243 [Eh]
	 SCS Total Energy          =    -859.8099934590695739 [Eh]
	-----------------------------------------------------------

  Dipole Moment: [D]
     X:     0.0477      Y:     2.7897      Z:    -1.0579     Total:     2.9839

*** Psi4 exiting successfully. Buy a developer a beer!
