                               Psi4 1.4a3.dev225

  ==> Input File <==

--------------------------------------------------------------------------
#psi4
#
memory 32 gb

molecule  {
0 1
  S       -0.1940355    -0.2975054     0.1520503
  O       -1.5657890     0.5673500    -0.1009940
  O       -0.3508230    -1.5212030    -0.8163730
  O       -0.2159750    -0.7550950     1.5921100
  C        2.3621670     0.3010360     0.2220870
  C        0.9741440     0.7483390    -0.2426020
  C        2.8380310    -0.9649040    -0.4891310
  C        3.3410260     1.4538450    -0.0023010
  C       -2.8589370    -0.1133030    -0.1019100
  C       -3.9021700     0.9699320    -0.2416680
  H        2.2983390     0.1006560     1.2981690
  H        0.9320730     0.8904060    -1.3271310
  H        0.6744950     1.6778970     0.2503870
  H        2.8691440    -0.8060450    -1.5725570
  H        2.1878640    -1.8202610    -0.2948070
  H        3.8478330    -1.2217420    -0.1555610
  H        3.4181100     1.6939920    -1.0681710
  H        3.0282660     2.3570280     0.5308300
  H        4.3384750     1.1791220     0.3530350
  H       -2.8783840    -0.8196920    -0.9355340
  H       -2.9674710    -0.6619300     0.8385710
  H       -3.8465560     1.6647390     0.5984370
  H       -3.7534550     1.5250040    -1.1701160
  H       -4.8990420     0.5201230    -0.2596090
units angstrom
no_reorient  #important for SAPT in psi4, default
symmetry c1  #important for SAPT in psi4, default
}

set PROPERTIES_ORIGIN ["COM"]
properties('MP2/aug-cc-pvtz', properties = ['dipole'])
--------------------------------------------------------------------------

    Molecular point group: c1
  Charge       = 0
  Multiplicity = 1
  Basis Set: AUG-CC-PVTZ
    Blend: AUG-CC-PVTZ
  Basis Set: (AUG-CC-PVTZ AUX)
    Blend: AUG-CC-PVTZ-JKFIT

    Orbital Energies [Eh]
    ---------------------

    Doubly Occupied:

       1A    -92.216652     2A    -20.610789     3A    -20.545681
       4A    -20.531667     5A    -11.298853     6A    -11.290272
       7A    -11.268022     8A    -11.239626     9A    -11.230650
      10A    -11.224713    11A     -9.182726    12A     -6.867773
      13A     -6.866815    14A     -6.865640    15A     -1.456360
      16A     -1.349664    17A     -1.278192    18A     -1.157932
      19A     -1.064413    20A     -1.024872    21A     -0.950977
      22A     -0.880622    23A     -0.831786    24A     -0.797272
      25A     -0.731493    26A     -0.703087    27A     -0.684487
      28A     -0.658720    29A     -0.630367    30A     -0.621836
      31A     -0.597910    32A     -0.586947    33A     -0.567101
      34A     -0.558386    35A     -0.548994    36A     -0.546764
      37A     -0.527981    38A     -0.511931    39A     -0.503266
      40A     -0.497528    41A     -0.484301    42A     -0.479884
      43A     -0.470235    44A     -0.450164    45A     -0.436102

  @DF-RHF Final Energy:  -857.57959912857007

   => Energetics <=

    Nuclear Repulsion Energy =            722.6300344890731822
    One-Electron Energy =               -2612.7603616616056570
    Two-Electron Energy =                1032.5507280439624083
    Total Energy =                       -857.5795991285699529
  Basis Set: (AUG-CC-PVTZ AUX)
    Blend: AUG-CC-PVTZ-RI
    Molecular point group: c1

    Geometry (in Angstrom), charge = 0, multiplicity = 1:

       Center              X                  Y                   Z               Mass
    ------------   -----------------  -----------------  -----------------  -----------------
         S           -0.182158550726    -0.286795413867     0.137293187133    31.972071174400
         O           -1.553912050726     0.578059986133    -0.115751112867    15.994914619570
         O           -0.338946050726    -1.510493013867    -0.831130112867    15.994914619570
         O           -0.204098050726    -0.744385013867     1.577352887133    15.994914619570
         C            2.374043949274     0.311745986133     0.207329887133    12.000000000000
         C            0.986020949274     0.759048986133    -0.257359112867    12.000000000000
         C            2.849907949274    -0.954194013867    -0.503888112867    12.000000000000
         C            3.352902949274     1.464554986133    -0.017058112867    12.000000000000
         C           -2.847060050726    -0.102593013867    -0.116667112867    12.000000000000
         C           -3.890293050726     0.980641986133    -0.256425112867    12.000000000000
         H            2.310215949274     0.111365986133     1.283411887133     1.007825032230
         H            0.943949949274     0.901115986133    -1.341888112867     1.007825032230
         H            0.686371949274     1.688606986133     0.235629887133     1.007825032230
         H            2.881020949274    -0.795335013867    -1.587314112867     1.007825032230
         H            2.199740949274    -1.809551013867    -0.309564112867     1.007825032230
         H            3.859709949274    -1.211032013867    -0.170318112867     1.007825032230
         H            3.429986949274     1.704701986133    -1.082928112867     1.007825032230
         H            3.040142949274     2.367737986133     0.516072887133     1.007825032230
         H            4.350351949274     1.189831986133     0.338277887133     1.007825032230
         H           -2.866507050726    -0.808982013867    -0.950291112867     1.007825032230
         H           -2.955594050726    -0.651220013867     0.823813887133     1.007825032230
         H           -3.834679050726     1.675448986133     0.583679887133     1.007825032230
         H           -3.741578050726     1.535713986133    -1.184873112867     1.007825032230
         H           -4.887165050726     0.530832986133    -0.274366112867     1.007825032230

  Basis Set: AUG-CC-PVTZ
    Blend: AUG-CC-PVTZ
  Basis Set: (AUG-CC-PVTZ AUX)
    Blend: AUG-CC-PVTZ-JKFIT
	 Reference Energy          =    -857.5795991285700666 [Eh]
	 Singles Energy            =      -0.0000000000000000 [Eh]
	 Same-Spin Energy          =      -0.5289169266563201 [Eh]
	 Opposite-Spin Energy      =      -1.6864833343909424 [Eh]
	 Correlation Energy        =      -2.2154002610472627 [Eh]
	 Total Energy              =    -859.7949993896173737 [Eh]

	 ================> DF-SCS-MP2 Energies <==================
	-----------------------------------------------------------
	 SCS Same-Spin Scale       =       0.3333333333333333 [-]
	 SCS Opposite-Spin Scale   =       1.2000000000000000 [-]
	 SCS Same-Spin Energy      =      -0.1763056422187733 [Eh]
	 SCS Opposite-Spin Energy  =      -2.0237800012691309 [Eh]
	 SCS Correlation Energy    =      -2.2000856434879044 [Eh]
	 SCS Total Energy          =    -859.7796847720579763 [Eh]
	-----------------------------------------------------------

  Dipole Moment: [D]
     X:     0.9161      Y:     3.7853      Z:    -1.0923     Total:     4.0449

*** Psi4 exiting successfully. Buy a developer a beer!
