                               Psi4 1.4a3.dev225

  ==> Input File <==

--------------------------------------------------------------------------
#psi4
#
memory 32 gb

molecule  {
0 1
  S       -0.2946600    -0.4360860     0.1655790
  O       -1.5657890     0.5673500    -0.1009940
  O       -0.3508230    -1.5212030    -0.8163730
  O       -0.2159750    -0.7550950     1.5921100
  C        2.3621670     0.3010360     0.2220870
  C        0.9741440     0.7483390    -0.2426020
  C        2.8380310    -0.9649040    -0.4891310
  C        3.3410260     1.4538450    -0.0023010
  C       -2.8589370    -0.1133030    -0.1019100
  C       -3.8676404     1.0098317    -0.1504002
  H        2.2983390     0.1006560     1.2981690
  H        0.9320730     0.8904060    -1.3271310
  H        0.6744950     1.6778970     0.2503870
  H        2.8691440    -0.8060450    -1.5725570
  H        2.1878640    -1.8202610    -0.2948070
  H        3.8478330    -1.2217420    -0.1555610
  H        3.4181100     1.6939920    -1.0681710
  H        3.0282660     2.3570280     0.5308300
  H        4.3384750     1.1791220     0.3530350
  H       -2.8783840    -0.8196920    -0.9355340
  H       -2.9674710    -0.6619300     0.8385710
  H       -3.8465560     1.6647390     0.5984370
  H       -3.7534550     1.5250040    -1.1701160
  H       -4.8990420     0.5201230    -0.2596090
units angstrom
no_reorient  #important for SAPT in psi4, default
symmetry c1  #important for SAPT in psi4, default
}

set PROPERTIES_ORIGIN ["COM"]
properties('MP2/aug-cc-pvtz', properties = ['dipole'])
--------------------------------------------------------------------------

    Molecular point group: c1
  Charge       = 0
  Multiplicity = 1
  Basis Set: AUG-CC-PVTZ
    Blend: AUG-CC-PVTZ
  Basis Set: (AUG-CC-PVTZ AUX)
    Blend: AUG-CC-PVTZ-JKFIT

    Orbital Energies [Eh]
    ---------------------

    Doubly Occupied:

       1A    -92.213407     2A    -20.614277     3A    -20.553823
       4A    -20.553359     5A    -11.303255     6A    -11.277902
       7A    -11.251360     8A    -11.235021     9A    -11.229442
      10A    -11.218570    11A     -9.177704    12A     -6.863148
      13A     -6.861715    14A     -6.861546    15A     -1.481043
      16A     -1.375324    17A     -1.337431    18A     -1.120847
      19A     -1.052304    20A     -0.996509    21A     -0.942278
      22A     -0.878504    23A     -0.832391    24A     -0.787934
      25A     -0.724951    26A     -0.694777    27A     -0.690758
      28A     -0.656858    29A     -0.637854    30A     -0.617319
      31A     -0.608106    32A     -0.586972    33A     -0.576651
      34A     -0.559912    35A     -0.548025    36A     -0.542111
      37A     -0.529648    38A     -0.510009    39A     -0.502013
      40A     -0.494430    41A     -0.489342    42A     -0.484602
      43A     -0.482494    44A     -0.463272    45A     -0.452674

  @DF-RHF Final Energy:  -857.61278765374823

   => Energetics <=

    Nuclear Repulsion Energy =            722.9336498036078638
    One-Electron Energy =               -2613.3491345375773562
    Two-Electron Energy =                1032.8026970802213782
    Total Energy =                       -857.6127876537482280
  Basis Set: (AUG-CC-PVTZ AUX)
    Blend: AUG-CC-PVTZ-RI
    Molecular point group: c1

    Geometry (in Angstrom), charge = 0, multiplicity = 1:

       Center              X                  Y                   Z               Mass
    ------------   -----------------  -----------------  -----------------  -----------------
         S           -0.265905349648    -0.401578826550     0.141622226775    31.972071174400
         O           -1.537034349648     0.601857173450    -0.124950773225    15.994914619570
         O           -0.322068349648    -1.486695826550    -0.840329773225    15.994914619570
         O           -0.187220349648    -0.720587826550     1.568153226775    15.994914619570
         C            2.390921650352     0.335543173450     0.198130226775    12.000000000000
         C            1.002898650352     0.782846173450    -0.266558773225    12.000000000000
         C            2.866785650352    -0.930396826550    -0.513087773225    12.000000000000
         C            3.369780650352     1.488352173450    -0.026257773225    12.000000000000
         C           -2.830182349648    -0.078795826550    -0.125866773225    12.000000000000
         C           -3.838885749648     1.044338873450    -0.174356973225    12.000000000000
         H            2.327093650352     0.135163173450     1.274212226775     1.007825032230
         H            0.960827650352     0.924913173450    -1.351087773225     1.007825032230
         H            0.703249650352     1.712404173450     0.226430226775     1.007825032230
         H            2.897898650352    -0.771537826550    -1.596513773225     1.007825032230
         H            2.216618650352    -1.785753826550    -0.318763773225     1.007825032230
         H            3.876587650352    -1.187234826550    -0.179517773225     1.007825032230
         H            3.446864650352     1.728499173450    -1.092127773225     1.007825032230
         H            3.057020650352     2.391535173450     0.506873226775     1.007825032230
         H            4.367229650352     1.213629173450     0.329078226775     1.007825032230
         H           -2.849629349648    -0.785184826550    -0.959490773225     1.007825032230
         H           -2.938716349648    -0.627422826550     0.814614226775     1.007825032230
         H           -3.817801349648     1.699246173450     0.574480226775     1.007825032230
         H           -3.724700349648     1.559511173450    -1.194072773225     1.007825032230
         H           -4.870287349648     0.554630173450    -0.283565773225     1.007825032230

  Basis Set: AUG-CC-PVTZ
    Blend: AUG-CC-PVTZ
  Basis Set: (AUG-CC-PVTZ AUX)
    Blend: AUG-CC-PVTZ-JKFIT
	 Reference Energy          =    -857.6127876537482280 [Eh]
	 Singles Energy            =      -0.0000000000000000 [Eh]
	 Same-Spin Energy          =      -0.5255508133062291 [Eh]
	 Opposite-Spin Energy      =      -1.6814367862211086 [Eh]
	 Correlation Energy        =      -2.2069875995273378 [Eh]
	 Total Energy              =    -859.8197752532755658 [Eh]

	 ================> DF-SCS-MP2 Energies <==================
	-----------------------------------------------------------
	 SCS Same-Spin Scale       =       0.3333333333333333 [-]
	 SCS Opposite-Spin Scale   =       1.2000000000000000 [-]
	 SCS Same-Spin Energy      =      -0.1751836044354097 [Eh]
	 SCS Opposite-Spin Energy  =      -2.0177241434653301 [Eh]
	 SCS Correlation Energy    =      -2.1929077479007399 [Eh]
	 SCS Total Energy          =    -859.8056954016490181 [Eh]
	-----------------------------------------------------------

  Dipole Moment: [D]
     X:    -0.0672      Y:     2.7123      Z:    -1.0187     Total:     2.8981

*** Psi4 exiting successfully. Buy a developer a beer!
