                               Psi4 1.4a3.dev225

  ==> Input File <==

--------------------------------------------------------------------------
#psi4
#
memory 32 gb

molecule  {
0 1
  S       -0.2946600    -0.4360860     0.1655790
  O       -1.5657890     0.5673500    -0.1009940
  O       -0.3508230    -1.5212030    -0.8163730
  O       -0.2159750    -0.7550950     1.5921100
  C        2.3621670     0.3010360     0.2220870
  C        0.9741440     0.7483390    -0.2426020
  C        2.8380310    -0.9649040    -0.4891310
  C        3.3410260     1.4538450    -0.0023010
  C       -2.8589370    -0.1133030    -0.1019100
  C       -3.9021700     0.9699320    -0.2416680
  H        2.2983390     0.1006560     1.2981690
  H        0.9320730     0.8904060    -1.3271310
  H        0.6744950     1.6778970     0.2503870
  H        2.8691440    -0.8060450    -1.5725570
  H        2.1878640    -1.8202610    -0.2948070
  H        3.8478330    -1.2217420    -0.1555610
  H        3.4181100     1.6939920    -1.0681710
  H        3.0282660     2.3570280     0.5308300
  H        4.3384750     1.1791220     0.3530350
  H       -2.8655652    -0.7293589    -1.0045305
  H       -2.9674710    -0.6619300     0.8385710
  H       -3.8465560     1.6647390     0.5984370
  H       -3.7534550     1.5250040    -1.1701160
  H       -4.8990420     0.5201230    -0.2596090
units angstrom
no_reorient  #important for SAPT in psi4, default
symmetry c1  #important for SAPT in psi4, default
}

set PROPERTIES_ORIGIN ["COM"]
properties('MP2/aug-cc-pvtz', properties = ['dipole'])
--------------------------------------------------------------------------

    Molecular point group: c1
  Charge       = 0
  Multiplicity = 1
  Basis Set: AUG-CC-PVTZ
    Blend: AUG-CC-PVTZ
  Basis Set: (AUG-CC-PVTZ AUX)
    Blend: AUG-CC-PVTZ-JKFIT

    Orbital Energies [Eh]
    ---------------------

    Doubly Occupied:

       1A    -92.213504     2A    -20.613630     3A    -20.553384
       4A    -20.553317     5A    -11.302247     6A    -11.277930
       7A    -11.251365     8A    -11.232425     9A    -11.229437
      10A    -11.218504    11A     -9.177748    12A     -6.863199
      13A     -6.861762    14A     -6.861588    15A     -1.480716
      16A     -1.374842    17A     -1.337166    18A     -1.120809
      19A     -1.052239    20A     -0.996687    21A     -0.942239
      22A     -0.876431    23A     -0.828348    24A     -0.787818
      25A     -0.724076    26A     -0.696542    27A     -0.690036
      28A     -0.658423    29A     -0.635721    30A     -0.616042
      31A     -0.606213    32A     -0.586446    33A     -0.567154
      34A     -0.558800    35A     -0.554505    36A     -0.543276
      37A     -0.534824    38A     -0.509981    39A     -0.499371
      40A     -0.497031    41A     -0.490589    42A     -0.485592
      43A     -0.482537    44A     -0.463449    45A     -0.453345

  @DF-RHF Final Energy:  -857.62518333015760

   => Energetics <=

    Nuclear Repulsion Energy =            722.6292935501372767
    One-Electron Energy =               -2612.7863759578140161
    Two-Electron Energy =                1032.5318990775190287
    Total Energy =                       -857.6251833301575971
  Basis Set: (AUG-CC-PVTZ AUX)
    Blend: AUG-CC-PVTZ-RI
    Molecular point group: c1

    Geometry (in Angstrom), charge = 0, multiplicity = 1:

       Center              X                  Y                   Z               Mass
    ------------   -----------------  -----------------  -----------------  -----------------
         S           -0.263488026361    -0.399243877871     0.148635988993    31.972071174400
         O           -1.534617026361     0.604192122129    -0.117937011007    15.994914619570
         O           -0.319651026361    -1.484360877871    -0.833316011007    15.994914619570
         O           -0.184803026361    -0.718252877871     1.575166988993    15.994914619570
         C            2.393338973639     0.337878122129     0.205143988993    12.000000000000
         C            1.005315973639     0.785181122129    -0.259545011007    12.000000000000
         C            2.869202973639    -0.928061877871    -0.506074011007    12.000000000000
         C            3.372197973639     1.490687122129    -0.019244011007    12.000000000000
         C           -2.827765026361    -0.076460877871    -0.118853011007    12.000000000000
         C           -3.870998026361     1.006774122129    -0.258611011007    12.000000000000
         H            2.329510973639     0.137498122129     1.281225988993     1.007825032230
         H            0.963244973639     0.927248122129    -1.344074011007     1.007825032230
         H            0.705666973639     1.714739122129     0.233443988993     1.007825032230
         H            2.900315973639    -0.769202877871    -1.589500011007     1.007825032230
         H            2.219035973639    -1.783418877871    -0.311750011007     1.007825032230
         H            3.879004973639    -1.184899877871    -0.172504011007     1.007825032230
         H            3.449281973639     1.730834122129    -1.085114011007     1.007825032230
         H            3.059437973639     2.393870122129     0.513886988993     1.007825032230
         H            4.369646973639     1.215964122129     0.336091988993     1.007825032230
         H           -2.834393226361    -0.692516777871    -1.021473511007     1.007825032230
         H           -2.936299026361    -0.625087877871     0.821627988993     1.007825032230
         H           -3.815384026361     1.701581122129     0.581493988993     1.007825032230
         H           -3.722283026361     1.561846122129    -1.187059011007     1.007825032230
         H           -4.867870026361     0.556965122129    -0.276552011007     1.007825032230

  Basis Set: AUG-CC-PVTZ
    Blend: AUG-CC-PVTZ
  Basis Set: (AUG-CC-PVTZ AUX)
    Blend: AUG-CC-PVTZ-JKFIT
	 Reference Energy          =    -857.6251833301575971 [Eh]
	 Singles Energy            =      -0.0000000000000000 [Eh]
	 Same-Spin Energy          =      -0.5253323774990272 [Eh]
	 Opposite-Spin Energy      =      -1.6809360246857687 [Eh]
	 Correlation Energy        =      -2.2062684021847958 [Eh]
	 Total Energy              =    -859.8314517323424298 [Eh]

	 ================> DF-SCS-MP2 Energies <==================
	-----------------------------------------------------------
	 SCS Same-Spin Scale       =       0.3333333333333333 [-]
	 SCS Opposite-Spin Scale   =       1.2000000000000000 [-]
	 SCS Same-Spin Energy      =      -0.1751107924996757 [Eh]
	 SCS Opposite-Spin Energy  =      -2.0171232296229222 [Eh]
	 SCS Correlation Energy    =      -2.1922340221225980 [Eh]
	 SCS Total Energy          =    -859.8174173522802448 [Eh]
	-----------------------------------------------------------

  Dipole Moment: [D]
     X:    -0.0864      Y:     2.7345      Z:    -1.0553     Total:     2.9324

*** Psi4 exiting successfully. Buy a developer a beer!
