                               Psi4 1.4a3.dev225

  ==> Input File <==

--------------------------------------------------------------------------
#psi4
#
memory 32 gb

molecule  {
0 1
  S       -0.2946600    -0.4360860     0.1655790
  O       -1.5657890     0.5673500    -0.1009940
  O       -0.3508230    -1.5212030    -0.8163730
  O       -0.2159750    -0.7550950     1.5921100
  C        2.3621670     0.3010360     0.2220870
  C        0.9741440     0.7483390    -0.2426020
  C        2.8380310    -0.9649040    -0.4891310
  C        3.3410260     1.4538450    -0.0023010
  C       -2.8589370    -0.1133030    -0.1019100
  C       -3.9021700     0.9699320    -0.2416680
  H        2.2983390     0.1006560     1.2981690
  H        0.9320730     0.8904060    -1.3271310
  H        0.6799729     1.6609037     0.2413747
  H        2.8691440    -0.8060450    -1.5725570
  H        2.1878640    -1.8202610    -0.2948070
  H        3.8478330    -1.2217420    -0.1555610
  H        3.4181100     1.6939920    -1.0681710
  H        3.0282660     2.3570280     0.5308300
  H        4.3384750     1.1791220     0.3530350
  H       -2.8783840    -0.8196920    -0.9355340
  H       -2.9674710    -0.6619300     0.8385710
  H       -3.8465560     1.6647390     0.5984370
  H       -3.7534550     1.5250040    -1.1701160
  H       -4.8990420     0.5201230    -0.2596090
units angstrom
no_reorient  #important for SAPT in psi4, default
symmetry c1  #important for SAPT in psi4, default
}

set PROPERTIES_ORIGIN ["COM"]
properties('MP2/aug-cc-pvtz', properties = ['dipole'])
--------------------------------------------------------------------------

    Molecular point group: c1
  Charge       = 0
  Multiplicity = 1
  Basis Set: AUG-CC-PVTZ
    Blend: AUG-CC-PVTZ
  Basis Set: (AUG-CC-PVTZ AUX)
    Blend: AUG-CC-PVTZ-JKFIT

    Orbital Energies [Eh]
    ---------------------

    Doubly Occupied:

       1A    -92.213766     2A    -20.614966     3A    -20.553594
       4A    -20.553568     5A    -11.301960     6A    -11.275996
       7A    -11.251409     8A    -11.233059     9A    -11.229565
      10A    -11.218508    11A     -9.178029    12A     -6.863483
      13A     -6.862037    14A     -6.861863    15A     -1.481055
      16A     -1.375114    17A     -1.337402    18A     -1.121527
      19A     -1.051610    20A     -0.997617    21A     -0.942369
      22A     -0.877309    23A     -0.830878    24A     -0.788562
      25A     -0.725629    26A     -0.693171    27A     -0.690686
      28A     -0.658627    29A     -0.635482    30A     -0.616319
      31A     -0.606765    32A     -0.587002    33A     -0.567491
      34A     -0.559136    35A     -0.554713    36A     -0.543638
      37A     -0.537475    38A     -0.510285    39A     -0.500037
      40A     -0.496927    41A     -0.490645    42A     -0.485515
      43A     -0.482565    44A     -0.463383    45A     -0.453720

  @DF-RHF Final Energy:  -857.62662833879904

   => Energetics <=

    Nuclear Repulsion Energy =            722.6879052572935507
    One-Electron Energy =               -2612.8801549204067669
    Two-Electron Energy =                1032.5656213243141792
    Total Energy =                       -857.6266283387990370
  Basis Set: (AUG-CC-PVTZ AUX)
    Blend: AUG-CC-PVTZ-RI
    Molecular point group: c1

    Geometry (in Angstrom), charge = 0, multiplicity = 1:

       Center              X                  Y                   Z               Mass
    ------------   -----------------  -----------------  -----------------  -----------------
         S           -0.263443475842    -0.398592534463     0.148271956347    31.972071174400
         O           -1.534572475842     0.604843465537    -0.118301043653    15.994914619570
         O           -0.319606475842    -1.483709534463    -0.833680043653    15.994914619570
         O           -0.184758475842    -0.717601534463     1.574802956347    15.994914619570
         C            2.393383524158     0.338529465537     0.204779956347    12.000000000000
         C            1.005360524158     0.785832465537    -0.259909043653    12.000000000000
         C            2.869247524158    -0.927410534463    -0.506438043653    12.000000000000
         C            3.372242524158     1.491338465537    -0.019608043653    12.000000000000
         C           -2.827720475842    -0.075809534463    -0.119217043653    12.000000000000
         C           -3.870953475842     1.007425465537    -0.258975043653    12.000000000000
         H            2.329555524158     0.138149465537     1.280861956347     1.007825032230
         H            0.963289524158     0.927899465537    -1.344438043653     1.007825032230
         H            0.711189424158     1.698397165537     0.224067656347     1.007825032230
         H            2.900360524158    -0.768551534463    -1.589864043653     1.007825032230
         H            2.219080524158    -1.782767534463    -0.312114043653     1.007825032230
         H            3.879049524158    -1.184248534463    -0.172868043653     1.007825032230
         H            3.449326524158     1.731485465537    -1.085478043653     1.007825032230
         H            3.059482524158     2.394521465537     0.513522956347     1.007825032230
         H            4.369691524158     1.216615465537     0.335727956347     1.007825032230
         H           -2.847167475842    -0.782198534463    -0.952841043653     1.007825032230
         H           -2.936254475842    -0.624436534463     0.821263956347     1.007825032230
         H           -3.815339475842     1.702232465537     0.581129956347     1.007825032230
         H           -3.722238475842     1.562497465537    -1.187423043653     1.007825032230
         H           -4.867825475842     0.557616465537    -0.276916043653     1.007825032230

  Basis Set: AUG-CC-PVTZ
    Blend: AUG-CC-PVTZ
  Basis Set: (AUG-CC-PVTZ AUX)
    Blend: AUG-CC-PVTZ-JKFIT
	 Reference Energy          =    -857.6266283387990370 [Eh]
	 Singles Energy            =      -0.0000000000000000 [Eh]
	 Same-Spin Energy          =      -0.5252450044996096 [Eh]
	 Opposite-Spin Energy      =      -1.6806376749300656 [Eh]
	 Correlation Energy        =      -2.2058826794296751 [Eh]
	 Total Energy              =    -859.8325110182287290 [Eh]

	 ================> DF-SCS-MP2 Energies <==================
	-----------------------------------------------------------
	 SCS Same-Spin Scale       =       0.3333333333333333 [-]
	 SCS Opposite-Spin Scale   =       1.2000000000000000 [-]
	 SCS Same-Spin Energy      =      -0.1750816681665365 [Eh]
	 SCS Opposite-Spin Energy  =      -2.0167652099160787 [Eh]
	 SCS Correlation Energy    =      -2.1918468780826150 [Eh]
	 SCS Total Energy          =    -859.8184752168816658 [Eh]
	-----------------------------------------------------------

  Dipole Moment: [D]
     X:    -0.0682      Y:     2.7114      Z:    -1.0444     Total:     2.9064

*** Psi4 exiting successfully. Buy a developer a beer!
