                               Psi4 1.4a3.dev225

  ==> Input File <==

--------------------------------------------------------------------------
#psi4
#
memory 32 gb

molecule  {
0 1
  S       -0.2946600    -0.4360860     0.1655790
  O       -1.5657890     0.5673500    -0.1009940
  O       -0.3508230    -1.5212030    -0.8163730
  O       -0.2159750    -0.7550950     1.5921100
  C        2.3621670     0.3010360     0.2220870
  C        0.9741440     0.7483390    -0.2426020
  C        2.8380310    -0.9649040    -0.4891310
  C        3.3410260     1.4538450    -0.0023010
  C       -2.8589370    -0.1133030    -0.1019100
  C       -3.9021700     0.9699320    -0.2416680
  H        2.2983390     0.1006560     1.2981690
  H        0.9320730     0.8904060    -1.3271310
  H        0.6690171     1.6948903     0.2593993
  H        2.8691440    -0.8060450    -1.5725570
  H        2.1878640    -1.8202610    -0.2948070
  H        3.8478330    -1.2217420    -0.1555610
  H        3.4181100     1.6939920    -1.0681710
  H        3.0282660     2.3570280     0.5308300
  H        4.3384750     1.1791220     0.3530350
  H       -2.8783840    -0.8196920    -0.9355340
  H       -2.9674710    -0.6619300     0.8385710
  H       -3.8465560     1.6647390     0.5984370
  H       -3.7534550     1.5250040    -1.1701160
  H       -4.8990420     0.5201230    -0.2596090
units angstrom
no_reorient  #important for SAPT in psi4, default
symmetry c1  #important for SAPT in psi4, default
}

set PROPERTIES_ORIGIN ["COM"]
properties('MP2/aug-cc-pvtz', properties = ['dipole'])
--------------------------------------------------------------------------

    Molecular point group: c1
  Charge       = 0
  Multiplicity = 1
  Basis Set: AUG-CC-PVTZ
    Blend: AUG-CC-PVTZ
  Basis Set: (AUG-CC-PVTZ AUX)
    Blend: AUG-CC-PVTZ-JKFIT

    Orbital Energies [Eh]
    ---------------------

    Doubly Occupied:

       1A    -92.213909     2A    -20.614839     3A    -20.553789
       4A    -20.553517     5A    -11.301872     6A    -11.280230
       7A    -11.251583     8A    -11.233010     9A    -11.229494
      10A    -11.218736    11A     -9.178142    12A     -6.863599
      13A     -6.862155    14A     -6.861980    15A     -1.481025
      16A     -1.375056    17A     -1.337451    18A     -1.120406
      19A     -1.051449    20A     -0.995907    21A     -0.942326
      22A     -0.876773    23A     -0.830686    24A     -0.787560
      25A     -0.724836    26A     -0.692605    27A     -0.690680
      28A     -0.655046    29A     -0.634586    30A     -0.615968
      31A     -0.606734    32A     -0.586443    33A     -0.566945
      34A     -0.558605    35A     -0.554597    36A     -0.543557
      37A     -0.537332    38A     -0.509774    39A     -0.500005
      40A     -0.496859    41A     -0.490340    42A     -0.485326
      43A     -0.482571    44A     -0.463283    45A     -0.453597

  @DF-RHF Final Energy:  -857.62590069066459

   => Energetics <=

    Nuclear Repulsion Energy =            722.4650569836259137
    One-Electron Energy =               -2612.4515512053380917
    Two-Electron Energy =                1032.3605935310476980
    Total Energy =                       -857.6259006906645936
  Basis Set: (AUG-CC-PVTZ AUX)
    Blend: AUG-CC-PVTZ-RI
    Molecular point group: c1

    Geometry (in Angstrom), charge = 0, multiplicity = 1:

       Center              X                  Y                   Z               Mass
    ------------   -----------------  -----------------  -----------------  -----------------
         S           -0.263376987185    -0.398798792643     0.148162568495    31.972071174400
         O           -1.534505987185     0.604637207357    -0.118410431505    15.994914619570
         O           -0.319539987185    -1.483915792643    -0.833789431505    15.994914619570
         O           -0.184691987185    -0.717807792643     1.574693568495    15.994914619570
         C            2.393450012815     0.338323207357     0.204670568495    12.000000000000
         C            1.005427012815     0.785626207357    -0.260018431505    12.000000000000
         C            2.869314012815    -0.927616792643    -0.506547431505    12.000000000000
         C            3.372309012815     1.491132207357    -0.019717431505    12.000000000000
         C           -2.827653987185    -0.076015792643    -0.119326431505    12.000000000000
         C           -3.870886987185     1.007219207357    -0.259084431505    12.000000000000
         H            2.329622012815     0.137943207357     1.280752568495     1.007825032230
         H            0.963356012815     0.927693207357    -1.344547431505     1.007825032230
         H            0.700300112815     1.732177507357     0.241982868495     1.007825032230
         H            2.900427012815    -0.768757792643    -1.589973431505     1.007825032230
         H            2.219147012815    -1.782973792643    -0.312223431505     1.007825032230
         H            3.879116012815    -1.184454792643    -0.172977431505     1.007825032230
         H            3.449393012815     1.731279207357    -1.085587431505     1.007825032230
         H            3.059549012815     2.394315207357     0.513413568495     1.007825032230
         H            4.369758012815     1.216409207357     0.335618568495     1.007825032230
         H           -2.847100987185    -0.782404792643    -0.952950431505     1.007825032230
         H           -2.936187987185    -0.624642792643     0.821154568495     1.007825032230
         H           -3.815272987185     1.702026207357     0.581020568495     1.007825032230
         H           -3.722171987185     1.562291207357    -1.187532431505     1.007825032230
         H           -4.867758987185     0.557410207357    -0.277025431505     1.007825032230

  Basis Set: AUG-CC-PVTZ
    Blend: AUG-CC-PVTZ
  Basis Set: (AUG-CC-PVTZ AUX)
    Blend: AUG-CC-PVTZ-JKFIT
	 Reference Energy          =    -857.6259006906645936 [Eh]
	 Singles Energy            =      -0.0000000000000000 [Eh]
	 Same-Spin Energy          =      -0.5253372233662141 [Eh]
	 Opposite-Spin Energy      =      -1.6809750248264781 [Eh]
	 Correlation Energy        =      -2.2063122481926922 [Eh]
	 Total Energy              =    -859.8322129388573103 [Eh]

	 ================> DF-SCS-MP2 Energies <==================
	-----------------------------------------------------------
	 SCS Same-Spin Scale       =       0.3333333333333333 [-]
	 SCS Opposite-Spin Scale   =       1.2000000000000000 [-]
	 SCS Same-Spin Energy      =      -0.1751124077887380 [Eh]
	 SCS Opposite-Spin Energy  =      -2.0171700297917736 [Eh]
	 SCS Correlation Energy    =      -2.1922824375805114 [Eh]
	 SCS Total Energy          =    -859.8181831282450958 [Eh]
	-----------------------------------------------------------

  Dipole Moment: [D]
     X:    -0.0633      Y:     2.7063      Z:    -1.0443     Total:     2.9015

*** Psi4 exiting successfully. Buy a developer a beer!
