                               Psi4 1.4a3.dev225

  ==> Input File <==

--------------------------------------------------------------------------
#psi4
#
memory 32 gb

molecule  {
0 1
  S       -0.2946600    -0.4360860     0.1655790
  O       -1.4883403     0.5062116    -0.0847520
  O       -0.3508230    -1.5212030    -0.8163730
  O       -0.2159750    -0.7550950     1.5921100
  C        2.3621670     0.3010360     0.2220870
  C        0.9741440     0.7483390    -0.2426020
  C        2.8380310    -0.9649040    -0.4891310
  C        3.3410260     1.4538450    -0.0023010
  C       -2.8589370    -0.1133030    -0.1019100
  C       -3.9021700     0.9699320    -0.2416680
  H        2.2983390     0.1006560     1.2981690
  H        0.9320730     0.8904060    -1.3271310
  H        0.6744950     1.6778970     0.2503870
  H        2.8691440    -0.8060450    -1.5725570
  H        2.1878640    -1.8202610    -0.2948070
  H        3.8478330    -1.2217420    -0.1555610
  H        3.4181100     1.6939920    -1.0681710
  H        3.0282660     2.3570280     0.5308300
  H        4.3384750     1.1791220     0.3530350
  H       -2.8783840    -0.8196920    -0.9355340
  H       -2.9674710    -0.6619300     0.8385710
  H       -3.8465560     1.6647390     0.5984370
  H       -3.7534550     1.5250040    -1.1701160
  H       -4.8990420     0.5201230    -0.2596090
units angstrom
no_reorient  #important for SAPT in psi4, default
symmetry c1  #important for SAPT in psi4, default
}

set PROPERTIES_ORIGIN ["COM"]
properties('MP2/aug-cc-pvtz', properties = ['dipole'])
--------------------------------------------------------------------------

    Molecular point group: c1
  Charge       = 0
  Multiplicity = 1
  Basis Set: AUG-CC-PVTZ
    Blend: AUG-CC-PVTZ
  Basis Set: (AUG-CC-PVTZ AUX)
    Blend: AUG-CC-PVTZ-JKFIT

    Orbital Energies [Eh]
    ---------------------

    Doubly Occupied:

       1A    -92.205521     2A    -20.616662     3A    -20.542695
       4A    -20.542490     5A    -11.316379     6A    -11.271168
       7A    -11.246488     8A    -11.242581     9A    -11.225960
      10A    -11.214710    11A     -9.170288    12A     -6.856162
      13A     -6.854448    14A     -6.854179    15A     -1.499943
      16A     -1.374900    17A     -1.329496    18A     -1.116307
      19A     -1.063411    20A     -0.994127    21A     -0.938535
      22A     -0.887958    23A     -0.827028    24A     -0.786288
      25A     -0.725972    26A     -0.700763    27A     -0.692269
      28A     -0.654047    29A     -0.633870    30A     -0.614552
      31A     -0.604151    32A     -0.583782    33A     -0.573913
      34A     -0.563333    35A     -0.553323    36A     -0.541855
      37A     -0.538663    38A     -0.509400    39A     -0.503365
      40A     -0.501862    41A     -0.485682    42A     -0.480904
      43A     -0.477365    44A     -0.456183    45A     -0.448719

  @DF-RHF Final Energy:  -857.62904356042998

   => Energetics <=

    Nuclear Repulsion Energy =            725.8718028508379803
    One-Electron Energy =               -2619.3582887160628161
    Two-Electron Energy =                1035.8574423047948585
    Total Energy =                       -857.6290435604300910
  Basis Set: (AUG-CC-PVTZ AUX)
    Blend: AUG-CC-PVTZ-RI
    Molecular point group: c1

    Geometry (in Angstrom), charge = 0, multiplicity = 1:

       Center              X                  Y                   Z               Mass
    ------------   -----------------  -----------------  -----------------  -----------------
         S           -0.270869811545    -0.392807032913     0.146652891439    31.972071174400
         O           -1.464550111545     0.549490567087    -0.103678108561    15.994914619570
         O           -0.327032811545    -1.477924032913    -0.835299108561    15.994914619570
         O           -0.192184811545    -0.711816032913     1.573183891439    15.994914619570
         C            2.385957188455     0.344314967087     0.203160891439    12.000000000000
         C            0.997934188455     0.791617967087    -0.261528108561    12.000000000000
         C            2.861821188455    -0.921625032913    -0.508057108561    12.000000000000
         C            3.364816188455     1.497123967087    -0.021227108561    12.000000000000
         C           -2.835146811545    -0.070024032913    -0.120836108561    12.000000000000
         C           -3.878379811545     1.013210967087    -0.260594108561    12.000000000000
         H            2.322129188455     0.143934967087     1.279242891439     1.007825032230
         H            0.955863188455     0.933684967087    -1.346057108561     1.007825032230
         H            0.698285188455     1.721175967087     0.231460891439     1.007825032230
         H            2.892934188455    -0.762766032913    -1.591483108561     1.007825032230
         H            2.211654188455    -1.776982032913    -0.313733108561     1.007825032230
         H            3.871623188455    -1.178463032913    -0.174487108561     1.007825032230
         H            3.441900188455     1.737270967087    -1.087097108561     1.007825032230
         H            3.052056188455     2.400306967087     0.511903891439     1.007825032230
         H            4.362265188455     1.222400967087     0.334108891439     1.007825032230
         H           -2.854593811545    -0.776413032913    -0.954460108561     1.007825032230
         H           -2.943680811545    -0.618651032913     0.819644891439     1.007825032230
         H           -3.822765811545     1.708017967087     0.579510891439     1.007825032230
         H           -3.729664811545     1.568282967087    -1.189042108561     1.007825032230
         H           -4.875251811545     0.563401967087    -0.278535108561     1.007825032230

  Basis Set: AUG-CC-PVTZ
    Blend: AUG-CC-PVTZ
  Basis Set: (AUG-CC-PVTZ AUX)
    Blend: AUG-CC-PVTZ-JKFIT
	 Reference Energy          =    -857.6290435604299773 [Eh]
	 Singles Energy            =      -0.0000000000000000 [Eh]
	 Same-Spin Energy          =      -0.5234935581693003 [Eh]
	 Opposite-Spin Energy      =      -1.6762270175264837 [Eh]
	 Correlation Energy        =      -2.1997205756957841 [Eh]
	 Total Energy              =    -859.8287641361257556 [Eh]

	 ================> DF-SCS-MP2 Energies <==================
	-----------------------------------------------------------
	 SCS Same-Spin Scale       =       0.3333333333333333 [-]
	 SCS Opposite-Spin Scale   =       1.2000000000000000 [-]
	 SCS Same-Spin Energy      =      -0.1744978527231001 [Eh]
	 SCS Opposite-Spin Energy  =      -2.0114724210317805 [Eh]
	 SCS Correlation Energy    =      -2.1859702737548807 [Eh]
	 SCS Total Energy          =    -859.8150138341848105 [Eh]
	-----------------------------------------------------------

  Dipole Moment: [D]
     X:    -0.9645      Y:     2.9929      Z:    -1.1444     Total:     3.3462

*** Psi4 exiting successfully. Buy a developer a beer!
