                               Psi4 1.4a3.dev225

  ==> Input File <==

--------------------------------------------------------------------------
#psi4
#
memory 32 gb

molecule  {
0 1
  S       -0.2946600    -0.4360860     0.1655790
  O       -1.5657890     0.5673500    -0.1009940
  O       -0.3508230    -1.5212030    -0.8163730
  O       -0.2159750    -0.7550950     1.5921100
  C        2.3621670     0.3010360     0.2220870
  C        0.9741440     0.7483390    -0.2426020
  C        2.8380310    -0.9649040    -0.4891310
  C        3.3410260     1.4538450    -0.0023010
  C       -2.8589370    -0.1133030    -0.1019100
  C       -3.9021700     0.9699320    -0.2416680
  H        2.2983390     0.1006560     1.2981690
  H        0.9320730     0.8904060    -1.3271310
  H        0.6744950     1.6778970     0.2503870
  H        2.8691440    -0.8060450    -1.5725570
  H        2.3069597    -1.6635792    -0.3304027
  H        3.8478330    -1.2217420    -0.1555610
  H        3.4181100     1.6939920    -1.0681710
  H        3.0282660     2.3570280     0.5308300
  H        4.3384750     1.1791220     0.3530350
  H       -2.8783840    -0.8196920    -0.9355340
  H       -2.9674710    -0.6619300     0.8385710
  H       -3.8465560     1.6647390     0.5984370
  H       -3.7534550     1.5250040    -1.1701160
  H       -4.8990420     0.5201230    -0.2596090
units angstrom
no_reorient  #important for SAPT in psi4, default
symmetry c1  #important for SAPT in psi4, default
}

set PROPERTIES_ORIGIN ["COM"]
properties('MP2/aug-cc-pvtz', properties = ['dipole'])
--------------------------------------------------------------------------

    Molecular point group: c1
  Charge       = 0
  Multiplicity = 1
  Basis Set: AUG-CC-PVTZ
    Blend: AUG-CC-PVTZ
  Basis Set: (AUG-CC-PVTZ AUX)
    Blend: AUG-CC-PVTZ-JKFIT

    Orbital Energies [Eh]
    ---------------------

    Doubly Occupied:

       1A    -92.214090     2A    -20.615103     3A    -20.554466
       4A    -20.553884     5A    -11.302072     6A    -11.278070
       7A    -11.250393     8A    -11.233139     9A    -11.228517
      10A    -11.195361    11A     -9.178353    12A     -6.863807
      13A     -6.862360    14A     -6.862190    15A     -1.481364
      16A     -1.375357    17A     -1.337846    18A     -1.123037
      19A     -1.052355    20A     -1.000216    21A     -0.960425
      22A     -0.877930    23A     -0.831899    24A     -0.792294
      25A     -0.725431    26A     -0.693595    27A     -0.691183
      28A     -0.660699    29A     -0.639198    30A     -0.628296
      31A     -0.607385    32A     -0.590686    33A     -0.567835
      34A     -0.559422    35A     -0.557869    36A     -0.542976
      37A     -0.538164    38A     -0.518606    39A     -0.500131
      40A     -0.497110    41A     -0.492127    42A     -0.486336
      43A     -0.482543    44A     -0.463626    45A     -0.456202

  @DF-RHF Final Energy:  -857.59224570028039

   => Energetics <=

    Nuclear Repulsion Energy =            723.3697125904715222
    One-Electron Energy =               -2614.0760196151850323
    Two-Electron Energy =                1033.1140613244333508
    Total Energy =                       -857.5922457002802730
  Basis Set: (AUG-CC-PVTZ AUX)
    Blend: AUG-CC-PVTZ-RI
    Molecular point group: c1

    Geometry (in Angstrom), charge = 0, multiplicity = 1:

       Center              X                  Y                   Z               Mass
    ------------   -----------------  -----------------  -----------------  -----------------
         S           -0.264133000554    -0.399646535451     0.148433285921    31.972071174400
         O           -1.535262000554     0.603789464549    -0.118139714079    15.994914619570
         O           -0.320296000554    -1.484763535451    -0.833518714079    15.994914619570
         O           -0.185448000554    -0.718655535451     1.574964285921    15.994914619570
         C            2.392693999446     0.337475464549     0.204941285921    12.000000000000
         C            1.004670999446     0.784778464549    -0.259747714079    12.000000000000
         C            2.868557999446    -0.928464535451    -0.506276714079    12.000000000000
         C            3.371552999446     1.490284464549    -0.019446714079    12.000000000000
         C           -2.828410000554    -0.076863535451    -0.119055714079    12.000000000000
         C           -3.871643000554     1.006371464549    -0.258813714079    12.000000000000
         H            2.328865999446     0.137095464549     1.281023285921     1.007825032230
         H            0.962599999446     0.926845464549    -1.344276714079     1.007825032230
         H            0.705021999446     1.714336464549     0.233241285921     1.007825032230
         H            2.899670999446    -0.769605535451    -1.589702714079     1.007825032230
         H            2.337486699446    -1.627139735451    -0.347548414079     1.007825032230
         H            3.878359999446    -1.185302535451    -0.172706714079     1.007825032230
         H            3.448636999446     1.730431464549    -1.085316714079     1.007825032230
         H            3.058792999446     2.393467464549     0.513684285921     1.007825032230
         H            4.369001999446     1.215561464549     0.335889285921     1.007825032230
         H           -2.847857000554    -0.783252535451    -0.952679714079     1.007825032230
         H           -2.936944000554    -0.625490535451     0.821425285921     1.007825032230
         H           -3.816029000554     1.701178464549     0.581291285921     1.007825032230
         H           -3.722928000554     1.561443464549    -1.187261714079     1.007825032230
         H           -4.868515000554     0.556562464549    -0.276754714079     1.007825032230

  Basis Set: AUG-CC-PVTZ
    Blend: AUG-CC-PVTZ
  Basis Set: (AUG-CC-PVTZ AUX)
    Blend: AUG-CC-PVTZ-JKFIT
	 Reference Energy          =    -857.5922457002803867 [Eh]
	 Singles Energy            =      -0.0000000000000000 [Eh]
	 Same-Spin Energy          =      -0.5251737420074681 [Eh]
	 Opposite-Spin Energy      =      -1.6799786432993586 [Eh]
	 Correlation Energy        =      -2.2051523853068269 [Eh]
	 Total Energy              =    -859.7973980855872469 [Eh]

	 ================> DF-SCS-MP2 Energies <==================
	-----------------------------------------------------------
	 SCS Same-Spin Scale       =       0.3333333333333333 [-]
	 SCS Opposite-Spin Scale   =       1.2000000000000000 [-]
	 SCS Same-Spin Energy      =      -0.1750579140024894 [Eh]
	 SCS Opposite-Spin Energy  =      -2.0159743719592305 [Eh]
	 SCS Correlation Energy    =      -2.1910322859617199 [Eh]
	 SCS Total Energy          =    -859.7832779862420693 [Eh]
	-----------------------------------------------------------

  Dipole Moment: [D]
     X:    -0.0808      Y:     2.6624      Z:    -1.0424     Total:     2.8604

*** Psi4 exiting successfully. Buy a developer a beer!
