                               Psi4 1.4a3.dev225

  ==> Input File <==

--------------------------------------------------------------------------
#psi4
#
memory 32 gb

molecule  {
0 1
  S       -0.2946600    -0.4360860     0.1655790
  O       -1.5657890     0.5673500    -0.1009940
  O       -0.3508230    -1.5212030    -0.8163730
  O       -0.2159750    -0.7550950     1.5921100
  C        2.3621670     0.3010360     0.2220870
  C        1.0097232     0.7815521    -0.2540480
  C        2.8380310    -0.9649040    -0.4891310
  C        3.3410260     1.4538450    -0.0023010
  C       -2.8589370    -0.1133030    -0.1019100
  C       -3.9021700     0.9699320    -0.2416680
  H        2.2983390     0.1006560     1.2981690
  H        0.9320730     0.8904060    -1.3271310
  H        0.6744950     1.6778970     0.2503870
  H        2.8691440    -0.8060450    -1.5725570
  H        2.1878640    -1.8202610    -0.2948070
  H        3.8478330    -1.2217420    -0.1555610
  H        3.4181100     1.6939920    -1.0681710
  H        3.0282660     2.3570280     0.5308300
  H        4.3384750     1.1791220     0.3530350
  H       -2.8783840    -0.8196920    -0.9355340
  H       -2.9674710    -0.6619300     0.8385710
  H       -3.8465560     1.6647390     0.5984370
  H       -3.7534550     1.5250040    -1.1701160
  H       -4.8990420     0.5201230    -0.2596090
units angstrom
no_reorient  #important for SAPT in psi4, default
symmetry c1  #important for SAPT in psi4, default
}

set PROPERTIES_ORIGIN ["COM"]
properties('MP2/aug-cc-pvtz', properties = ['dipole'])
--------------------------------------------------------------------------

    Molecular point group: c1
  Charge       = 0
  Multiplicity = 1
  Basis Set: AUG-CC-PVTZ
    Blend: AUG-CC-PVTZ
  Basis Set: (AUG-CC-PVTZ AUX)
    Blend: AUG-CC-PVTZ-JKFIT

    Orbital Energies [Eh]
    ---------------------

    Doubly Occupied:

       1A    -92.211437     2A    -20.614454     3A    -20.553006
       4A    -20.552974     5A    -11.301589     6A    -11.279991
       7A    -11.250113     8A    -11.232826     9A    -11.229207
      10A    -11.219261    11A     -9.175600    12A     -6.860994
      13A     -6.859459    14A     -6.859403    15A     -1.479162
      16A     -1.374219    17A     -1.336382    18A     -1.122658
      19A     -1.050125    20A     -0.992239    21A     -0.942974
      22A     -0.877513    23A     -0.829707    24A     -0.790295
      25A     -0.721980    26A     -0.692281    27A     -0.690044
      28A     -0.658350    29A     -0.635987    30A     -0.617468
      31A     -0.606290    32A     -0.589120    33A     -0.567064
      34A     -0.559056    35A     -0.554422    36A     -0.544087
      37A     -0.537028    38A     -0.510485    39A     -0.499370
      40A     -0.498892    41A     -0.492043    42A     -0.486249
      43A     -0.482985    44A     -0.462734    45A     -0.445116

  @DF-RHF Final Energy:  -857.62477447392416

   => Energetics <=

    Nuclear Repulsion Energy =            721.6601427756618250
    One-Electron Energy =               -2610.8765569091633552
    Two-Electron Energy =                1031.5916396595773676
    Total Energy =                       -857.6247744739241625
  Basis Set: (AUG-CC-PVTZ AUX)
    Blend: AUG-CC-PVTZ-RI
    Molecular point group: c1

    Geometry (in Angstrom), charge = 0, multiplicity = 1:

       Center              X                  Y                   Z               Mass
    ------------   -----------------  -----------------  -----------------  -----------------
         S           -0.265981194025    -0.401095651045     0.149044353444    31.972071174400
         O           -1.537110194025     0.602340348955    -0.117528646556    15.994914619570
         O           -0.322144194025    -1.486212651045    -0.832907646556    15.994914619570
         O           -0.187296194025    -0.720104651045     1.575575353444    15.994914619570
         C            2.390845805975     0.336026348955     0.205552353444    12.000000000000
         C            1.038402005975     0.816542448955    -0.270582646556    12.000000000000
         C            2.866709805975    -0.929913651045    -0.505665646556    12.000000000000
         C            3.369704805975     1.488835348955    -0.018835646556    12.000000000000
         C           -2.830258194025    -0.078312651045    -0.118444646556    12.000000000000
         C           -3.873491194025     1.004922348955    -0.258202646556    12.000000000000
         H            2.327017805975     0.135646348955     1.281634353444     1.007825032230
         H            0.960751805975     0.925396348955    -1.343665646556     1.007825032230
         H            0.703173805975     1.712887348955     0.233852353444     1.007825032230
         H            2.897822805975    -0.771054651045    -1.589091646556     1.007825032230
         H            2.216542805975    -1.785270651045    -0.311341646556     1.007825032230
         H            3.876511805975    -1.186751651045    -0.172095646556     1.007825032230
         H            3.446788805975     1.728982348955    -1.084705646556     1.007825032230
         H            3.056944805975     2.392018348955     0.514295353444     1.007825032230
         H            4.367153805975     1.214112348955     0.336500353444     1.007825032230
         H           -2.849705194025    -0.784701651045    -0.952068646556     1.007825032230
         H           -2.938792194025    -0.626939651045     0.822036353444     1.007825032230
         H           -3.817877194025     1.699729348955     0.581902353444     1.007825032230
         H           -3.724776194025     1.559994348955    -1.186650646556     1.007825032230
         H           -4.870363194025     0.555113348955    -0.276143646556     1.007825032230

  Basis Set: AUG-CC-PVTZ
    Blend: AUG-CC-PVTZ
  Basis Set: (AUG-CC-PVTZ AUX)
    Blend: AUG-CC-PVTZ-JKFIT
	 Reference Energy          =    -857.6247744739241625 [Eh]
	 Singles Energy            =      -0.0000000000000000 [Eh]
	 Same-Spin Energy          =      -0.5253329849666363 [Eh]
	 Opposite-Spin Energy      =      -1.6810511938625932 [Eh]
	 Correlation Energy        =      -2.2063841788292295 [Eh]
	 Total Energy              =    -859.8311586527534018 [Eh]

	 ================> DF-SCS-MP2 Energies <==================
	-----------------------------------------------------------
	 SCS Same-Spin Scale       =       0.3333333333333333 [-]
	 SCS Opposite-Spin Scale   =       1.2000000000000000 [-]
	 SCS Same-Spin Energy      =      -0.1751109949888787 [Eh]
	 SCS Opposite-Spin Energy  =      -2.0172614326351117 [Eh]
	 SCS Correlation Energy    =      -2.1923724276239906 [Eh]
	 SCS Total Energy          =    -859.8171469015481989 [Eh]
	-----------------------------------------------------------

  Dipole Moment: [D]
     X:    -0.0745      Y:     2.6883      Z:    -1.0415     Total:     2.8840

*** Psi4 exiting successfully. Buy a developer a beer!
