                               Psi4 1.4a3.dev225

  ==> Input File <==

--------------------------------------------------------------------------
#psi4
#
memory 32 gb

molecule  {
0 1
  S       -0.2946600    -0.4360860     0.1655790
  O       -1.5657890     0.5673500    -0.1009940
  O       -0.3508230    -1.5212030    -0.8163730
  O       -0.2159750    -0.7550950     1.5921100
  C        2.3621670     0.3010360     0.2220870
  C        0.9741440     0.7483390    -0.2426020
  C        2.8380310    -0.9649040    -0.4891310
  C        3.3410260     1.4538450    -0.0023010
  C       -2.8589370    -0.1133030    -0.1019100
  C       -3.9021700     0.9699320    -0.2416680
  H        2.2983390     0.1006560     1.2981690
  H        0.9320730     0.8904060    -1.3271310
  H        0.6744950     1.6778970     0.2503870
  H        2.8691440    -0.8060450    -1.5725570
  H        2.1878640    -1.8202610    -0.2948070
  H        3.8478330    -1.2217420    -0.1555610
  H        3.4181100     1.6939920    -1.0681710
  H        3.0282660     2.3570280     0.5308300
  H        4.3384750     1.1791220     0.3530350
  H       -2.8783840    -0.8196920    -0.9355340
  H       -2.9674710    -0.6619300     0.8385710
  H       -3.8465560     1.6647390     0.5984370
  H       -3.7262152     1.6266752    -1.3401776
  H       -4.8990420     0.5201230    -0.2596090
units angstrom
no_reorient  #important for SAPT in psi4, default
symmetry c1  #important for SAPT in psi4, default
}

set PROPERTIES_ORIGIN ["COM"]
properties('MP2/aug-cc-pvtz', properties = ['dipole'])
--------------------------------------------------------------------------

    Molecular point group: c1
  Charge       = 0
  Multiplicity = 1
  Basis Set: AUG-CC-PVTZ
    Blend: AUG-CC-PVTZ
  Basis Set: (AUG-CC-PVTZ AUX)
    Blend: AUG-CC-PVTZ-JKFIT

    Orbital Energies [Eh]
    ---------------------

    Doubly Occupied:

       1A    -92.214205     2A    -20.615567     3A    -20.554070
       4A    -20.553972     5A    -11.304687     6A    -11.278315
       7A    -11.255777     8A    -11.251648     9A    -11.229620
      10A    -11.218752    11A     -9.178466    12A     -6.863921
      13A     -6.862475    14A     -6.862302    15A     -1.481544
      16A     -1.375642    17A     -1.337847    18A     -1.121094
      19A     -1.048561    20A     -0.994981    21A     -0.942461
      22A     -0.870857    23A     -0.828629    24A     -0.788228
      25A     -0.725852    26A     -0.692670    27A     -0.690283
      28A     -0.655003    29A     -0.635043    30A     -0.616327
      31A     -0.604668    32A     -0.587184    33A     -0.567305
      34A     -0.556127    35A     -0.553479    36A     -0.543494
      37A     -0.522773    38A     -0.509754    39A     -0.500776
      40A     -0.492565    41A     -0.487765    42A     -0.484344
      43A     -0.481020    44A     -0.463445    45A     -0.453908

  @DF-RHF Final Energy:  -857.60646611507298

   => Energetics <=

    Nuclear Repulsion Energy =            721.8216004197719258
    One-Electron Energy =               -2611.1413261952579887
    Two-Electron Energy =                1031.7132596604128594
    Total Energy =                       -857.6064661150730899
  Basis Set: (AUG-CC-PVTZ AUX)
    Blend: AUG-CC-PVTZ-RI
    Molecular point group: c1

    Geometry (in Angstrom), charge = 0, multiplicity = 1:

       Center              X                  Y                   Z               Mass
    ------------   -----------------  -----------------  -----------------  -----------------
         S           -0.263575544653    -0.399312686633     0.149249333768    31.972071174400
         O           -1.534704544653     0.604123313367    -0.117323666232    15.994914619570
         O           -0.319738544653    -1.484429686633    -0.832702666232    15.994914619570
         O           -0.184890544653    -0.718321686633     1.575780333768    15.994914619570
         C            2.393251455347     0.337809313367     0.205757333768    12.000000000000
         C            1.005228455347     0.785112313367    -0.258931666232    12.000000000000
         C            2.869115455347    -0.928130686633    -0.505460666232    12.000000000000
         C            3.372110455347     1.490618313367    -0.018630666232    12.000000000000
         C           -2.827852544653    -0.076529686633    -0.118239666232    12.000000000000
         C           -3.871085544653     1.006705313367    -0.257997666232    12.000000000000
         H            2.329423455347     0.137429313367     1.281839333768     1.007825032230
         H            0.963157455347     0.927179313367    -1.343460666232     1.007825032230
         H            0.705579455347     1.714670313367     0.234057333768     1.007825032230
         H            2.900228455347    -0.769271686633    -1.588886666232     1.007825032230
         H            2.218948455347    -1.783487686633    -0.311136666232     1.007825032230
         H            3.878917455347    -1.184968686633    -0.171890666232     1.007825032230
         H            3.449194455347     1.730765313367    -1.084500666232     1.007825032230
         H            3.059350455347     2.393801313367     0.514500333768     1.007825032230
         H            4.369559455347     1.215895313367     0.336705333768     1.007825032230
         H           -2.847299544653    -0.782918686633    -0.951863666232     1.007825032230
         H           -2.936386544653    -0.625156686633     0.822241333768     1.007825032230
         H           -3.815471544653     1.701512313367     0.582107333768     1.007825032230
         H           -3.695130744653     1.663448513367    -1.356507266232     1.007825032230
         H           -4.867957544653     0.556896313367    -0.275938666232     1.007825032230

  Basis Set: AUG-CC-PVTZ
    Blend: AUG-CC-PVTZ
  Basis Set: (AUG-CC-PVTZ AUX)
    Blend: AUG-CC-PVTZ-JKFIT
	 Reference Energy          =    -857.6064661150729762 [Eh]
	 Singles Energy            =      -0.0000000000000000 [Eh]
	 Same-Spin Energy          =      -0.5252071965624193 [Eh]
	 Opposite-Spin Energy      =      -1.6822698375727985 [Eh]
	 Correlation Energy        =      -2.2074770341352177 [Eh]
	 Total Energy              =    -859.8139431492081712 [Eh]

	 ================> DF-SCS-MP2 Energies <==================
	-----------------------------------------------------------
	 SCS Same-Spin Scale       =       0.3333333333333333 [-]
	 SCS Opposite-Spin Scale   =       1.2000000000000000 [-]
	 SCS Same-Spin Energy      =      -0.1750690655208064 [Eh]
	 SCS Opposite-Spin Energy  =      -2.0187238050873582 [Eh]
	 SCS Correlation Energy    =      -2.1937928706081644 [Eh]
	 SCS Total Energy          =    -859.8002589856811255 [Eh]
	-----------------------------------------------------------

  Dipole Moment: [D]
     X:    -0.0421      Y:     2.6370      Z:    -0.9535     Total:     2.8044

*** Psi4 exiting successfully. Buy a developer a beer!
