                               Psi4 1.4a3.dev225

  ==> Input File <==

--------------------------------------------------------------------------
#psi4
#
memory 32 gb

molecule  {
0 1
  S       -0.2946600    -0.4360860     0.1655790
  O       -1.5657890     0.5673500    -0.1009940
  O       -0.3508230    -1.5212030    -0.8163730
  O       -0.2159750    -0.7550950     1.5921100
  C        2.3621670     0.3010360     0.2220870
  C        0.9741440     0.7483390    -0.2426020
  C        2.8380310    -0.9649040    -0.4891310
  C        3.3410260     1.4538450    -0.0023010
  C       -2.8589370    -0.1133030    -0.1019100
  C       -3.9021700     0.9699320    -0.2416680
  H        2.2983390     0.1006560     1.2981690
  H        0.9320730     0.8904060    -1.3271310
  H        0.6744950     1.6778970     0.2503870
  H        2.8691440    -0.8060450    -1.5725570
  H        2.1878640    -1.8202610    -0.2948070
  H        3.8478330    -1.2217420    -0.1555610
  H        3.4195175     1.6983770    -1.0876335
  H        3.0282660     2.3570280     0.5308300
  H        4.3384750     1.1791220     0.3530350
  H       -2.8783840    -0.8196920    -0.9355340
  H       -2.9674710    -0.6619300     0.8385710
  H       -3.8465560     1.6647390     0.5984370
  H       -3.7534550     1.5250040    -1.1701160
  H       -4.8990420     0.5201230    -0.2596090
units angstrom
no_reorient  #important for SAPT in psi4, default
symmetry c1  #important for SAPT in psi4, default
}

set PROPERTIES_ORIGIN ["COM"]
properties('MP2/aug-cc-pvtz', properties = ['dipole'])
--------------------------------------------------------------------------

    Molecular point group: c1
  Charge       = 0
  Multiplicity = 1
  Basis Set: AUG-CC-PVTZ
    Blend: AUG-CC-PVTZ
  Basis Set: (AUG-CC-PVTZ AUX)
    Blend: AUG-CC-PVTZ-JKFIT

    Orbital Energies [Eh]
    ---------------------

    Doubly Occupied:

       1A    -92.213865     2A    -20.614927     3A    -20.553712
       4A    -20.553580     5A    -11.301933     6A    -11.278167
       7A    -11.251749     8A    -11.233046     9A    -11.232008
      10A    -11.218654    11A     -9.178114    12A     -6.863569
      13A     -6.862125    14A     -6.861950    15A     -1.481069
      16A     -1.375112    17A     -1.337458    18A     -1.120843
      19A     -1.051492    20A     -0.996473    21A     -0.941425
      22A     -0.876903    23A     -0.830640    24A     -0.787581
      25A     -0.725226    26A     -0.692897    27A     -0.690676
      28A     -0.656749    29A     -0.634782    30A     -0.616179
      31A     -0.606795    32A     -0.586565    33A     -0.566986
      34A     -0.558539    35A     -0.553634    36A     -0.542662
      37A     -0.537459    38A     -0.510147    39A     -0.500056
      40A     -0.496880    41A     -0.490624    42A     -0.485471
      43A     -0.481990    44A     -0.463362    45A     -0.453762

  @DF-RHF Final Energy:  -857.62602313084540

   => Energetics <=

    Nuclear Repulsion Energy =            722.4898423916268939
    One-Electron Energy =               -2612.4960574935712430
    Two-Electron Energy =                1032.3801919710988386
    Total Energy =                       -857.6260231308453967
  Basis Set: (AUG-CC-PVTZ AUX)
    Blend: AUG-CC-PVTZ-RI
    Molecular point group: c1

    Geometry (in Angstrom), charge = 0, multiplicity = 1:

       Center              X                  Y                   Z               Mass
    ------------   -----------------  -----------------  -----------------  -----------------
         S           -0.263418773362    -0.398722275280     0.148335376614    31.972071174400
         O           -1.534547773362     0.604713724720    -0.118237623386    15.994914619570
         O           -0.319581773362    -1.483839275280    -0.833616623386    15.994914619570
         O           -0.184733773362    -0.717731275280     1.574866376614    15.994914619570
         C            2.393408226638     0.338399724720     0.204843376614    12.000000000000
         C            1.005385226638     0.785702724720    -0.259845623386    12.000000000000
         C            2.869272226638    -0.927540275280    -0.506374623386    12.000000000000
         C            3.372267226638     1.491208724720    -0.019544623386    12.000000000000
         C           -2.827695773362    -0.075939275280    -0.119153623386    12.000000000000
         C           -3.870928773362     1.007295724720    -0.258911623386    12.000000000000
         H            2.329580226638     0.138019724720     1.280925376614     1.007825032230
         H            0.963314226638     0.927769724720    -1.344374623386     1.007825032230
         H            0.705736226638     1.715260724720     0.233143376614     1.007825032230
         H            2.900385226638    -0.768681275280    -1.589800623386     1.007825032230
         H            2.219105226638    -1.782897275280    -0.312050623386     1.007825032230
         H            3.879074226638    -1.184378275280    -0.172804623386     1.007825032230
         H            3.450758726638     1.735740724720    -1.104877123386     1.007825032230
         H            3.059507226638     2.394391724720     0.513586376614     1.007825032230
         H            4.369716226638     1.216485724720     0.335791376614     1.007825032230
         H           -2.847142773362    -0.782328275280    -0.952777623386     1.007825032230
         H           -2.936229773362    -0.624566275280     0.821327376614     1.007825032230
         H           -3.815314773362     1.702102724720     0.581193376614     1.007825032230
         H           -3.722213773362     1.562367724720    -1.187359623386     1.007825032230
         H           -4.867800773362     0.557486724720    -0.276852623386     1.007825032230

  Basis Set: AUG-CC-PVTZ
    Blend: AUG-CC-PVTZ
  Basis Set: (AUG-CC-PVTZ AUX)
    Blend: AUG-CC-PVTZ-JKFIT
	 Reference Energy          =    -857.6260231308453967 [Eh]
	 Singles Energy            =      -0.0000000000000000 [Eh]
	 Same-Spin Energy          =      -0.5252866694593860 [Eh]
	 Opposite-Spin Energy      =      -1.6809196200329530 [Eh]
	 Correlation Energy        =      -2.2062062894923389 [Eh]
	 Total Energy              =    -859.8322294203377396 [Eh]

	 ================> DF-SCS-MP2 Energies <==================
	-----------------------------------------------------------
	 SCS Same-Spin Scale       =       0.3333333333333333 [-]
	 SCS Opposite-Spin Scale   =       1.2000000000000000 [-]
	 SCS Same-Spin Energy      =      -0.1750955564864620 [Eh]
	 SCS Opposite-Spin Energy  =      -2.0171035440395437 [Eh]
	 SCS Correlation Energy    =      -2.1921991005260058 [Eh]
	 SCS Total Energy          =    -859.8182222313713510 [Eh]
	-----------------------------------------------------------

  Dipole Moment: [D]
     X:    -0.0689      Y:     2.7043      Z:    -1.0335     Total:     2.8959

*** Psi4 exiting successfully. Buy a developer a beer!
