                               Psi4 1.4a3.dev225

  ==> Input File <==

--------------------------------------------------------------------------
#psi4
#
memory 32 gb

molecule  {
0 1
  S       -0.2946600    -0.4360860     0.1655790
  O       -1.5657890     0.5673500    -0.1009940
  O       -0.3508230    -1.5212030    -0.8163730
  O       -0.2159750    -0.7550950     1.5921100
  C        2.3621670     0.3010360     0.2220870
  C        0.9733505     0.6644303    -0.3087210
  C        2.8380310    -0.9649040    -0.4891310
  C        3.3410260     1.4538450    -0.0023010
  C       -2.8589370    -0.1133030    -0.1019100
  C       -3.9021700     0.9699320    -0.2416680
  H        2.2983390     0.1006560     1.2981690
  H        0.9320730     0.8904060    -1.3271310
  H        0.6744950     1.6778970     0.2503870
  H        2.8691440    -0.8060450    -1.5725570
  H        2.1878640    -1.8202610    -0.2948070
  H        3.8478330    -1.2217420    -0.1555610
  H        3.4181100     1.6939920    -1.0681710
  H        3.0282660     2.3570280     0.5308300
  H        4.3384750     1.1791220     0.3530350
  H       -2.8783840    -0.8196920    -0.9355340
  H       -2.9674710    -0.6619300     0.8385710
  H       -3.8465560     1.6647390     0.5984370
  H       -3.7534550     1.5250040    -1.1701160
  H       -4.8990420     0.5201230    -0.2596090
units angstrom
no_reorient  #important for SAPT in psi4, default
symmetry c1  #important for SAPT in psi4, default
}

set PROPERTIES_ORIGIN ["COM"]
properties('MP2/aug-cc-pvtz', properties = ['dipole'])
--------------------------------------------------------------------------

    Molecular point group: c1
  Charge       = 0
  Multiplicity = 1
  Basis Set: AUG-CC-PVTZ
    Blend: AUG-CC-PVTZ
  Basis Set: (AUG-CC-PVTZ AUX)
    Blend: AUG-CC-PVTZ-JKFIT

    Orbital Energies [Eh]
    ---------------------

    Doubly Occupied:

       1A    -92.215651     2A    -20.616122     3A    -20.556446
       4A    -20.549509     5A    -11.302567     6A    -11.279176
       7A    -11.252863     8A    -11.233414     9A    -11.230508
      10A    -11.216743    11A     -9.179955    12A     -6.865389
      13A     -6.864209    14A     -6.863758    15A     -1.482370
      16A     -1.375931    17A     -1.337455    18A     -1.122748
      19A     -1.052673    20A     -1.000129    21A     -0.941903
      22A     -0.876959    23A     -0.831656    24A     -0.790433
      25A     -0.729720    26A     -0.694741    27A     -0.691933
      28A     -0.649565    29A     -0.630739    30A     -0.618397
      31A     -0.607126    32A     -0.588897    33A     -0.567130
      34A     -0.558143    35A     -0.554804    36A     -0.543803
      37A     -0.537578    38A     -0.506847    39A     -0.501281
      40A     -0.498118    41A     -0.489116    42A     -0.485200
      43A     -0.478748    44A     -0.462345    45A     -0.455901

  @DF-RHF Final Energy:  -857.61507502327322

   => Energetics <=

    Nuclear Repulsion Energy =            723.5265893483335731
    One-Electron Energy =               -2614.5059311449253983
    Two-Electron Energy =                1033.3642667733186045
    Total Energy =                       -857.6150750232732207
  Basis Set: (AUG-CC-PVTZ AUX)
    Blend: AUG-CC-PVTZ-RI
    Molecular point group: c1

    Geometry (in Angstrom), charge = 0, multiplicity = 1:

       Center              X                  Y                   Z               Mass
    ------------   -----------------  -----------------  -----------------  -----------------
         S           -0.263352892991    -0.392632398441     0.152995039051    31.972071174400
         O           -1.534481892991     0.610803601559    -0.113577960949    15.994914619570
         O           -0.319515892991    -1.477749398441    -0.828956960949    15.994914619570
         O           -0.184667892991    -0.711641398441     1.579526039051    15.994914619570
         C            2.393474107009     0.344489601559     0.209503039051    12.000000000000
         C            1.004657607009     0.707883901559    -0.321304960949    12.000000000000
         C            2.869338107009    -0.921450398441    -0.501714960949    12.000000000000
         C            3.372333107009     1.497298601559    -0.014884960949    12.000000000000
         C           -2.827629892991    -0.069849398441    -0.114493960949    12.000000000000
         C           -3.870862892991     1.013385601559    -0.254251960949    12.000000000000
         H            2.329646107009     0.144109601559     1.285585039051     1.007825032230
         H            0.963380107009     0.933859601559    -1.339714960949     1.007825032230
         H            0.705802107009     1.721350601559     0.237803039051     1.007825032230
         H            2.900451107009    -0.762591398441    -1.585140960949     1.007825032230
         H            2.219171107009    -1.776807398441    -0.307390960949     1.007825032230
         H            3.879140107009    -1.178288398441    -0.168144960949     1.007825032230
         H            3.449417107009     1.737445601559    -1.080754960949     1.007825032230
         H            3.059573107009     2.400481601559     0.518246039051     1.007825032230
         H            4.369782107009     1.222575601559     0.340451039051     1.007825032230
         H           -2.847076892991    -0.776238398441    -0.948117960949     1.007825032230
         H           -2.936163892991    -0.618476398441     0.825987039051     1.007825032230
         H           -3.815248892991     1.708192601559     0.585853039051     1.007825032230
         H           -3.722147892991     1.568457601559    -1.182699960949     1.007825032230
         H           -4.867734892991     0.563576601559    -0.272192960949     1.007825032230

  Basis Set: AUG-CC-PVTZ
    Blend: AUG-CC-PVTZ
  Basis Set: (AUG-CC-PVTZ AUX)
    Blend: AUG-CC-PVTZ-JKFIT
	 Reference Energy          =    -857.6150750232732207 [Eh]
	 Singles Energy            =      -0.0000000000000000 [Eh]
	 Same-Spin Energy          =      -0.5257035194559001 [Eh]
	 Opposite-Spin Energy      =      -1.6814874019087720 [Eh]
	 Correlation Energy        =      -2.2071909213646723 [Eh]
	 Total Energy              =    -859.8222659446379339 [Eh]

	 ================> DF-SCS-MP2 Energies <==================
	-----------------------------------------------------------
	 SCS Same-Spin Scale       =       0.3333333333333333 [-]
	 SCS Opposite-Spin Scale   =       1.2000000000000000 [-]
	 SCS Same-Spin Energy      =      -0.1752345064853000 [Eh]
	 SCS Opposite-Spin Energy  =      -2.0177848822905262 [Eh]
	 SCS Correlation Energy    =      -2.1930193887758263 [Eh]
	 SCS Total Energy          =    -859.8080944120490585 [Eh]
	-----------------------------------------------------------

  Dipole Moment: [D]
     X:    -0.0516      Y:     2.7600      Z:    -1.0252     Total:     2.9447

*** Psi4 exiting successfully. Buy a developer a beer!
