                               Psi4 1.4a3.dev225

  ==> Input File <==

--------------------------------------------------------------------------
#psi4
#
memory 32 gb

molecule  {
0 1
  S       -0.2946600    -0.4360860     0.1655790
  O       -1.5657890     0.5673500    -0.1009940
  O       -0.3508230    -1.5212030    -0.8163730
  O       -0.2159750    -0.7550950     1.5921100
  C        2.3621670     0.3010360     0.2220870
  C        0.9741440     0.7483390    -0.2426020
  C        2.8380310    -0.9649040    -0.4891310
  C        3.3410260     1.4538450    -0.0023010
  C       -2.8589370    -0.1133030    -0.1019100
  C       -3.9021700     0.9699320    -0.2416680
  H        2.2983390     0.1006560     1.2981690
  H        0.9320730     0.8904060    -1.3271310
  H        0.6744950     1.6778970     0.2503870
  H        2.8691440    -0.8060450    -1.5725570
  H        2.1878640    -1.8202610    -0.2948070
  H        3.8478330    -1.2217420    -0.1555610
  H        3.4181100     1.6939920    -1.0681710
  H        3.0282660     2.3570280     0.5308300
  H        4.3384750     1.1791220     0.3530350
  H       -2.8783840    -0.8196920    -0.9355340
  H       -2.9674710    -0.6619300     0.8385710
  H       -3.8496394     1.6502452     0.6104121
  H       -3.7534550     1.5250040    -1.1701160
  H       -4.8990420     0.5201230    -0.2596090
units angstrom
no_reorient  #important for SAPT in psi4, default
symmetry c1  #important for SAPT in psi4, default
}

set PROPERTIES_ORIGIN ["COM"]
properties('MP2/aug-cc-pvtz', properties = ['dipole'])
--------------------------------------------------------------------------

    Molecular point group: c1
  Charge       = 0
  Multiplicity = 1
  Basis Set: AUG-CC-PVTZ
    Blend: AUG-CC-PVTZ
  Basis Set: (AUG-CC-PVTZ AUX)
    Blend: AUG-CC-PVTZ-JKFIT

    Orbital Energies [Eh]
    ---------------------

    Doubly Occupied:

       1A    -92.213818     2A    -20.614870     3A    -20.553659
       4A    -20.553533     5A    -11.301776     6A    -11.278114
       7A    -11.251482     8A    -11.233081     9A    -11.229520
      10A    -11.218609    11A     -9.178066    12A     -6.863521
      13A     -6.862076    14A     -6.861902    15A     -1.481017
      16A     -1.375062    17A     -1.337407    18A     -1.120929
      19A     -1.051610    20A     -0.996752    21A     -0.942336
      22A     -0.876909    23A     -0.830629    24A     -0.788028
      25A     -0.725198    26A     -0.693005    27A     -0.690608
      28A     -0.656925    29A     -0.635143    30A     -0.616104
      31A     -0.606413    32A     -0.586708    33A     -0.567488
      34A     -0.559524    35A     -0.554549    36A     -0.543469
      37A     -0.536701    38A     -0.510031    39A     -0.499903
      40A     -0.497101    41A     -0.490514    42A     -0.485437
      43A     -0.482566    44A     -0.463321    45A     -0.453644

  @DF-RHF Final Energy:  -857.62646389121085

   => Energetics <=

    Nuclear Repulsion Energy =            722.5837272111346010
    One-Electron Energy =               -2612.6822680180416683
    Two-Electron Energy =                1032.4720769156963343
    Total Energy =                       -857.6264638912107330
  Basis Set: (AUG-CC-PVTZ AUX)
    Blend: AUG-CC-PVTZ-RI
    Molecular point group: c1

    Geometry (in Angstrom), charge = 0, multiplicity = 1:

       Center              X                  Y                   Z               Mass
    ------------   -----------------  -----------------  -----------------  -----------------
         S           -0.263391518948    -0.398607703451     0.148144587828    31.972071174400
         O           -1.534520518948     0.604828296549    -0.118428412172    15.994914619570
         O           -0.319554518948    -1.483724703451    -0.833807412172    15.994914619570
         O           -0.184706518948    -0.717616703451     1.574675587828    15.994914619570
         C            2.393435481052     0.338514296549     0.204652587828    12.000000000000
         C            1.005412481052     0.785817296549    -0.260036412172    12.000000000000
         C            2.869299481052    -0.927425703451    -0.506565412172    12.000000000000
         C            3.372294481052     1.491323296549    -0.019735412172    12.000000000000
         C           -2.827668518948    -0.075824703451    -0.119344412172    12.000000000000
         C           -3.870901518948     1.007410296549    -0.259102412172    12.000000000000
         H            2.329607481052     0.138134296549     1.280734587828     1.007825032230
         H            0.963341481052     0.927884296549    -1.344565412172     1.007825032230
         H            0.705763481052     1.715375296549     0.232952587828     1.007825032230
         H            2.900412481052    -0.768566703451    -1.589991412172     1.007825032230
         H            2.219132481052    -1.782782703451    -0.312241412172     1.007825032230
         H            3.879101481052    -1.184263703451    -0.172995412172     1.007825032230
         H            3.449378481052     1.731470296549    -1.085605412172     1.007825032230
         H            3.059534481052     2.394506296549     0.513395587828     1.007825032230
         H            4.369743481052     1.216600296549     0.335600587828     1.007825032230
         H           -2.847115518948    -0.782213703451    -0.952968412172     1.007825032230
         H           -2.936202518948    -0.624451703451     0.821136587828     1.007825032230
         H           -3.818370918948     1.687723496549     0.592977687828     1.007825032230
         H           -3.722186518948     1.562482296549    -1.187550412172     1.007825032230
         H           -4.867773518948     0.557601296549    -0.277043412172     1.007825032230

  Basis Set: AUG-CC-PVTZ
    Blend: AUG-CC-PVTZ
  Basis Set: (AUG-CC-PVTZ AUX)
    Blend: AUG-CC-PVTZ-JKFIT
	 Reference Energy          =    -857.6264638912108467 [Eh]
	 Singles Energy            =      -0.0000000000000000 [Eh]
	 Same-Spin Energy          =      -0.5252967833874348 [Eh]
	 Opposite-Spin Energy      =      -1.6808144423739533 [Eh]
	 Correlation Energy        =      -2.2061112257613882 [Eh]
	 Total Energy              =    -859.8325751169721798 [Eh]

	 ================> DF-SCS-MP2 Energies <==================
	-----------------------------------------------------------
	 SCS Same-Spin Scale       =       0.3333333333333333 [-]
	 SCS Opposite-Spin Scale   =       1.2000000000000000 [-]
	 SCS Same-Spin Energy      =      -0.1750989277958116 [Eh]
	 SCS Opposite-Spin Energy  =      -2.0169773308487438 [Eh]
	 SCS Correlation Energy    =      -2.1920762586445552 [Eh]
	 SCS Total Energy          =    -859.8185401498553802 [Eh]
	-----------------------------------------------------------

  Dipole Moment: [D]
     X:    -0.0698      Y:     2.7053      Z:    -1.0421     Total:     2.8999

*** Psi4 exiting successfully. Buy a developer a beer!
