                               Psi4 1.4a3.dev225

  ==> Input File <==

--------------------------------------------------------------------------
#psi4
#
memory 32 gb

molecule  {
0 1
  S       -0.2946600    -0.4360860     0.1655790
  O       -1.5657890     0.5673500    -0.1009940
  O       -0.3508230    -1.5212030    -0.8163730
  O       -0.2159750    -0.7550950     1.5921100
  C        2.3621670     0.3010360     0.2220870
  C        0.9741440     0.7483390    -0.2426020
  C        2.8380310    -0.9649040    -0.4891310
  C        3.3410260     1.4538450    -0.0023010
  C       -2.8589370    -0.1133030    -0.1019100
  C       -3.9021700     0.9699320    -0.2416680
  H        2.2983390     0.1006560     1.2981690
  H        0.9320730     0.8904060    -1.3271310
  H        0.6744950     1.6778970     0.2503870
  H        2.8691440    -0.8060450    -1.5725570
  H        2.1878640    -1.8202610    -0.2948070
  H        3.8478330    -1.2217420    -0.1555610
  H        3.4181100     1.6939920    -1.0681710
  H        3.0282660     2.3570280     0.5308300
  H        4.3384750     1.1791220     0.3530350
  H       -2.8783840    -0.8196920    -0.9355340
  H       -2.9674710    -0.6619300     0.8385710
  H       -3.8465560     1.6647390     0.5984370
  H       -3.7534550     1.5250040    -1.1701160
  H       -4.7167656     0.6023698    -0.2563285
units angstrom
no_reorient  #important for SAPT in psi4, default
symmetry c1  #important for SAPT in psi4, default
}

set PROPERTIES_ORIGIN ["COM"]
properties('MP2/aug-cc-pvtz', properties = ['dipole'])
--------------------------------------------------------------------------

    Molecular point group: c1
  Charge       = 0
  Multiplicity = 1
  Basis Set: AUG-CC-PVTZ
    Blend: AUG-CC-PVTZ
  Basis Set: (AUG-CC-PVTZ AUX)
    Blend: AUG-CC-PVTZ-JKFIT

    Orbital Energies [Eh]
    ---------------------

    Doubly Occupied:

       1A    -92.213114     2A    -20.614010     3A    -20.553126
       4A    -20.552972     5A    -11.300760     6A    -11.277619
       7A    -11.251126     8A    -11.229228     9A    -11.218321
      10A    -11.208319    11A     -9.177377    12A     -6.862825
      13A     -6.861394    14A     -6.861220    15A     -1.480317
      16A     -1.374203    17A     -1.336884    18A     -1.120604
      19A     -1.062037    20A     -1.001160    21A     -0.942044
      22A     -0.890978    23A     -0.831564    24A     -0.787922
      25A     -0.727754    26A     -0.692175    27A     -0.690147
      28A     -0.656236    29A     -0.634787    30A     -0.619341
      31A     -0.612191    32A     -0.594782    33A     -0.581327
      34A     -0.558992    35A     -0.557817    36A     -0.544058
      37A     -0.537940    38A     -0.509611    39A     -0.499366
      40A     -0.496320    41A     -0.490116    42A     -0.484956
      43A     -0.482200    44A     -0.462763    45A     -0.453578

  @DF-RHF Final Energy:  -857.59226183093131

   => Energetics <=

    Nuclear Repulsion Energy =            723.6512466519732243
    One-Electron Energy =               -2614.6958510779550124
    Two-Electron Energy =                1033.4523425950503679
    Total Energy =                       -857.5922618309314203
  Basis Set: (AUG-CC-PVTZ AUX)
    Blend: AUG-CC-PVTZ-RI
    Molecular point group: c1

    Geometry (in Angstrom), charge = 0, multiplicity = 1:

       Center              X                  Y                   Z               Mass
    ------------   -----------------  -----------------  -----------------  -----------------
         S           -0.264516432147    -0.399194803662     0.148197353694    31.972071174400
         O           -1.535645432147     0.604241196338    -0.118375646306    15.994914619570
         O           -0.320679432147    -1.484311803662    -0.833754646306    15.994914619570
         O           -0.185831432147    -0.718203803662     1.574728353694    15.994914619570
         C            2.392310567853     0.337927196338     0.204705353694    12.000000000000
         C            1.004287567853     0.785230196338    -0.259983646306    12.000000000000
         C            2.868174567853    -0.928012803662    -0.506512646306    12.000000000000
         C            3.371169567853     1.490736196338    -0.019682646306    12.000000000000
         C           -2.828793432147    -0.076411803662    -0.119291646306    12.000000000000
         C           -3.872026432147     1.006823196338    -0.259049646306    12.000000000000
         H            2.328482567853     0.137547196338     1.280787353694     1.007825032230
         H            0.962216567853     0.927297196338    -1.344512646306     1.007825032230
         H            0.704638567853     1.714788196338     0.233005353694     1.007825032230
         H            2.899287567853    -0.769153803662    -1.589938646306     1.007825032230
         H            2.218007567853    -1.783369803662    -0.312188646306     1.007825032230
         H            3.877976567853    -1.184850803662    -0.172942646306     1.007825032230
         H            3.448253567853     1.730883196338    -1.085552646306     1.007825032230
         H            3.058409567853     2.393919196338     0.513448353694     1.007825032230
         H            4.368618567853     1.216013196338     0.335653353694     1.007825032230
         H           -2.848240432147    -0.782800803662    -0.952915646306     1.007825032230
         H           -2.937327432147    -0.625038803662     0.821189353694     1.007825032230
         H           -3.816412432147     1.701630196338     0.581055353694     1.007825032230
         H           -3.723311432147     1.561895196338    -1.187497646306     1.007825032230
         H           -4.686622032147     0.639260996338    -0.273710146306     1.007825032230

  Basis Set: AUG-CC-PVTZ
    Blend: AUG-CC-PVTZ
  Basis Set: (AUG-CC-PVTZ AUX)
    Blend: AUG-CC-PVTZ-JKFIT
	 Reference Energy          =    -857.5922618309313066 [Eh]
	 Singles Energy            =      -0.0000000000000000 [Eh]
	 Same-Spin Energy          =      -0.5254824845452397 [Eh]
	 Opposite-Spin Energy      =      -1.6803100202111425 [Eh]
	 Correlation Energy        =      -2.2057925047563822 [Eh]
	 Total Energy              =    -859.7980543356876524 [Eh]

	 ================> DF-SCS-MP2 Energies <==================
	-----------------------------------------------------------
	 SCS Same-Spin Scale       =       0.3333333333333333 [-]
	 SCS Opposite-Spin Scale   =       1.2000000000000000 [-]
	 SCS Same-Spin Energy      =      -0.1751608281817466 [Eh]
	 SCS Opposite-Spin Energy  =      -2.0163720242533709 [Eh]
	 SCS Correlation Energy    =      -2.1915328524351176 [Eh]
	 SCS Total Energy          =    -859.7837946833664091 [Eh]
	-----------------------------------------------------------

  Dipole Moment: [D]
     X:    -0.1449      Y:     2.6982      Z:    -1.0479     Total:     2.8982

*** Psi4 exiting successfully. Buy a developer a beer!
