                               Psi4 1.4a3.dev225

  ==> Input File <==

--------------------------------------------------------------------------
#psi4
#
memory 32 gb

molecule  {
0 1
  S       -0.2946600    -0.4360860     0.1655790
  O       -1.5657890     0.5673500    -0.1009940
  O       -0.3508230    -1.5212030    -0.8163730
  O       -0.2159750    -0.7550950     1.5921100
  C        2.3027565     0.2999324     0.3708669
  C        0.9741440     0.7483390    -0.2426020
  C        2.8380310    -0.9649040    -0.4891310
  C        3.3410260     1.4538450    -0.0023010
  C       -2.8589370    -0.1133030    -0.1019100
  C       -3.9021700     0.9699320    -0.2416680
  H        2.2983390     0.1006560     1.2981690
  H        0.9320730     0.8904060    -1.3271310
  H        0.6744950     1.6778970     0.2503870
  H        2.8691440    -0.8060450    -1.5725570
  H        2.1878640    -1.8202610    -0.2948070
  H        3.8478330    -1.2217420    -0.1555610
  H        3.4181100     1.6939920    -1.0681710
  H        3.0282660     2.3570280     0.5308300
  H        4.3384750     1.1791220     0.3530350
  H       -2.8783840    -0.8196920    -0.9355340
  H       -2.9674710    -0.6619300     0.8385710
  H       -3.8465560     1.6647390     0.5984370
  H       -3.7534550     1.5250040    -1.1701160
  H       -4.8990420     0.5201230    -0.2596090
units angstrom
no_reorient  #important for SAPT in psi4, default
symmetry c1  #important for SAPT in psi4, default
}

set PROPERTIES_ORIGIN ["COM"]
properties('MP2/aug-cc-pvtz', properties = ['dipole'])
--------------------------------------------------------------------------

    Molecular point group: c1
  Charge       = 0
  Multiplicity = 1
  Basis Set: AUG-CC-PVTZ
    Blend: AUG-CC-PVTZ
  Basis Set: (AUG-CC-PVTZ AUX)
    Blend: AUG-CC-PVTZ-JKFIT

    Orbital Energies [Eh]
    ---------------------

    Doubly Occupied:

       1A    -92.212322     2A    -20.613820     3A    -20.553922
       4A    -20.553329     5A    -11.301178     6A    -11.280318
       7A    -11.248899     8A    -11.232629     9A    -11.232323
      10A    -11.221251    11A     -9.176819    12A     -6.862278
      13A     -6.860741    14A     -6.860638    15A     -1.480676
      16A     -1.374591    17A     -1.337483    18A     -1.115072
      19A     -1.049250    20A     -0.990571    21A     -0.930021
      22A     -0.877198    23A     -0.836208    24A     -0.811675
      25A     -0.724632    26A     -0.693621    27A     -0.689886
      28A     -0.654009    29A     -0.635612    30A     -0.609789
      31A     -0.605737    32A     -0.585345    33A     -0.567216
      34A     -0.558536    35A     -0.554149    36A     -0.542126
      37A     -0.535186    38A     -0.529248    39A     -0.505878
      40A     -0.496977    41A     -0.494041    42A     -0.485953
      43A     -0.466080    44A     -0.462192    45A     -0.438499

  @DF-RHF Final Energy:  -857.59536113480351

   => Energetics <=

    Nuclear Repulsion Energy =            722.2980769164778394
    One-Electron Energy =               -2612.0910296510446642
    Two-Electron Energy =                1032.1975915997632001
    Total Energy =                       -857.5953611348036247
  Basis Set: (AUG-CC-PVTZ AUX)
    Blend: AUG-CC-PVTZ-RI
    Molecular point group: c1

    Geometry (in Angstrom), charge = 0, multiplicity = 1:

       Center              X                  Y                   Z               Mass
    ------------   -----------------  -----------------  -----------------  -----------------
         S           -0.259117212889    -0.398615917121     0.137466387042    31.972071174400
         O           -1.530246212889     0.604820082879    -0.129106612958    15.994914619570
         O           -0.315280212889    -1.483732917121    -0.844485612958    15.994914619570
         O           -0.180432212889    -0.717624917121     1.563997387042    15.994914619570
         C            2.338299287111     0.337402482879     0.342754287042    12.000000000000
         C            1.009686787111     0.785809082879    -0.270714612958    12.000000000000
         C            2.873573787111    -0.927433917121    -0.517243612958    12.000000000000
         C            3.376568787111     1.491315082879    -0.030413612958    12.000000000000
         C           -2.823394212889    -0.075832917121    -0.130022612958    12.000000000000
         C           -3.866627212889     1.007402082879    -0.269780612958    12.000000000000
         H            2.333881787111     0.138126082879     1.270056387042     1.007825032230
         H            0.967615787111     0.927876082879    -1.355243612958     1.007825032230
         H            0.710037787111     1.715367082879     0.222274387042     1.007825032230
         H            2.904686787111    -0.768574917121    -1.600669612958     1.007825032230
         H            2.223406787111    -1.782790917121    -0.322919612958     1.007825032230
         H            3.883375787111    -1.184271917121    -0.183673612958     1.007825032230
         H            3.453652787111     1.731462082879    -1.096283612958     1.007825032230
         H            3.063808787111     2.394498082879     0.502717387042     1.007825032230
         H            4.374017787111     1.216592082879     0.324922387042     1.007825032230
         H           -2.842841212889    -0.782221917121    -0.963646612958     1.007825032230
         H           -2.931928212889    -0.624459917121     0.810458387042     1.007825032230
         H           -3.811013212889     1.702209082879     0.570324387042     1.007825032230
         H           -3.717912212889     1.562474082879    -1.198228612958     1.007825032230
         H           -4.863499212889     0.557593082879    -0.287721612958     1.007825032230

  Basis Set: AUG-CC-PVTZ
    Blend: AUG-CC-PVTZ
  Basis Set: (AUG-CC-PVTZ AUX)
    Blend: AUG-CC-PVTZ-JKFIT
	 Reference Energy          =    -857.5953611348035110 [Eh]
	 Singles Energy            =      -0.0000000000000000 [Eh]
	 Same-Spin Energy          =      -0.5250594000731482 [Eh]
	 Opposite-Spin Energy      =      -1.6817512054436747 [Eh]
	 Correlation Energy        =      -2.2068106055168228 [Eh]
	 Total Energy              =    -859.8021717403203183 [Eh]

	 ================> DF-SCS-MP2 Energies <==================
	-----------------------------------------------------------
	 SCS Same-Spin Scale       =       0.3333333333333333 [-]
	 SCS Opposite-Spin Scale   =       1.2000000000000000 [-]
	 SCS Same-Spin Energy      =      -0.1750198000243827 [Eh]
	 SCS Opposite-Spin Energy  =      -2.0181014465324094 [Eh]
	 SCS Correlation Energy    =      -2.1931212465567920 [Eh]
	 SCS Total Energy          =    -859.7884823813602679 [Eh]
	-----------------------------------------------------------

  Dipole Moment: [D]
     X:    -0.0537      Y:     2.7425      Z:    -1.0469     Total:     2.9360

*** Psi4 exiting successfully. Buy a developer a beer!
