                               Psi4 1.4a3.dev225

  ==> Input File <==

--------------------------------------------------------------------------
#psi4
#
memory 32 gb

molecule  {
0 1
  S       -0.2946600    -0.4360860     0.1655790
  O       -1.5657890     0.5673500    -0.1009940
  O       -0.3508230    -1.5212030    -0.8163730
  O       -0.2159750    -0.7550950     1.5921100
  C        2.3635620     0.4311488     0.3155482
  C        0.9741440     0.7483390    -0.2426020
  C        2.8380310    -0.9649040    -0.4891310
  C        3.3410260     1.4538450    -0.0023010
  C       -2.8589370    -0.1133030    -0.1019100
  C       -3.9021700     0.9699320    -0.2416680
  H        2.2983390     0.1006560     1.2981690
  H        0.9320730     0.8904060    -1.3271310
  H        0.6744950     1.6778970     0.2503870
  H        2.8691440    -0.8060450    -1.5725570
  H        2.1878640    -1.8202610    -0.2948070
  H        3.8478330    -1.2217420    -0.1555610
  H        3.4181100     1.6939920    -1.0681710
  H        3.0282660     2.3570280     0.5308300
  H        4.3384750     1.1791220     0.3530350
  H       -2.8783840    -0.8196920    -0.9355340
  H       -2.9674710    -0.6619300     0.8385710
  H       -3.8465560     1.6647390     0.5984370
  H       -3.7534550     1.5250040    -1.1701160
  H       -4.8990420     0.5201230    -0.2596090
units angstrom
no_reorient  #important for SAPT in psi4, default
symmetry c1  #important for SAPT in psi4, default
}

set PROPERTIES_ORIGIN ["COM"]
properties('MP2/aug-cc-pvtz', properties = ['dipole'])
--------------------------------------------------------------------------

    Molecular point group: c1
  Charge       = 0
  Multiplicity = 1
  Basis Set: AUG-CC-PVTZ
    Blend: AUG-CC-PVTZ
  Basis Set: (AUG-CC-PVTZ AUX)
    Blend: AUG-CC-PVTZ-JKFIT

    Orbital Energies [Eh]
    ---------------------

    Doubly Occupied:

       1A    -92.215883     2A    -20.615988     3A    -20.554171
       4A    -20.554102     5A    -11.302496     6A    -11.278238
       7A    -11.251397     8A    -11.233423     9A    -11.227809
      10A    -11.220327    11A     -9.179850    12A     -6.865294
      13A     -6.863946    14A     -6.863717    15A     -1.481746
      16A     -1.375789    17A     -1.337970    18A     -1.121097
      19A     -1.052378    20A     -0.999277    21A     -0.931115
      22A     -0.878150    23A     -0.833160    24A     -0.796779
      25A     -0.726100    26A     -0.694248    27A     -0.691394
      28A     -0.654904    29A     -0.633512    30A     -0.612784
      31A     -0.609496    32A     -0.587285    33A     -0.575217
      34A     -0.562935    35A     -0.556176    36A     -0.540815
      37A     -0.538690    38A     -0.519127    39A     -0.503346
      40A     -0.500694    41A     -0.494115    42A     -0.487572
      43A     -0.466065    44A     -0.462081    45A     -0.432595

  @DF-RHF Final Energy:  -857.60449638605610

   => Energetics <=

    Nuclear Repulsion Energy =            721.6770333835069096
    One-Electron Energy =               -2610.7965563122143067
    Two-Electron Energy =                1031.5150265426511851
    Total Energy =                       -857.6044963860560983
  Basis Set: (AUG-CC-PVTZ AUX)
    Blend: AUG-CC-PVTZ-RI
    Molecular point group: c1

    Geometry (in Angstrom), charge = 0, multiplicity = 1:

       Center              X                  Y                   Z               Mass
    ------------   -----------------  -----------------  -----------------  -----------------
         S           -0.263511034587    -0.408097649292     0.141463731104    31.972071174400
         O           -1.534640034587     0.595338350708    -0.125109268896    15.994914619570
         O           -0.319674034587    -1.493214649292    -0.840488268896    15.994914619570
         O           -0.184826034587    -0.727106649292     1.567994731104    15.994914619570
         C            2.394710965413     0.459137150708     0.291432931104    12.000000000000
         C            1.005292965413     0.776327350708    -0.266717268896    12.000000000000
         C            2.869179965413    -0.936915649292    -0.513246268896    12.000000000000
         C            3.372174965413     1.481833350708    -0.026416268896    12.000000000000
         C           -2.827788034587    -0.085314649292    -0.126025268896    12.000000000000
         C           -3.871021034587     0.997920350708    -0.265783268896    12.000000000000
         H            2.329487965413     0.128644350708     1.274053731104     1.007825032230
         H            0.963221965413     0.918394350708    -1.351246268896     1.007825032230
         H            0.705643965413     1.705885350708     0.226271731104     1.007825032230
         H            2.900292965413    -0.778056649292    -1.596672268896     1.007825032230
         H            2.219012965413    -1.792272649292    -0.318922268896     1.007825032230
         H            3.878981965413    -1.193753649292    -0.179676268896     1.007825032230
         H            3.449258965413     1.721980350708    -1.092286268896     1.007825032230
         H            3.059414965413     2.385016350708     0.506714731104     1.007825032230
         H            4.369623965413     1.207110350708     0.328919731104     1.007825032230
         H           -2.847235034587    -0.791703649292    -0.959649268896     1.007825032230
         H           -2.936322034587    -0.633941649292     0.814455731104     1.007825032230
         H           -3.815407034587     1.692727350708     0.574321731104     1.007825032230
         H           -3.722306034587     1.552992350708    -1.194231268896     1.007825032230
         H           -4.867893034587     0.548111350708    -0.283724268896     1.007825032230

  Basis Set: AUG-CC-PVTZ
    Blend: AUG-CC-PVTZ
  Basis Set: (AUG-CC-PVTZ AUX)
    Blend: AUG-CC-PVTZ-JKFIT
	 Reference Energy          =    -857.6044963860560983 [Eh]
	 Singles Energy            =      -0.0000000000000000 [Eh]
	 Same-Spin Energy          =      -0.5256659848412255 [Eh]
	 Opposite-Spin Energy      =      -1.6820362008603855 [Eh]
	 Correlation Energy        =      -2.2077021857016108 [Eh]
	 Total Energy              =    -859.8121985717576763 [Eh]

	 ================> DF-SCS-MP2 Energies <==================
	-----------------------------------------------------------
	 SCS Same-Spin Scale       =       0.3333333333333333 [-]
	 SCS Opposite-Spin Scale   =       1.2000000000000000 [-]
	 SCS Same-Spin Energy      =      -0.1752219949470752 [Eh]
	 SCS Opposite-Spin Energy  =      -2.0184434410324625 [Eh]
	 SCS Correlation Energy    =      -2.1936654359795376 [Eh]
	 SCS Total Energy          =    -859.7981618220355813 [Eh]
	-----------------------------------------------------------

  Dipole Moment: [D]
     X:    -0.1153      Y:     2.7933      Z:    -1.0140     Total:     2.9739

*** Psi4 exiting successfully. Buy a developer a beer!
