                               Psi4 1.4a3.dev225

  ==> Input File <==

--------------------------------------------------------------------------
#psi4
#
memory 32 gb

molecule  {
0 1
  S       -0.2946600    -0.4360860     0.1655790
  O       -1.5657890     0.5673500    -0.1009940
  O       -0.3508230    -1.5212030    -0.8163730
  O       -0.2159750    -0.7550950     1.5921100
  C        2.3533058     0.3005107     0.2472820
  C        0.9741440     0.7483390    -0.2426020
  C        2.8380310    -0.9649040    -0.4891310
  C        3.3410260     1.4538450    -0.0023010
  C       -2.8589370    -0.1133030    -0.1019100
  C       -3.9021700     0.9699320    -0.2416680
  H        2.2983390     0.1006560     1.2981690
  H        0.9320730     0.8904060    -1.3271310
  H        0.6744950     1.6778970     0.2503870
  H        2.8691440    -0.8060450    -1.5725570
  H        2.1878640    -1.8202610    -0.2948070
  H        3.8478330    -1.2217420    -0.1555610
  H        3.4181100     1.6939920    -1.0681710
  H        3.0282660     2.3570280     0.5308300
  H        4.3384750     1.1791220     0.3530350
  H       -2.8783840    -0.8196920    -0.9355340
  H       -2.9674710    -0.6619300     0.8385710
  H       -3.8465560     1.6647390     0.5984370
  H       -3.7534550     1.5250040    -1.1701160
  H       -4.8990420     0.5201230    -0.2596090
units angstrom
no_reorient  #important for SAPT in psi4, default
symmetry c1  #important for SAPT in psi4, default
}

set PROPERTIES_ORIGIN ["COM"]
properties('MP2/aug-cc-pvtz', properties = ['dipole'])
--------------------------------------------------------------------------

    Molecular point group: c1
  Charge       = 0
  Multiplicity = 1
  Basis Set: AUG-CC-PVTZ
    Blend: AUG-CC-PVTZ
  Basis Set: (AUG-CC-PVTZ AUX)
    Blend: AUG-CC-PVTZ-JKFIT

    Orbital Energies [Eh]
    ---------------------

    Doubly Occupied:

       1A    -92.213561     2A    -20.614707     3A    -20.553610
       4A    -20.553586     5A    -11.301783     6A    -11.278235
       7A    -11.250686     8A    -11.232959     9A    -11.229789
      10A    -11.218909    11A     -9.177850    12A     -6.863306
      13A     -6.861846    14A     -6.861684    15A     -1.480959
      16A     -1.374987    17A     -1.337418    18A     -1.119691
      19A     -1.051110    20A     -0.995675    21A     -0.940130
      22A     -0.876951    23A     -0.831053    24A     -0.791806
      25A     -0.725079    26A     -0.692786    27A     -0.690732
      28A     -0.656244    29A     -0.634948    30A     -0.614621
      31A     -0.606478    32A     -0.586472    33A     -0.567208
      34A     -0.558837    35A     -0.554540    36A     -0.543109
      37A     -0.537057    38A     -0.509136    39A     -0.499784
      40A     -0.498367    41A     -0.490380    42A     -0.486317
      43A     -0.484231    44A     -0.463302    45A     -0.452160

  @DF-RHF Final Energy:  -857.62602355523404

   => Energetics <=

    Nuclear Repulsion Energy =            722.5259307129927038
    One-Electron Energy =               -2612.5757492228945011
    Two-Electron Energy =                1032.4237949546677555
    Total Energy =                       -857.6260235552340419
  Basis Set: (AUG-CC-PVTZ AUX)
    Blend: AUG-CC-PVTZ-RI
    Molecular point group: c1

    Geometry (in Angstrom), charge = 0, multiplicity = 1:

       Center              X                  Y                   Z               Mass
    ------------   -----------------  -----------------  -----------------  -----------------
         S           -0.262769918831    -0.398657705234     0.146396664980    31.972071174400
         O           -1.533898918831     0.604778294766    -0.120176335020    15.994914619570
         O           -0.318932918831    -1.483774705234    -0.835555335020    15.994914619570
         O           -0.184084918831    -0.717666705234     1.572927664980    15.994914619570
         C            2.385195881169     0.337938994766     0.228099664980    12.000000000000
         C            1.006034081169     0.785767294766    -0.261784335020    12.000000000000
         C            2.869921081169    -0.927475705234    -0.508313335020    12.000000000000
         C            3.372916081169     1.491273294766    -0.021483335020    12.000000000000
         C           -2.827046918831    -0.075874705234    -0.121092335020    12.000000000000
         C           -3.870279918831     1.007360294766    -0.260850335020    12.000000000000
         H            2.330229081169     0.138084294766     1.278986664980     1.007825032230
         H            0.963963081169     0.927834294766    -1.346313335020     1.007825032230
         H            0.706385081169     1.715325294766     0.231204664980     1.007825032230
         H            2.901034081169    -0.768616705234    -1.591739335020     1.007825032230
         H            2.219754081169    -1.782832705234    -0.313989335020     1.007825032230
         H            3.879723081169    -1.184313705234    -0.174743335020     1.007825032230
         H            3.450000081169     1.731420294766    -1.087353335020     1.007825032230
         H            3.060156081169     2.394456294766     0.511647664980     1.007825032230
         H            4.370365081169     1.216550294766     0.333852664980     1.007825032230
         H           -2.846493918831    -0.782263705234    -0.954716335020     1.007825032230
         H           -2.935580918831    -0.624501705234     0.819388664980     1.007825032230
         H           -3.814665918831     1.702167294766     0.579254664980     1.007825032230
         H           -3.721564918831     1.562432294766    -1.189298335020     1.007825032230
         H           -4.867151918831     0.557551294766    -0.278791335020     1.007825032230

  Basis Set: AUG-CC-PVTZ
    Blend: AUG-CC-PVTZ
  Basis Set: (AUG-CC-PVTZ AUX)
    Blend: AUG-CC-PVTZ-JKFIT
	 Reference Energy          =    -857.6260235552340419 [Eh]
	 Singles Energy            =      -0.0000000000000000 [Eh]
	 Same-Spin Energy          =      -0.5251569886757825 [Eh]
	 Opposite-Spin Energy      =      -1.6806938425375908 [Eh]
	 Correlation Energy        =      -2.2058508312133736 [Eh]
	 Total Energy              =    -859.8318743864474527 [Eh]

	 ================> DF-SCS-MP2 Energies <==================
	-----------------------------------------------------------
	 SCS Same-Spin Scale       =       0.3333333333333333 [-]
	 SCS Opposite-Spin Scale   =       1.2000000000000000 [-]
	 SCS Same-Spin Energy      =      -0.1750523295585942 [Eh]
	 SCS Opposite-Spin Energy  =      -2.0168326110451087 [Eh]
	 SCS Correlation Energy    =      -2.1918849406037029 [Eh]
	 SCS Total Energy          =    -859.8179084958377416 [Eh]
	-----------------------------------------------------------

  Dipole Moment: [D]
     X:    -0.0628      Y:     2.7142      Z:    -1.0411     Total:     2.9077

*** Psi4 exiting successfully. Buy a developer a beer!
