                               Psi4 1.4a3.dev225

  ==> Input File <==

--------------------------------------------------------------------------
#psi4
#
memory 32 gb

molecule  {
0 1
  S       -0.2946600    -0.4360860     0.1655790
  O       -1.7206863     0.6896268    -0.1334781
  O       -0.3508230    -1.5212030    -0.8163730
  O       -0.2159750    -0.7550950     1.5921100
  C        2.3621670     0.3010360     0.2220870
  C        0.9741440     0.7483390    -0.2426020
  C        2.8380310    -0.9649040    -0.4891310
  C        3.3410260     1.4538450    -0.0023010
  C       -2.8589370    -0.1133030    -0.1019100
  C       -3.9021700     0.9699320    -0.2416680
  H        2.2983390     0.1006560     1.2981690
  H        0.9320730     0.8904060    -1.3271310
  H        0.6744950     1.6778970     0.2503870
  H        2.8691440    -0.8060450    -1.5725570
  H        2.1878640    -1.8202610    -0.2948070
  H        3.8478330    -1.2217420    -0.1555610
  H        3.4181100     1.6939920    -1.0681710
  H        3.0282660     2.3570280     0.5308300
  H        4.3384750     1.1791220     0.3530350
  H       -2.8783840    -0.8196920    -0.9355340
  H       -2.9674710    -0.6619300     0.8385710
  H       -3.8465560     1.6647390     0.5984370
  H       -3.7534550     1.5250040    -1.1701160
  H       -4.8990420     0.5201230    -0.2596090
units angstrom
no_reorient  #important for SAPT in psi4, default
symmetry c1  #important for SAPT in psi4, default
}

set PROPERTIES_ORIGIN ["COM"]
properties('MP2/aug-cc-pvtz', properties = ['dipole'])
--------------------------------------------------------------------------

    Molecular point group: c1
  Charge       = 0
  Multiplicity = 1
  Basis Set: AUG-CC-PVTZ
    Blend: AUG-CC-PVTZ
  Basis Set: (AUG-CC-PVTZ AUX)
    Blend: AUG-CC-PVTZ-JKFIT

    Orbital Energies [Eh]
    ---------------------

    Doubly Occupied:

       1A    -92.221147     2A    -20.609602     3A    -20.571434
       4A    -20.570992     5A    -11.288141     6A    -11.281133
       7A    -11.258585     8A    -11.234693     9A    -11.224429
      10A    -11.218460    11A     -9.186179    12A     -6.871175
      13A     -6.869692    14A     -6.869674    15A     -1.468719
      16A     -1.373009    17A     -1.349881    18A     -1.127726
      19A     -1.032165    20A     -0.996903    21A     -0.947934
      22A     -0.860141    23A     -0.837422    24A     -0.791716
      25A     -0.719800    26A     -0.692452    27A     -0.684756
      28A     -0.662413    29A     -0.641275    30A     -0.619258
      31A     -0.610067    32A     -0.593417    33A     -0.566579
      34A     -0.554158    35A     -0.549127    36A     -0.542375
      37A     -0.533904    38A     -0.518093    39A     -0.501336
      40A     -0.500098    41A     -0.493564    42A     -0.486316
      43A     -0.485109    44A     -0.464072    45A     -0.441614

  @DF-RHF Final Energy:  -857.59024177734261

   => Energetics <=

    Nuclear Repulsion Energy =            716.9774014101504918
    One-Electron Energy =               -2601.2938065112793993
    Two-Electron Energy =                1026.7261633237865226
    Total Energy =                       -857.5902417773424986
  Basis Set: (AUG-CC-PVTZ AUX)
    Blend: AUG-CC-PVTZ-RI
    Molecular point group: c1

    Geometry (in Angstrom), charge = 0, multiplicity = 1:

       Center              X                  Y                   Z               Mass
    ------------   -----------------  -----------------  -----------------  -----------------
         S           -0.248491081082    -0.410472924832     0.151346014017    31.972071174400
         O           -1.674517381082     0.715239875168    -0.147711085983    15.994914619570
         O           -0.304654081082    -1.495589924832    -0.830605985983    15.994914619570
         O           -0.169806081082    -0.729481924832     1.577877014017    15.994914619570
         C            2.408335918918     0.326649075168     0.207854014017    12.000000000000
         C            1.020312918918     0.773952075168    -0.256834985983    12.000000000000
         C            2.884199918918    -0.939290924832    -0.503363985983    12.000000000000
         C            3.387194918918     1.479458075168    -0.016533985983    12.000000000000
         C           -2.812768081082    -0.087689924832    -0.116142985983    12.000000000000
         C           -3.856001081082     0.995545075168    -0.255900985983    12.000000000000
         H            2.344507918918     0.126269075168     1.283936014017     1.007825032230
         H            0.978241918918     0.916019075168    -1.341363985983     1.007825032230
         H            0.720663918918     1.703510075168     0.236154014017     1.007825032230
         H            2.915312918918    -0.780431924832    -1.586789985983     1.007825032230
         H            2.234032918918    -1.794647924832    -0.309039985983     1.007825032230
         H            3.894001918918    -1.196128924832    -0.169793985983     1.007825032230
         H            3.464278918918     1.719605075168    -1.082403985983     1.007825032230
         H            3.074434918918     2.382641075168     0.516597014017     1.007825032230
         H            4.384643918918     1.204735075168     0.338802014017     1.007825032230
         H           -2.832215081082    -0.794078924832    -0.949766985983     1.007825032230
         H           -2.921302081082    -0.636316924832     0.824338014017     1.007825032230
         H           -3.800387081082     1.690352075168     0.584204014017     1.007825032230
         H           -3.707286081082     1.550617075168    -1.184348985983     1.007825032230
         H           -4.852873081082     0.545736075168    -0.273841985983     1.007825032230

  Basis Set: AUG-CC-PVTZ
    Blend: AUG-CC-PVTZ
  Basis Set: (AUG-CC-PVTZ AUX)
    Blend: AUG-CC-PVTZ-JKFIT
	 Reference Energy          =    -857.5902417773426123 [Eh]
	 Singles Energy            =      -0.0000000000000000 [Eh]
	 Same-Spin Energy          =      -0.5297589966769707 [Eh]
	 Opposite-Spin Energy      =      -1.6915749432264069 [Eh]
	 Correlation Energy        =      -2.2213339399033778 [Eh]
	 Total Energy              =    -859.8115757172460007 [Eh]

	 ================> DF-SCS-MP2 Energies <==================
	-----------------------------------------------------------
	 SCS Same-Spin Scale       =       0.3333333333333333 [-]
	 SCS Opposite-Spin Scale   =       1.2000000000000000 [-]
	 SCS Same-Spin Energy      =      -0.1765863322256569 [Eh]
	 SCS Opposite-Spin Energy  =      -2.0298899318716881 [Eh]
	 SCS Correlation Energy    =      -2.2064762640973448 [Eh]
	 SCS Total Energy          =    -859.7967180414399309 [Eh]
	-----------------------------------------------------------

  Dipole Moment: [D]
     X:     1.3663      Y:     2.2292      Z:    -0.8816     Total:     2.7592

*** Psi4 exiting successfully. Buy a developer a beer!
