                               Psi4 1.4a3.dev225

  ==> Input File <==

--------------------------------------------------------------------------
#psi4
#
memory 32 gb

molecule  {
0 1
  S       -0.2946600    -0.4360860     0.1655790
  O       -1.5657890     0.5673500    -0.1009940
  O       -0.3508230    -1.5212030    -0.8163730
  O       -0.2159750    -0.7550950     1.5921100
  C        2.3621670     0.3010360     0.2220870
  C        0.9741440     0.7483390    -0.2426020
  C        2.8380310    -0.9649040    -0.4891310
  C        3.3410260     1.4538450    -0.0023010
  C       -2.8589370    -0.1133030    -0.1019100
  C       -3.9021700     0.9699320    -0.2416680
  H        2.2983390     0.1006560     1.2981690
  H        0.9320730     0.8904060    -1.3271310
  H        0.6744950     1.6778970     0.2503870
  H        2.8663038    -0.8205467    -1.4736549
  H        2.1878640    -1.8202610    -0.2948070
  H        3.8478330    -1.2217420    -0.1555610
  H        3.4181100     1.6939920    -1.0681710
  H        3.0282660     2.3570280     0.5308300
  H        4.3384750     1.1791220     0.3530350
  H       -2.8783840    -0.8196920    -0.9355340
  H       -2.9674710    -0.6619300     0.8385710
  H       -3.8465560     1.6647390     0.5984370
  H       -3.7534550     1.5250040    -1.1701160
  H       -4.8990420     0.5201230    -0.2596090
units angstrom
no_reorient  #important for SAPT in psi4, default
symmetry c1  #important for SAPT in psi4, default
}

set PROPERTIES_ORIGIN ["COM"]
properties('MP2/aug-cc-pvtz', properties = ['dipole'])
--------------------------------------------------------------------------

    Molecular point group: c1
  Charge       = 0
  Multiplicity = 1
  Basis Set: AUG-CC-PVTZ
    Blend: AUG-CC-PVTZ
  Basis Set: (AUG-CC-PVTZ AUX)
    Blend: AUG-CC-PVTZ-JKFIT

    Orbital Energies [Eh]
    ---------------------

    Doubly Occupied:

       1A    -92.213737     2A    -20.614829     3A    -20.553644
       4A    -20.553364     5A    -11.301867     6A    -11.278033
       7A    -11.250399     8A    -11.233001     9A    -11.229418
      10A    -11.205902    11A     -9.177983    12A     -6.863439
      13A     -6.861995    14A     -6.861819    15A     -1.480942
      16A     -1.374995    17A     -1.337319    18A     -1.121673
      19A     -1.051775    20A     -0.998039    21A     -0.948970
      22A     -0.877501    23A     -0.831303    24A     -0.791289
      25A     -0.725229    26A     -0.692865    27A     -0.690945
      28A     -0.656650    29A     -0.635445    30A     -0.616007
      31A     -0.607129    32A     -0.591536    33A     -0.567314
      34A     -0.561343    35A     -0.557409    36A     -0.547935
      37A     -0.537314    38A     -0.509675    39A     -0.499974
      40A     -0.497160    41A     -0.489969    42A     -0.485685
      43A     -0.484557    44A     -0.463248    45A     -0.453395

  @DF-RHF Final Energy:  -857.62044282051818

   => Energetics <=

    Nuclear Repulsion Energy =            723.0572971957823256
    One-Electron Energy =               -2613.5874388825745882
    Two-Electron Energy =                1032.9096988662740841
    Total Energy =                       -857.6204428205182921
  Basis Set: (AUG-CC-PVTZ AUX)
    Blend: AUG-CC-PVTZ-RI
    Molecular point group: c1

    Geometry (in Angstrom), charge = 0, multiplicity = 1:

       Center              X                  Y                   Z               Mass
    ------------   -----------------  -----------------  -----------------  -----------------
         S           -0.263392994883    -0.398607655507     0.147617044479    31.972071174400
         O           -1.534521994883     0.604828344493    -0.118955955521    15.994914619570
         O           -0.319555994883    -1.483724655507    -0.834334955521    15.994914619570
         O           -0.184707994883    -0.717616655507     1.574148044479    15.994914619570
         C            2.393434005117     0.338514344493     0.204125044479    12.000000000000
         C            1.005411005117     0.785817344493    -0.260563955521    12.000000000000
         C            2.869298005117    -0.927425655507    -0.507092955521    12.000000000000
         C            3.372293005117     1.491323344493    -0.020262955521    12.000000000000
         C           -2.827669994883    -0.075824655507    -0.119871955521    12.000000000000
         C           -3.870902994883     1.007410344493    -0.259629955521    12.000000000000
         H            2.329606005117     0.138134344493     1.280207044479     1.007825032230
         H            0.963340005117     0.927884344493    -1.345092955521     1.007825032230
         H            0.705762005117     1.715375344493     0.232425044479     1.007825032230
         H            2.897570805117    -0.783068355507    -1.491616855521     1.007825032230
         H            2.219131005117    -1.782782655507    -0.312768955521     1.007825032230
         H            3.879100005117    -1.184263655507    -0.173522955521     1.007825032230
         H            3.449377005117     1.731470344493    -1.086132955521     1.007825032230
         H            3.059533005117     2.394506344493     0.512868044479     1.007825032230
         H            4.369742005117     1.216600344493     0.335073044479     1.007825032230
         H           -2.847116994883    -0.782213655507    -0.953495955521     1.007825032230
         H           -2.936203994883    -0.624451655507     0.820609044479     1.007825032230
         H           -3.815288994883     1.702217344493     0.580475044479     1.007825032230
         H           -3.722187994883     1.562482344493    -1.188077955521     1.007825032230
         H           -4.867774994883     0.557601344493    -0.277570955521     1.007825032230

  Basis Set: AUG-CC-PVTZ
    Blend: AUG-CC-PVTZ
  Basis Set: (AUG-CC-PVTZ AUX)
    Blend: AUG-CC-PVTZ-JKFIT
	 Reference Energy          =    -857.6204428205181785 [Eh]
	 Singles Energy            =      -0.0000000000000000 [Eh]
	 Same-Spin Energy          =      -0.5253075480497333 [Eh]
	 Opposite-Spin Energy      =      -1.6803390415683876 [Eh]
	 Correlation Energy        =      -2.2056465896181212 [Eh]
	 Total Energy              =    -859.8260894101363192 [Eh]

	 ================> DF-SCS-MP2 Energies <==================
	-----------------------------------------------------------
	 SCS Same-Spin Scale       =       0.3333333333333333 [-]
	 SCS Opposite-Spin Scale   =       1.2000000000000000 [-]
	 SCS Same-Spin Energy      =      -0.1751025160165778 [Eh]
	 SCS Opposite-Spin Energy  =      -2.0164068498820651 [Eh]
	 SCS Correlation Energy    =      -2.1915093658986429 [Eh]
	 SCS Total Energy          =    -859.8119521864168746 [Eh]
	-----------------------------------------------------------

  Dipole Moment: [D]
     X:    -0.0575      Y:     2.7090      Z:    -1.0923     Total:     2.9215

*** Psi4 exiting successfully. Buy a developer a beer!
