                               Psi4 1.4a3.dev225

  ==> Input File <==

--------------------------------------------------------------------------
#psi4
#
memory 32 gb

molecule  {
0 1
  S       -0.2946600    -0.4360860     0.1655790
  O       -1.5657890     0.5673500    -0.1009940
  O       -0.3508230    -1.5212030    -0.8163730
  O       -0.2159750    -0.7550950     1.5921100
  C        2.3621670     0.3010360     0.2220870
  C        1.1164608     0.8811913    -0.2883861
  C        2.8380310    -0.9649040    -0.4891310
  C        3.3410260     1.4538450    -0.0023010
  C       -2.8589370    -0.1133030    -0.1019100
  C       -3.9021700     0.9699320    -0.2416680
  H        2.2983390     0.1006560     1.2981690
  H        0.9320730     0.8904060    -1.3271310
  H        0.6744950     1.6778970     0.2503870
  H        2.8691440    -0.8060450    -1.5725570
  H        2.1878640    -1.8202610    -0.2948070
  H        3.8478330    -1.2217420    -0.1555610
  H        3.4181100     1.6939920    -1.0681710
  H        3.0282660     2.3570280     0.5308300
  H        4.3384750     1.1791220     0.3530350
  H       -2.8783840    -0.8196920    -0.9355340
  H       -2.9674710    -0.6619300     0.8385710
  H       -3.8465560     1.6647390     0.5984370
  H       -3.7534550     1.5250040    -1.1701160
  H       -4.8990420     0.5201230    -0.2596090
units angstrom
no_reorient  #important for SAPT in psi4, default
symmetry c1  #important for SAPT in psi4, default
}

set PROPERTIES_ORIGIN ["COM"]
properties('MP2/aug-cc-pvtz', properties = ['dipole'])
--------------------------------------------------------------------------

    Molecular point group: c1
  Charge       = 0
  Multiplicity = 1
  Basis Set: AUG-CC-PVTZ
    Blend: AUG-CC-PVTZ
  Basis Set: (AUG-CC-PVTZ AUX)
    Blend: AUG-CC-PVTZ-JKFIT

    Orbital Energies [Eh]
    ---------------------

    Doubly Occupied:

       1A    -92.198915     2A    -20.610606     3A    -20.548831
       4A    -20.548281     5A    -11.298908     6A    -11.290069
       7A    -11.249500     8A    -11.231101     9A    -11.231001
      10A    -11.222238    11A     -9.163802    12A     -6.848908
      13A     -6.847408    14A     -6.847184    15A     -1.472023
      16A     -1.369524    17A     -1.331053    18A     -1.131855
      19A     -1.045681    20A     -0.982357    21A     -0.946536
      22A     -0.877005    23A     -0.825443    24A     -0.797726
      25A     -0.712239    26A     -0.693136    27A     -0.687817
      28A     -0.661603    29A     -0.636909    30A     -0.623689
      31A     -0.605143    32A     -0.591774    33A     -0.566680
      34A     -0.558601    35A     -0.553280    36A     -0.546529
      37A     -0.534734    38A     -0.514774    39A     -0.506741
      40A     -0.496574    41A     -0.490100    42A     -0.488468
      43A     -0.481465    44A     -0.458929    45A     -0.413989

  @DF-RHF Final Energy:  -857.60137101375005

   => Energetics <=

    Nuclear Repulsion Energy =            719.1014276109734737
    One-Electron Energy =               -2605.9273408373173879
    Two-Electron Energy =                1029.2245422125936329
    Total Energy =                       -857.6013710137501675
  Basis Set: (AUG-CC-PVTZ AUX)
    Blend: AUG-CC-PVTZ-RI
    Molecular point group: c1

    Geometry (in Angstrom), charge = 0, multiplicity = 1:

       Center              X                  Y                   Z               Mass
    ------------   -----------------  -----------------  -----------------  -----------------
         S           -0.273694081558    -0.408295606295     0.151525633737    31.972071174400
         O           -1.544823081558     0.595140393705    -0.115047366263    15.994914619570
         O           -0.329857081558    -1.493412606295    -0.830426366263    15.994914619570
         O           -0.195009081558    -0.727304606295     1.578056633737    15.994914619570
         C            2.383132918442     0.328826393705     0.208033633737    12.000000000000
         C            1.137426718442     0.908981693705    -0.302439466263    12.000000000000
         C            2.858996918442    -0.937113606295    -0.503184366263    12.000000000000
         C            3.361991918442     1.481635393705    -0.016354366263    12.000000000000
         C           -2.837971081558    -0.085512606295    -0.115963366263    12.000000000000
         C           -3.881204081558     0.997722393705    -0.255721366263    12.000000000000
         H            2.319304918442     0.128446393705     1.284115633737     1.007825032230
         H            0.953038918442     0.918196393705    -1.341184366263     1.007825032230
         H            0.695460918442     1.705687393705     0.236333633737     1.007825032230
         H            2.890109918442    -0.778254606295    -1.586610366263     1.007825032230
         H            2.208829918442    -1.792470606295    -0.308860366263     1.007825032230
         H            3.868798918442    -1.193951606295    -0.169614366263     1.007825032230
         H            3.439075918442     1.721782393705    -1.082224366263     1.007825032230
         H            3.049231918442     2.384818393705     0.516776633737     1.007825032230
         H            4.359440918442     1.206912393705     0.338981633737     1.007825032230
         H           -2.857418081558    -0.791901606295    -0.949587366263     1.007825032230
         H           -2.946505081558    -0.634139606295     0.824517633737     1.007825032230
         H           -3.825590081558     1.692529393705     0.584383633737     1.007825032230
         H           -3.732489081558     1.552794393705    -1.184169366263     1.007825032230
         H           -4.878076081558     0.547913393705    -0.273662366263     1.007825032230

  Basis Set: AUG-CC-PVTZ
    Blend: AUG-CC-PVTZ
  Basis Set: (AUG-CC-PVTZ AUX)
    Blend: AUG-CC-PVTZ-JKFIT
	 Reference Energy          =    -857.6013710137500539 [Eh]
	 Singles Energy            =      -0.0000000000000000 [Eh]
	 Same-Spin Energy          =      -0.5264813452763180 [Eh]
	 Opposite-Spin Energy      =      -1.6834289039596446 [Eh]
	 Correlation Energy        =      -2.2099102492359624 [Eh]
	 Total Energy              =    -859.8112812629859718 [Eh]

	 ================> DF-SCS-MP2 Energies <==================
	-----------------------------------------------------------
	 SCS Same-Spin Scale       =       0.3333333333333333 [-]
	 SCS Opposite-Spin Scale   =       1.2000000000000000 [-]
	 SCS Same-Spin Energy      =      -0.1754937817587726 [Eh]
	 SCS Opposite-Spin Energy  =      -2.0201146847515736 [Eh]
	 SCS Correlation Energy    =      -2.1956084665103464 [Eh]
	 SCS Total Energy          =    -859.7969794802603474 [Eh]
	-----------------------------------------------------------

  Dipole Moment: [D]
     X:     0.0567      Y:     2.6873      Z:    -1.0425     Total:     2.8830

*** Psi4 exiting successfully. Buy a developer a beer!
