                               Psi4 1.4a3.dev225

  ==> Input File <==

--------------------------------------------------------------------------
#psi4
#
memory 32 gb

molecule  {
0 1
  S       -0.2946600    -0.4360860     0.1655790
  O       -1.5657890     0.5673500    -0.1009940
  O       -0.3508230    -1.5212030    -0.8163730
  O       -0.2159750    -0.7550950     1.5921100
  C        2.3621670     0.3010360     0.2220870
  C        0.9741440     0.7483390    -0.2426020
  C        2.8380310    -0.9649040    -0.4891310
  C        3.3410260     1.4538450    -0.0023010
  C       -2.8589370    -0.1133030    -0.1019100
  C       -3.9021700     0.9699320    -0.2416680
  H        2.2983390     0.1006560     1.2981690
  H        0.9320730     0.8904060    -1.3271310
  H        0.6744950     1.6778970     0.2503870
  H        2.8691440    -0.8060450    -1.5725570
  H        2.1878640    -1.8202610    -0.2948070
  H        3.8478330    -1.2217420    -0.1555610
  H        3.4181100     1.6939920    -1.0681710
  H        3.0282660     2.3570280     0.5308300
  H        4.3384750     1.1791220     0.3530350
  H       -2.8783840    -0.8196920    -0.9355340
  H       -2.9674710    -0.6619300     0.8385710
  H       -3.8434896     1.6790211     0.5862060
  H       -3.7534550     1.5250040    -1.1701160
  H       -4.8990420     0.5201230    -0.2596090
units angstrom
no_reorient  #important for SAPT in psi4, default
symmetry c1  #important for SAPT in psi4, default
}

set PROPERTIES_ORIGIN ["COM"]
properties('MP2/aug-cc-pvtz', properties = ['dipole'])
--------------------------------------------------------------------------

    Molecular point group: c1
  Charge       = 0
  Multiplicity = 1
  Basis Set: AUG-CC-PVTZ
    Blend: AUG-CC-PVTZ
  Basis Set: (AUG-CC-PVTZ AUX)
    Blend: AUG-CC-PVTZ-JKFIT

    Orbital Energies [Eh]
    ---------------------

    Doubly Occupied:

       1A    -92.213851     2A    -20.614935     3A    -20.553711
       4A    -20.553555     5A    -11.302058     6A    -11.278145
       7A    -11.251504     8A    -11.232989     9A    -11.229539
      10A    -11.218628    11A     -9.178099    12A     -6.863555
      13A     -6.862110    14A     -6.861935    15A     -1.481060
      16A     -1.375107    17A     -1.337442    18A     -1.120952
      19A     -1.051452    20A     -0.996717    21A     -0.942355
      22A     -0.877159    23A     -0.830927    24A     -0.788051
      25A     -0.725227    26A     -0.692741    27A     -0.690759
      28A     -0.656659    29A     -0.634979    30A     -0.616199
      31A     -0.607099    32A     -0.586743    33A     -0.566996
      34A     -0.558221    35A     -0.554771    36A     -0.543757
      37A     -0.538037    38A     -0.510036    39A     -0.500121
      40A     -0.496664    41A     -0.490471    42A     -0.485413
      43A     -0.482569    44A     -0.463344    45A     -0.453678

  @DF-RHF Final Energy:  -857.62648850198889

   => Energetics <=

    Nuclear Repulsion Energy =            722.5674341676832455
    One-Electron Energy =               -2612.6472053988527477
    Two-Electron Energy =                1032.4532827291807280
    Total Energy =                       -857.6264885019888879
  Basis Set: (AUG-CC-PVTZ AUX)
    Blend: AUG-CC-PVTZ-RI
    Molecular point group: c1

    Geometry (in Angstrom), charge = 0, multiplicity = 1:

       Center              X                  Y                   Z               Mass
    ------------   -----------------  -----------------  -----------------  -----------------
         S           -0.263428840909    -0.398782338888     0.148291490023    31.972071174400
         O           -1.534557840909     0.604653661112    -0.118281509977    15.994914619570
         O           -0.319591840909    -1.483899338888    -0.833660509977    15.994914619570
         O           -0.184743840909    -0.717791338888     1.574822490023    15.994914619570
         C            2.393398159091     0.338339661112     0.204799490023    12.000000000000
         C            1.005375159091     0.785642661112    -0.259889509977    12.000000000000
         C            2.869262159091    -0.927600338888    -0.506418509977    12.000000000000
         C            3.372257159091     1.491148661112    -0.019588509977    12.000000000000
         C           -2.827705840909    -0.075999338888    -0.119197509977    12.000000000000
         C           -3.870938840909     1.007235661112    -0.258955509977    12.000000000000
         H            2.329570159091     0.137959661112     1.280881490023     1.007825032230
         H            0.963304159091     0.927709661112    -1.344418509977     1.007825032230
         H            0.705726159091     1.715200661112     0.233099490023     1.007825032230
         H            2.900375159091    -0.768741338888    -1.589844509977     1.007825032230
         H            2.219095159091    -1.782957338888    -0.312094509977     1.007825032230
         H            3.879064159091    -1.184438338888    -0.172848509977     1.007825032230
         H            3.449341159091     1.731295661112    -1.085458509977     1.007825032230
         H            3.059497159091     2.394331661112     0.513542490023     1.007825032230
         H            4.369706159091     1.216425661112     0.335747490023     1.007825032230
         H           -2.847152840909    -0.782388338888    -0.952821509977     1.007825032230
         H           -2.936239840909    -0.624626338888     0.821283490023     1.007825032230
         H           -3.812258440909     1.716324761112     0.568918490023     1.007825032230
         H           -3.722223840909     1.562307661112    -1.187403509977     1.007825032230
         H           -4.867810840909     0.557426661112    -0.276896509977     1.007825032230

  Basis Set: AUG-CC-PVTZ
    Blend: AUG-CC-PVTZ
  Basis Set: (AUG-CC-PVTZ AUX)
    Blend: AUG-CC-PVTZ-JKFIT
	 Reference Energy          =    -857.6264885019888879 [Eh]
	 Singles Energy            =      -0.0000000000000000 [Eh]
	 Same-Spin Energy          =      -0.5252861415098669 [Eh]
	 Opposite-Spin Energy      =      -1.6807903872899492 [Eh]
	 Correlation Energy        =      -2.2060765287998159 [Eh]
	 Total Energy              =    -859.8325650307887145 [Eh]

	 ================> DF-SCS-MP2 Energies <==================
	-----------------------------------------------------------
	 SCS Same-Spin Scale       =       0.3333333333333333 [-]
	 SCS Opposite-Spin Scale   =       1.2000000000000000 [-]
	 SCS Same-Spin Energy      =      -0.1750953805032889 [Eh]
	 SCS Opposite-Spin Energy  =      -2.0169484647479390 [Eh]
	 SCS Correlation Energy    =      -2.1920438452512281 [Eh]
	 SCS Total Energy          =    -859.8185323472400796 [Eh]
	-----------------------------------------------------------

  Dipole Moment: [D]
     X:    -0.0618      Y:     2.7129      Z:    -1.0466     Total:     2.9084

*** Psi4 exiting successfully. Buy a developer a beer!
