                               Psi4 1.4a3.dev225

  ==> Input File <==

--------------------------------------------------------------------------
#psi4
#
memory 32 gb

molecule  {
0 1
  S       -0.2946600    -0.4360860     0.1655790
  O       -1.5657890     0.5673500    -0.1009940
  O       -0.3508230    -1.5212030    -0.8163730
  O       -0.2159750    -0.7550950     1.5921100
  C        2.3621670     0.3010360     0.2220870
  C        0.9741440     0.7483390    -0.2426020
  C        2.8380310    -0.9649040    -0.4891310
  C        3.3410260     1.4538450    -0.0023010
  C       -2.8589370    -0.1133030    -0.1019100
  C       -3.9021700     0.9699320    -0.2416680
  H        2.2983390     0.1006560     1.2981690
  H        0.9320730     0.8904060    -1.3271310
  H        0.6744950     1.6778970     0.2503870
  H        2.8691440    -0.8060450    -1.5725570
  H        2.1878640    -1.8202610    -0.2948070
  H        3.8478330    -1.2217420    -0.1555610
  H        3.4181100     1.6939920    -1.0681710
  H        3.0282660     2.3570280     0.5308300
  H        4.3384750     1.1791220     0.3530350
  H       -2.8783840    -0.8196920    -0.9355340
  H       -2.9674710    -0.6619300     0.8385710
  H       -3.8105889     1.6726437     0.5886544
  H       -3.7534550     1.5250040    -1.1701160
  H       -4.8990420     0.5201230    -0.2596090
units angstrom
no_reorient  #important for SAPT in psi4, default
symmetry c1  #important for SAPT in psi4, default
}

set PROPERTIES_ORIGIN ["COM"]
properties('MP2/aug-cc-pvtz', properties = ['dipole'])
--------------------------------------------------------------------------

    Molecular point group: c1
  Charge       = 0
  Multiplicity = 1
  Basis Set: AUG-CC-PVTZ
    Blend: AUG-CC-PVTZ
  Basis Set: (AUG-CC-PVTZ AUX)
    Blend: AUG-CC-PVTZ-JKFIT

    Orbital Energies [Eh]
    ---------------------

    Doubly Occupied:

       1A    -92.213882     2A    -20.614977     3A    -20.553695
       4A    -20.553579     5A    -11.301655     6A    -11.278172
       7A    -11.251523     8A    -11.233031     9A    -11.229557
      10A    -11.218639    11A     -9.178128    12A     -6.863584
      13A     -6.862138    14A     -6.861963    15A     -1.481076
      16A     -1.375142    17A     -1.337445    18A     -1.120975
      19A     -1.051681    20A     -0.996759    21A     -0.942370
      22A     -0.876716    23A     -0.830809    24A     -0.788061
      25A     -0.725218    26A     -0.692916    27A     -0.690727
      28A     -0.656715    29A     -0.635062    30A     -0.616077
      31A     -0.607185    32A     -0.586993    33A     -0.566429
      34A     -0.558379    35A     -0.555904    36A     -0.543827
      37A     -0.537768    38A     -0.509940    39A     -0.499497
      40A     -0.496734    41A     -0.490470    42A     -0.485483
      43A     -0.482549    44A     -0.463369    45A     -0.453704

  @DF-RHF Final Energy:  -857.62634804763604

   => Energetics <=

    Nuclear Repulsion Energy =            722.6401453881024963
    One-Electron Energy =               -2612.7919824446403254
    Two-Electron Energy =                1032.5254890089017863
    Total Energy =                       -857.6263480476359291
  Basis Set: (AUG-CC-PVTZ AUX)
    Blend: AUG-CC-PVTZ-RI
    Molecular point group: c1

    Geometry (in Angstrom), charge = 0, multiplicity = 1:

       Center              X                  Y                   Z               Mass
    ------------   -----------------  -----------------  -----------------  -----------------
         S           -0.263628508969    -0.398743635666     0.148276631151    31.972071174400
         O           -1.534757508969     0.604692364334    -0.118296368849    15.994914619570
         O           -0.319791508969    -1.483860635666    -0.833675368849    15.994914619570
         O           -0.184943508969    -0.717752635666     1.574807631151    15.994914619570
         C            2.393198491031     0.338378364334     0.204784631151    12.000000000000
         C            1.005175491031     0.785681364334    -0.259904368849    12.000000000000
         C            2.869062491031    -0.927561635666    -0.506433368849    12.000000000000
         C            3.372057491031     1.491187364334    -0.019603368849    12.000000000000
         C           -2.827905508969    -0.075960635666    -0.119212368849    12.000000000000
         C           -3.871138508969     1.007274364334    -0.258970368849    12.000000000000
         H            2.329370491031     0.137998364334     1.280866631151     1.007825032230
         H            0.963104491031     0.927748364334    -1.344433368849     1.007825032230
         H            0.705526491031     1.715239364334     0.233084631151     1.007825032230
         H            2.900175491031    -0.768702635666    -1.589859368849     1.007825032230
         H            2.218895491031    -1.782918635666    -0.312109368849     1.007825032230
         H            3.878864491031    -1.184399635666    -0.172863368849     1.007825032230
         H            3.449141491031     1.731334364334    -1.085473368849     1.007825032230
         H            3.059297491031     2.394370364334     0.513527631151     1.007825032230
         H            4.369506491031     1.216464364334     0.335732631151     1.007825032230
         H           -2.847352508969    -0.782349635666    -0.952836368849     1.007825032230
         H           -2.936439508969    -0.624587635666     0.821268631151     1.007825032230
         H           -3.779557408969     1.709986064334     0.571352031151     1.007825032230
         H           -3.722423508969     1.562346364334    -1.187418368849     1.007825032230
         H           -4.868010508969     0.557465364334    -0.276911368849     1.007825032230

  Basis Set: AUG-CC-PVTZ
    Blend: AUG-CC-PVTZ
  Basis Set: (AUG-CC-PVTZ AUX)
    Blend: AUG-CC-PVTZ-JKFIT
	 Reference Energy          =    -857.6263480476360428 [Eh]
	 Singles Energy            =      -0.0000000000000000 [Eh]
	 Same-Spin Energy          =      -0.5253047901128414 [Eh]
	 Opposite-Spin Energy      =      -1.6808295249567622 [Eh]
	 Correlation Energy        =      -2.2061343150696038 [Eh]
	 Total Energy              =    -859.8324823627056048 [Eh]

	 ================> DF-SCS-MP2 Energies <==================
	-----------------------------------------------------------
	 SCS Same-Spin Scale       =       0.3333333333333333 [-]
	 SCS Opposite-Spin Scale   =       1.2000000000000000 [-]
	 SCS Same-Spin Energy      =      -0.1751015967042804 [Eh]
	 SCS Opposite-Spin Energy  =      -2.0169954299481145 [Eh]
	 SCS Correlation Energy    =      -2.1920970266523949 [Eh]
	 SCS Total Energy          =    -859.8184450742884337 [Eh]
	-----------------------------------------------------------

  Dipole Moment: [D]
     X:    -0.0534      Y:     2.7095      Z:    -1.0508     Total:     2.9066

*** Psi4 exiting successfully. Buy a developer a beer!
