                               Psi4 1.4a3.dev225

  ==> Input File <==

--------------------------------------------------------------------------
#psi4
#
memory 32 gb

molecule  {
0 1
  S       -0.2946600    -0.4360860     0.1655790
  O       -1.5657890     0.5673500    -0.1009940
  O       -0.3508230    -1.5212030    -0.8163730
  O       -0.2159750    -0.7550950     1.5921100
  C        2.3621670     0.3010360     0.2220870
  C        0.9741440     0.7483390    -0.2426020
  C        2.8380310    -0.9649040    -0.4891310
  C        3.3410260     1.4538450    -0.0023010
  C       -2.7704466    -0.0667258    -0.1018473
  C       -3.9021700     0.9699320    -0.2416680
  H        2.2983390     0.1006560     1.2981690
  H        0.9320730     0.8904060    -1.3271310
  H        0.6744950     1.6778970     0.2503870
  H        2.8691440    -0.8060450    -1.5725570
  H        2.1878640    -1.8202610    -0.2948070
  H        3.8478330    -1.2217420    -0.1555610
  H        3.4181100     1.6939920    -1.0681710
  H        3.0282660     2.3570280     0.5308300
  H        4.3384750     1.1791220     0.3530350
  H       -2.8783840    -0.8196920    -0.9355340
  H       -2.9674710    -0.6619300     0.8385710
  H       -3.8465560     1.6647390     0.5984370
  H       -3.7534550     1.5250040    -1.1701160
  H       -4.8990420     0.5201230    -0.2596090
units angstrom
no_reorient  #important for SAPT in psi4, default
symmetry c1  #important for SAPT in psi4, default
}

set PROPERTIES_ORIGIN ["COM"]
properties('MP2/aug-cc-pvtz', properties = ['dipole'])
--------------------------------------------------------------------------

    Molecular point group: c1
  Charge       = 0
  Multiplicity = 1
  Basis Set: AUG-CC-PVTZ
    Blend: AUG-CC-PVTZ
  Basis Set: (AUG-CC-PVTZ AUX)
    Blend: AUG-CC-PVTZ-JKFIT

    Orbital Energies [Eh]
    ---------------------

    Doubly Occupied:

       1A    -92.219951     2A    -20.624710     3A    -20.558786
       4A    -20.558724     5A    -11.299346     6A    -11.282488
       7A    -11.254557     8A    -11.231850     9A    -11.229603
      10A    -11.220974    11A     -9.184362    12A     -6.869904
      13A     -6.868264    14A     -6.868080    15A     -1.498186
      16A     -1.400079    17A     -1.342106    18A     -1.124723
      19A     -1.046797    20A     -0.996067    21A     -0.944734
      22A     -0.884975    23A     -0.827364    24A     -0.792704
      25A     -0.738272    26A     -0.701117    27A     -0.696423
      28A     -0.658815    29A     -0.636158    30A     -0.626021
      31A     -0.615447    32A     -0.589563    33A     -0.570083
      34A     -0.561064    35A     -0.558384    36A     -0.545916
      37A     -0.529057    38A     -0.513385    39A     -0.496555
      40A     -0.492814    41A     -0.489346    42A     -0.485200
      43A     -0.480353    44A     -0.460395    45A     -0.456644

  @DF-RHF Final Energy:  -857.61882551317717

   => Energetics <=

    Nuclear Repulsion Energy =            724.6688693023947963
    One-Electron Energy =               -2616.5146989020854562
    Two-Electron Energy =                1034.2270040865134888
    Total Energy =                       -857.6188255131771712
  Basis Set: (AUG-CC-PVTZ AUX)
    Blend: AUG-CC-PVTZ-RI
    Molecular point group: c1

    Geometry (in Angstrom), charge = 0, multiplicity = 1:

       Center              X                  Y                   Z               Mass
    ------------   -----------------  -----------------  -----------------  -----------------
         S           -0.269804571493    -0.402061344486     0.148212731702    31.972071174400
         O           -1.540933571493     0.601374655514    -0.118360268298    15.994914619570
         O           -0.325967571493    -1.487178344486    -0.833739268298    15.994914619570
         O           -0.191119571493    -0.721070344486     1.574743731702    15.994914619570
         C            2.387022428507     0.335060655514     0.204720731702    12.000000000000
         C            0.998999428507     0.782363655514    -0.259968268298    12.000000000000
         C            2.862886428507    -0.930879344486    -0.506497268298    12.000000000000
         C            3.365881428507     1.487869655514    -0.019667268298    12.000000000000
         C           -2.745591171493    -0.032701144486    -0.119213568298    12.000000000000
         C           -3.877314571493     1.003956655514    -0.259034268298    12.000000000000
         H            2.323194428507     0.134680655514     1.280802731702     1.007825032230
         H            0.956928428507     0.924430655514    -1.344497268298     1.007825032230
         H            0.699350428507     1.711921655514     0.233020731702     1.007825032230
         H            2.893999428507    -0.772020344486    -1.589923268298     1.007825032230
         H            2.212719428507    -1.786236344486    -0.312173268298     1.007825032230
         H            3.872688428507    -1.187717344486    -0.172927268298     1.007825032230
         H            3.442965428507     1.728016655514    -1.085537268298     1.007825032230
         H            3.053121428507     2.391052655514     0.513463731702     1.007825032230
         H            4.363330428507     1.213146655514     0.335668731702     1.007825032230
         H           -2.853528571493    -0.785667344486    -0.952900268298     1.007825032230
         H           -2.942615571493    -0.627905344486     0.821204731702     1.007825032230
         H           -3.821700571493     1.698763655514     0.581070731702     1.007825032230
         H           -3.728599571493     1.559028655514    -1.187482268298     1.007825032230
         H           -4.874186571493     0.554147655514    -0.276975268298     1.007825032230

  Basis Set: AUG-CC-PVTZ
    Blend: AUG-CC-PVTZ
  Basis Set: (AUG-CC-PVTZ AUX)
    Blend: AUG-CC-PVTZ-JKFIT
	 Reference Energy          =    -857.6188255131771712 [Eh]
	 Singles Energy            =      -0.0000000000000000 [Eh]
	 Same-Spin Energy          =      -0.5255220112229917 [Eh]
	 Opposite-Spin Energy      =      -1.6804473134265394 [Eh]
	 Correlation Energy        =      -2.2059693246495309 [Eh]
	 Total Energy              =    -859.8247948378267438 [Eh]

	 ================> DF-SCS-MP2 Energies <==================
	-----------------------------------------------------------
	 SCS Same-Spin Scale       =       0.3333333333333333 [-]
	 SCS Opposite-Spin Scale   =       1.2000000000000000 [-]
	 SCS Same-Spin Energy      =      -0.1751740037409972 [Eh]
	 SCS Opposite-Spin Energy  =      -2.0165367761118471 [Eh]
	 SCS Correlation Energy    =      -2.1917107798528441 [Eh]
	 SCS Total Energy          =    -859.8105362930300544 [Eh]
	-----------------------------------------------------------

  Dipole Moment: [D]
     X:     0.4783      Y:     2.7541      Z:    -1.0177     Total:     2.9748

*** Psi4 exiting successfully. Buy a developer a beer!
