                               Psi4 1.4a3.dev225

  ==> Input File <==

--------------------------------------------------------------------------
#psi4
#
memory 32 gb

molecule  {
0 1
  S       -0.2946600    -0.4360860     0.1655790
  O       -1.5657890     0.5673500    -0.1009940
  O       -0.3508230    -1.5212030    -0.8163730
  O       -0.2159750    -0.7550950     1.5921100
  C        2.3621670     0.3010360     0.2220870
  C        0.9741440     0.7483390    -0.2426020
  C        2.8380310    -0.9649040    -0.4891310
  C        3.3410260     1.4538450    -0.0023010
  C       -2.8589370    -0.1133030    -0.1019100
  C       -3.9021700     0.9699320    -0.2416680
  H        2.2983390     0.1006560     1.2981690
  H        0.9320730     0.8904060    -1.3271310
  H        0.6744950     1.6778970     0.2503870
  H        2.8691440    -0.8060450    -1.5725570
  H        2.1997736    -1.8045928    -0.2983666
  H        3.8478330    -1.2217420    -0.1555610
  H        3.4181100     1.6939920    -1.0681710
  H        3.0282660     2.3570280     0.5308300
  H        4.3384750     1.1791220     0.3530350
  H       -2.8783840    -0.8196920    -0.9355340
  H       -2.9674710    -0.6619300     0.8385710
  H       -3.8465560     1.6647390     0.5984370
  H       -3.7534550     1.5250040    -1.1701160
  H       -4.8990420     0.5201230    -0.2596090
units angstrom
no_reorient  #important for SAPT in psi4, default
symmetry c1  #important for SAPT in psi4, default
}

set PROPERTIES_ORIGIN ["COM"]
properties('MP2/aug-cc-pvtz', properties = ['dipole'])
--------------------------------------------------------------------------

    Molecular point group: c1
  Charge       = 0
  Multiplicity = 1
  Basis Set: AUG-CC-PVTZ
    Blend: AUG-CC-PVTZ
  Basis Set: (AUG-CC-PVTZ AUX)
    Blend: AUG-CC-PVTZ-JKFIT

    Orbital Energies [Eh]
    ---------------------

    Doubly Occupied:

       1A    -92.213864     2A    -20.614926     3A    -20.553776
       4A    -20.553587     5A    -11.301935     6A    -11.278114
       7A    -11.251346     8A    -11.233047     9A    -11.229394
      10A    -11.216344    11A     -9.178114    12A     -6.863570
      13A     -6.862124    14A     -6.861951    15A     -1.481078
      16A     -1.375118    17A     -1.337476    18A     -1.121044
      19A     -1.051578    20A     -0.996882    21A     -0.943745
      22A     -0.877111    23A     -0.830868    24A     -0.788363
      25A     -0.725239    26A     -0.692921    27A     -0.690721
      28A     -0.656973    29A     -0.635181    30A     -0.617277
      31A     -0.606841    32A     -0.587204    33A     -0.567260
      34A     -0.558899    35A     -0.555065    36A     -0.543486
      37A     -0.537487    38A     -0.511026    39A     -0.500033
      40A     -0.496906    41A     -0.490744    42A     -0.485552
      43A     -0.482652    44A     -0.463369    45A     -0.454044

  @DF-RHF Final Energy:  -857.62656830631897

   => Energetics <=

    Nuclear Repulsion Energy =            722.6440409237339964
    One-Electron Energy =               -2612.7927519437585033
    Two-Electron Energy =                1032.5221427137057617
    Total Energy =                       -857.6265683063188590
  Basis Set: (AUG-CC-PVTZ AUX)
    Blend: AUG-CC-PVTZ-RI
    Molecular point group: c1

    Geometry (in Angstrom), charge = 0, multiplicity = 1:

       Center              X                  Y                   Z               Mass
    ------------   -----------------  -----------------  -----------------  -----------------
         S           -0.263482508600    -0.398790750864     0.148238864953    31.972071174400
         O           -1.534611508600     0.604645249136    -0.118334135047    15.994914619570
         O           -0.319645508600    -1.483907750864    -0.833713135047    15.994914619570
         O           -0.184797508600    -0.717799750864     1.574769864953    15.994914619570
         C            2.393344491400     0.338331249136     0.204746864953    12.000000000000
         C            1.005321491400     0.785634249136    -0.259942135047    12.000000000000
         C            2.869208491400    -0.927608750864    -0.506471135047    12.000000000000
         C            3.372203491400     1.491140249136    -0.019641135047    12.000000000000
         C           -2.827759508600    -0.076007750864    -0.119250135047    12.000000000000
         C           -3.870992508600     1.007227249136    -0.259008135047    12.000000000000
         H            2.329516491400     0.137951249136     1.280828864953     1.007825032230
         H            0.963250491400     0.927701249136    -1.344471135047     1.007825032230
         H            0.705672491400     1.715192249136     0.233046864953     1.007825032230
         H            2.900321491400    -0.768749750864    -1.589897135047     1.007825032230
         H            2.230951091400    -1.767297550864    -0.315706735047     1.007825032230
         H            3.879010491400    -1.184446750864    -0.172901135047     1.007825032230
         H            3.449287491400     1.731287249136    -1.085511135047     1.007825032230
         H            3.059443491400     2.394323249136     0.513489864953     1.007825032230
         H            4.369652491400     1.216417249136     0.335694864953     1.007825032230
         H           -2.847206508600    -0.782396750864    -0.952874135047     1.007825032230
         H           -2.936293508600    -0.624634750864     0.821230864953     1.007825032230
         H           -3.815378508600     1.702034249136     0.581096864953     1.007825032230
         H           -3.722277508600     1.562299249136    -1.187456135047     1.007825032230
         H           -4.867864508600     0.557418249136    -0.276949135047     1.007825032230

  Basis Set: AUG-CC-PVTZ
    Blend: AUG-CC-PVTZ
  Basis Set: (AUG-CC-PVTZ AUX)
    Blend: AUG-CC-PVTZ-JKFIT
	 Reference Energy          =    -857.6265683063189726 [Eh]
	 Singles Energy            =      -0.0000000000000000 [Eh]
	 Same-Spin Energy          =      -0.5252646146153191 [Eh]
	 Opposite-Spin Energy      =      -1.6806539819150781 [Eh]
	 Correlation Energy        =      -2.2059185965303971 [Eh]
	 Total Energy              =    -859.8324869028493822 [Eh]

	 ================> DF-SCS-MP2 Energies <==================
	-----------------------------------------------------------
	 SCS Same-Spin Scale       =       0.3333333333333333 [-]
	 SCS Opposite-Spin Scale   =       1.2000000000000000 [-]
	 SCS Same-Spin Energy      =      -0.1750882048717730 [Eh]
	 SCS Opposite-Spin Energy  =      -2.0167847782980934 [Eh]
	 SCS Correlation Energy    =      -2.1918729831698665 [Eh]
	 SCS Total Energy          =    -859.8184412894888737 [Eh]
	-----------------------------------------------------------

  Dipole Moment: [D]
     X:    -0.0680      Y:     2.7025      Z:    -1.0438     Total:     2.8979

*** Psi4 exiting successfully. Buy a developer a beer!
