                               Psi4 1.4a3.dev225

  ==> Input File <==

--------------------------------------------------------------------------
#psi4
#
memory 32 gb

molecule  {
0 1
  S       -0.2946600    -0.4360860     0.1655790
  O       -1.5657890     0.5673500    -0.1009940
  O       -0.3508230    -1.5212030    -0.8163730
  O       -0.2267252    -0.7115110     1.3972129
  C        2.3621670     0.3010360     0.2220870
  C        0.9741440     0.7483390    -0.2426020
  C        2.8380310    -0.9649040    -0.4891310
  C        3.3410260     1.4538450    -0.0023010
  C       -2.8589370    -0.1133030    -0.1019100
  C       -3.9021700     0.9699320    -0.2416680
  H        2.2983390     0.1006560     1.2981690
  H        0.9320730     0.8904060    -1.3271310
  H        0.6744950     1.6778970     0.2503870
  H        2.8691440    -0.8060450    -1.5725570
  H        2.1878640    -1.8202610    -0.2948070
  H        3.8478330    -1.2217420    -0.1555610
  H        3.4181100     1.6939920    -1.0681710
  H        3.0282660     2.3570280     0.5308300
  H        4.3384750     1.1791220     0.3530350
  H       -2.8783840    -0.8196920    -0.9355340
  H       -2.9674710    -0.6619300     0.8385710
  H       -3.8465560     1.6647390     0.5984370
  H       -3.7534550     1.5250040    -1.1701160
  H       -4.8990420     0.5201230    -0.2596090
units angstrom
no_reorient  #important for SAPT in psi4, default
symmetry c1  #important for SAPT in psi4, default
}

set PROPERTIES_ORIGIN ["COM"]
properties('MP2/aug-cc-pvtz', properties = ['dipole'])
--------------------------------------------------------------------------

    Molecular point group: c1
  Charge       = 0
  Multiplicity = 1
  Basis Set: AUG-CC-PVTZ
    Blend: AUG-CC-PVTZ
  Basis Set: (AUG-CC-PVTZ AUX)
    Blend: AUG-CC-PVTZ-JKFIT

    Orbital Energies [Eh]
    ---------------------

    Doubly Occupied:

       1A    -92.183703     2A    -20.598563     3A    -20.558332
       4A    -20.534784     5A    -11.296898     6A    -11.264481
       7A    -11.249056     8A    -11.229244     9A    -11.227119
      10A    -11.216580    11A     -9.157789    12A     -6.844885
      13A     -6.841593    14A     -6.840047    15A     -1.568956
      16A     -1.398633    17A     -1.344092    18A     -1.115930
      19A     -1.045269    20A     -0.990113    21A     -0.940061
      22A     -0.870443    23A     -0.821453    24A     -0.782809
      25A     -0.746317    26A     -0.716570    27A     -0.695306
      28A     -0.660919    29A     -0.646344    30A     -0.616130
      31A     -0.611615    32A     -0.589394    33A     -0.580082
      34A     -0.561506    35A     -0.551370    36A     -0.543395
      37A     -0.539290    38A     -0.509571    39A     -0.506768
      40A     -0.500211    41A     -0.492447    42A     -0.486729
      43A     -0.480388    44A     -0.462898    45A     -0.446530

  @DF-RHF Final Energy:  -857.58495796917964

   => Energetics <=

    Nuclear Repulsion Energy =            733.6407928567521139
    One-Electron Energy =               -2634.7222747945597803
    Two-Electron Energy =                1043.4965239686280256
    Total Energy =                       -857.5849579691796407
  Basis Set: (AUG-CC-PVTZ AUX)
    Blend: AUG-CC-PVTZ-RI
    Molecular point group: c1

    Geometry (in Angstrom), charge = 0, multiplicity = 1:

       Center              X                  Y                   Z               Mass
    ------------   -----------------  -----------------  -----------------  -----------------
         S           -0.262374810941    -0.402893517566     0.166989049622    31.972071174400
         O           -1.533503810941     0.600542482434    -0.099583950378    15.994914619570
         O           -0.318537810941    -1.488010517566    -0.814962950378    15.994914619570
         O           -0.194440010941    -0.678318517566     1.398622949622    15.994914619570
         C            2.394452189059     0.334228482434     0.223497049622    12.000000000000
         C            1.006429189059     0.781531482434    -0.241191950378    12.000000000000
         C            2.870316189059    -0.931711517566    -0.487720950378    12.000000000000
         C            3.373311189059     1.487037482434    -0.000890950378    12.000000000000
         C           -2.826651810941    -0.080110517566    -0.100499950378    12.000000000000
         C           -3.869884810941     1.003124482434    -0.240257950378    12.000000000000
         H            2.330624189059     0.133848482434     1.299579049622     1.007825032230
         H            0.964358189059     0.923598482434    -1.325720950378     1.007825032230
         H            0.706780189059     1.711089482434     0.251797049622     1.007825032230
         H            2.901429189059    -0.772852517566    -1.571146950378     1.007825032230
         H            2.220149189059    -1.787068517566    -0.293396950378     1.007825032230
         H            3.880118189059    -1.188549517566    -0.154150950378     1.007825032230
         H            3.450395189059     1.727184482434    -1.066760950378     1.007825032230
         H            3.060551189059     2.390220482434     0.532240049622     1.007825032230
         H            4.370760189059     1.212314482434     0.354445049622     1.007825032230
         H           -2.846098810941    -0.786499517566    -0.934123950378     1.007825032230
         H           -2.935185810941    -0.628737517566     0.839981049622     1.007825032230
         H           -3.814270810941     1.697931482434     0.599847049622     1.007825032230
         H           -3.721169810941     1.558196482434    -1.168705950378     1.007825032230
         H           -4.866756810941     0.553315482434    -0.258198950378     1.007825032230

  Basis Set: AUG-CC-PVTZ
    Blend: AUG-CC-PVTZ
  Basis Set: (AUG-CC-PVTZ AUX)
    Blend: AUG-CC-PVTZ-JKFIT
	 Reference Energy          =    -857.5849579691796407 [Eh]
	 Singles Energy            =      -0.0000000000000000 [Eh]
	 Same-Spin Energy          =      -0.5200736443203355 [Eh]
	 Opposite-Spin Energy      =      -1.6687474925734771 [Eh]
	 Correlation Energy        =      -2.1888211368938126 [Eh]
	 Total Energy              =    -859.7737791060734480 [Eh]

	 ================> DF-SCS-MP2 Energies <==================
	-----------------------------------------------------------
	 SCS Same-Spin Scale       =       0.3333333333333333 [-]
	 SCS Opposite-Spin Scale   =       1.2000000000000000 [-]
	 SCS Same-Spin Energy      =      -0.1733578814401118 [Eh]
	 SCS Opposite-Spin Energy  =      -2.0024969910881723 [Eh]
	 SCS Correlation Energy    =      -2.1758548725282840 [Eh]
	 SCS Total Energy          =    -859.7608128417078888 [Eh]
	-----------------------------------------------------------

  Dipole Moment: [D]
     X:     0.0098      Y:     2.4245      Z:    -0.0551     Total:     2.4251

*** Psi4 exiting successfully. Buy a developer a beer!
