                               Psi4 1.4a3.dev225

  ==> Input File <==

--------------------------------------------------------------------------
#psi4
#
memory 32 gb

molecule  {
0 1
  S       -0.2946600    -0.4360860     0.1655790
  O       -1.5657890     0.5673500    -0.1009940
  O       -0.3508230    -1.5212030    -0.8163730
  O       -0.2159750    -0.7550950     1.5921100
  C        2.3621670     0.3010360     0.2220870
  C        0.9753999     0.7689914    -0.2257057
  C        2.8380310    -0.9649040    -0.4891310
  C        3.3410260     1.4538450    -0.0023010
  C       -2.8589370    -0.1133030    -0.1019100
  C       -3.9021700     0.9699320    -0.2416680
  H        2.2983390     0.1006560     1.2981690
  H        0.9320730     0.8904060    -1.3271310
  H        0.6744950     1.6778970     0.2503870
  H        2.8691440    -0.8060450    -1.5725570
  H        2.1878640    -1.8202610    -0.2948070
  H        3.8478330    -1.2217420    -0.1555610
  H        3.4181100     1.6939920    -1.0681710
  H        3.0282660     2.3570280     0.5308300
  H        4.3384750     1.1791220     0.3530350
  H       -2.8783840    -0.8196920    -0.9355340
  H       -2.9674710    -0.6619300     0.8385710
  H       -3.8465560     1.6647390     0.5984370
  H       -3.7534550     1.5250040    -1.1701160
  H       -4.8990420     0.5201230    -0.2596090
units angstrom
no_reorient  #important for SAPT in psi4, default
symmetry c1  #important for SAPT in psi4, default
}

set PROPERTIES_ORIGIN ["COM"]
properties('MP2/aug-cc-pvtz', properties = ['dipole'])
--------------------------------------------------------------------------

    Molecular point group: c1
  Charge       = 0
  Multiplicity = 1
  Basis Set: AUG-CC-PVTZ
    Blend: AUG-CC-PVTZ
  Basis Set: (AUG-CC-PVTZ AUX)
    Blend: AUG-CC-PVTZ-JKFIT

    Orbital Energies [Eh]
    ---------------------

    Doubly Occupied:

       1A    -92.213391     2A    -20.614589     3A    -20.554683
       4A    -20.552811     5A    -11.301732     6A    -11.278292
       7A    -11.251362     8A    -11.232924     9A    -11.229336
      10A    -11.219209    11A     -9.177612    12A     -6.863072
      13A     -6.861574    14A     -6.861444    15A     -1.480685
      16A     -1.374869    17A     -1.337396    18A     -1.120647
      19A     -1.051219    20A     -0.996012    21A     -0.942560
      22A     -0.877113    23A     -0.830562    24A     -0.788045
      25A     -0.724646    26A     -0.693025    27A     -0.689538
      28A     -0.659663    29A     -0.635677    30A     -0.616164
      31A     -0.606531    32A     -0.585397    33A     -0.567181
      34A     -0.558998    35A     -0.554631    36A     -0.543659
      37A     -0.537368    38A     -0.511172    39A     -0.499766
      40A     -0.497212    41A     -0.492080    42A     -0.484511
      43A     -0.481935    44A     -0.463411    45A     -0.452110

  @DF-RHF Final Energy:  -857.62575783220711

   => Energetics <=

    Nuclear Repulsion Energy =            722.3185081996376766
    One-Electron Energy =               -2612.1569067079467459
    Two-Electron Energy =                1032.2126406761019553
    Total Energy =                       -857.6257578322072277
  Basis Set: (AUG-CC-PVTZ AUX)
    Blend: AUG-CC-PVTZ-RI
    Molecular point group: c1

    Geometry (in Angstrom), charge = 0, multiplicity = 1:

       Center              X                  Y                   Z               Mass
    ------------   -----------------  -----------------  -----------------  -----------------
         S           -0.263500983184    -0.400188011502     0.146996331263    31.972071174400
         O           -1.534629983184     0.603247988498    -0.119576668737    15.994914619570
         O           -0.319663983184    -1.485305011502    -0.834955668737    15.994914619570
         O           -0.184815983184    -0.719197011502     1.573527331263    15.994914619570
         C            2.393326016816     0.336933988498     0.203504331263    12.000000000000
         C            1.006558916816     0.804889388498    -0.244288368737    12.000000000000
         C            2.869190016816    -0.929006011502    -0.507713668737    12.000000000000
         C            3.372185016816     1.489742988498    -0.020883668737    12.000000000000
         C           -2.827777983184    -0.077405011502    -0.120492668737    12.000000000000
         C           -3.871010983184     1.005829988498    -0.260250668737    12.000000000000
         H            2.329498016816     0.136553988498     1.279586331263     1.007825032230
         H            0.963232016816     0.926303988498    -1.345713668737     1.007825032230
         H            0.705654016816     1.713794988498     0.231804331263     1.007825032230
         H            2.900303016816    -0.770147011502    -1.591139668737     1.007825032230
         H            2.219023016816    -1.784363011502    -0.313389668737     1.007825032230
         H            3.878992016816    -1.185844011502    -0.174143668737     1.007825032230
         H            3.449269016816     1.729889988498    -1.086753668737     1.007825032230
         H            3.059425016816     2.392925988498     0.512247331263     1.007825032230
         H            4.369634016816     1.215019988498     0.334452331263     1.007825032230
         H           -2.847224983184    -0.783794011502    -0.954116668737     1.007825032230
         H           -2.936311983184    -0.626032011502     0.819988331263     1.007825032230
         H           -3.815396983184     1.700636988498     0.579854331263     1.007825032230
         H           -3.722295983184     1.560901988498    -1.188698668737     1.007825032230
         H           -4.867882983184     0.556020988498    -0.278191668737     1.007825032230

  Basis Set: AUG-CC-PVTZ
    Blend: AUG-CC-PVTZ
  Basis Set: (AUG-CC-PVTZ AUX)
    Blend: AUG-CC-PVTZ-JKFIT
	 Reference Energy          =    -857.6257578322071140 [Eh]
	 Singles Energy            =      -0.0000000000000000 [Eh]
	 Same-Spin Energy          =      -0.5252737823216225 [Eh]
	 Opposite-Spin Energy      =      -1.6808564584524996 [Eh]
	 Correlation Energy        =      -2.2061302407741223 [Eh]
	 Total Energy              =    -859.8318880729812008 [Eh]

	 ================> DF-SCS-MP2 Energies <==================
	-----------------------------------------------------------
	 SCS Same-Spin Scale       =       0.3333333333333333 [-]
	 SCS Opposite-Spin Scale   =       1.2000000000000000 [-]
	 SCS Same-Spin Energy      =      -0.1750912607738742 [Eh]
	 SCS Opposite-Spin Energy  =      -2.0170277501429994 [Eh]
	 SCS Correlation Energy    =      -2.1921190109168736 [Eh]
	 SCS Total Energy          =    -859.8178768431239405 [Eh]
	-----------------------------------------------------------

  Dipole Moment: [D]
     X:    -0.0662      Y:     2.6925      Z:    -1.0477     Total:     2.8899

*** Psi4 exiting successfully. Buy a developer a beer!
