                               Psi4 1.4a3.dev225

  ==> Input File <==

--------------------------------------------------------------------------
#psi4
#
memory 32 gb

molecule  {
0 1
  S       -0.2946600    -0.4360860     0.1655790
  O       -1.5657890     0.5673500    -0.1009940
  O       -0.3508230    -1.5212030    -0.8163730
  O       -0.2159750    -0.7550950     1.5921100
  C        2.3621670     0.3010360     0.2220870
  C        0.9741440     0.7483390    -0.2426020
  C        2.8380310    -0.9649040    -0.4891310
  C        3.3410260     1.4538450    -0.0023010
  C       -2.8589370    -0.1133030    -0.1019100
  C       -3.9021700     0.9699320    -0.2416680
  H        2.2983390     0.1006560     1.2981690
  H        0.9320730     0.8904060    -1.3271310
  H        0.6744950     1.6778970     0.2503870
  H        2.8691440    -0.8060450    -1.5725570
  H        2.1283162    -1.8986019    -0.2770092
  H        3.8478330    -1.2217420    -0.1555610
  H        3.4181100     1.6939920    -1.0681710
  H        3.0282660     2.3570280     0.5308300
  H        4.3384750     1.1791220     0.3530350
  H       -2.8783840    -0.8196920    -0.9355340
  H       -2.9674710    -0.6619300     0.8385710
  H       -3.8465560     1.6647390     0.5984370
  H       -3.7534550     1.5250040    -1.1701160
  H       -4.8990420     0.5201230    -0.2596090
units angstrom
no_reorient  #important for SAPT in psi4, default
symmetry c1  #important for SAPT in psi4, default
}

set PROPERTIES_ORIGIN ["COM"]
properties('MP2/aug-cc-pvtz', properties = ['dipole'])
--------------------------------------------------------------------------

    Molecular point group: c1
  Charge       = 0
  Multiplicity = 1
  Basis Set: AUG-CC-PVTZ
    Blend: AUG-CC-PVTZ
  Basis Set: (AUG-CC-PVTZ AUX)
    Blend: AUG-CC-PVTZ-JKFIT

    Orbital Energies [Eh]
    ---------------------

    Doubly Occupied:

       1A    -92.213677     2A    -20.614776     3A    -20.553310
       4A    -20.553192     5A    -11.301815     6A    -11.278244
       7A    -11.252343     8A    -11.232968     9A    -11.230319
      10A    -11.229494    11A     -9.177913    12A     -6.863369
      13A     -6.861926    14A     -6.861748    15A     -1.480822
      16A     -1.374903    17A     -1.337139    18A     -1.120673
      19A     -1.051342    20A     -0.996314    21A     -0.936696
      22A     -0.876682    23A     -0.830392    24A     -0.786764
      25A     -0.725065    26A     -0.692652    27A     -0.690540
      28A     -0.656185    29A     -0.634781    30A     -0.612012
      31A     -0.606192    32A     -0.584315    33A     -0.567095
      34A     -0.558810    35A     -0.552651    36A     -0.544338
      37A     -0.537009    38A     -0.505503    39A     -0.499953
      40A     -0.496931    41A     -0.489106    42A     -0.485069
      43A     -0.480665    44A     -0.463140    45A     -0.450894

  @DF-RHF Final Energy:  -857.61971371110462

   => Energetics <=

    Nuclear Repulsion Energy =            722.2592550862772214
    One-Electron Energy =               -2612.0584822054515826
    Two-Electron Energy =                1032.1795134080696243
    Total Energy =                       -857.6197137111046231
  Basis Set: (AUG-CC-PVTZ AUX)
    Blend: AUG-CC-PVTZ-RI
    Molecular point group: c1

    Geometry (in Angstrom), charge = 0, multiplicity = 1:

       Center              X                  Y                   Z               Mass
    ------------   -----------------  -----------------  -----------------  -----------------
         S           -0.263048847297    -0.398220227604     0.148109250975    31.972071174400
         O           -1.534177847297     0.605215772396    -0.118463749025    15.994914619570
         O           -0.319211847297    -1.483337227604    -0.833842749025    15.994914619570
         O           -0.184363847297    -0.717229227604     1.574640250975    15.994914619570
         C            2.393778152703     0.338901772396     0.204617250975    12.000000000000
         C            1.005755152703     0.786204772396    -0.260071749025    12.000000000000
         C            2.869642152703    -0.927038227604    -0.506600749025    12.000000000000
         C            3.372637152703     1.491710772396    -0.019770749025    12.000000000000
         C           -2.827325847297    -0.075437227604    -0.119379749025    12.000000000000
         C           -3.870558847297     1.007797772396    -0.259137749025    12.000000000000
         H            2.329950152703     0.138521772396     1.280699250975     1.007825032230
         H            0.963684152703     0.928271772396    -1.344600749025     1.007825032230
         H            0.706106152703     1.715762772396     0.232917250975     1.007825032230
         H            2.900755152703    -0.768179227604    -1.590026749025     1.007825032230
         H            2.159927352703    -1.860736127604    -0.294478949025     1.007825032230
         H            3.879444152703    -1.183876227604    -0.173030749025     1.007825032230
         H            3.449721152703     1.731857772396    -1.085640749025     1.007825032230
         H            3.059877152703     2.394893772396     0.513360250975     1.007825032230
         H            4.370086152703     1.216987772396     0.335565250975     1.007825032230
         H           -2.846772847297    -0.781826227604    -0.953003749025     1.007825032230
         H           -2.935859847297    -0.624064227604     0.821101250975     1.007825032230
         H           -3.814944847297     1.702604772396     0.580967250975     1.007825032230
         H           -3.721843847297     1.562869772396    -1.187585749025     1.007825032230
         H           -4.867430847297     0.557988772396    -0.277078749025     1.007825032230

  Basis Set: AUG-CC-PVTZ
    Blend: AUG-CC-PVTZ
  Basis Set: (AUG-CC-PVTZ AUX)
    Blend: AUG-CC-PVTZ-JKFIT
	 Reference Energy          =    -857.6197137111046231 [Eh]
	 Singles Energy            =      -0.0000000000000000 [Eh]
	 Same-Spin Energy          =      -0.5254417551330426 [Eh]
	 Opposite-Spin Energy      =      -1.6816750468442274 [Eh]
	 Correlation Energy        =      -2.2071168019772700 [Eh]
	 Total Energy              =    -859.8268305130818590 [Eh]

	 ================> DF-SCS-MP2 Energies <==================
	-----------------------------------------------------------
	 SCS Same-Spin Scale       =       0.3333333333333333 [-]
	 SCS Opposite-Spin Scale   =       1.2000000000000000 [-]
	 SCS Same-Spin Energy      =      -0.1751472517110142 [Eh]
	 SCS Opposite-Spin Energy  =      -2.0180100562130727 [Eh]
	 SCS Correlation Energy    =      -2.1931573079240869 [Eh]
	 SCS Total Energy          =    -859.8128710190287620 [Eh]
	-----------------------------------------------------------

  Dipole Moment: [D]
     X:    -0.0532      Y:     2.7477      Z:    -1.0471     Total:     2.9409

*** Psi4 exiting successfully. Buy a developer a beer!
