                               Psi4 1.4a3.dev225

  ==> Input File <==

--------------------------------------------------------------------------
#psi4
#
memory 32 gb

molecule  {
0 1
  S       -0.2946600    -0.4360860     0.1655790
  O       -1.5657890     0.5673500    -0.1009940
  O       -0.3508230    -1.5212030    -0.8163730
  O       -0.2159750    -0.7550950     1.5921100
  C        2.3621670     0.3010360     0.2220870
  C        0.9741440     0.7483390    -0.2426020
  C        2.8380310    -0.9649040    -0.4891310
  C        3.3410260     1.4538450    -0.0023010
  C       -2.8589370    -0.1133030    -0.1019100
  C       -3.9021700     0.9699320    -0.2416680
  H        2.2983390     0.1006560     1.2981690
  H        0.9320730     0.8904060    -1.3271310
  H        0.6744950     1.6778970     0.2503870
  H        2.8691440    -0.8060450    -1.5725570
  H        2.1878640    -1.8202610    -0.2948070
  H        3.8478330    -1.2217420    -0.1555610
  H        3.4167025     1.6896070    -1.0487085
  H        3.0282660     2.3570280     0.5308300
  H        4.3384750     1.1791220     0.3530350
  H       -2.8783840    -0.8196920    -0.9355340
  H       -2.9674710    -0.6619300     0.8385710
  H       -3.8465560     1.6647390     0.5984370
  H       -3.7534550     1.5250040    -1.1701160
  H       -4.8990420     0.5201230    -0.2596090
units angstrom
no_reorient  #important for SAPT in psi4, default
symmetry c1  #important for SAPT in psi4, default
}

set PROPERTIES_ORIGIN ["COM"]
properties('MP2/aug-cc-pvtz', properties = ['dipole'])
--------------------------------------------------------------------------

    Molecular point group: c1
  Charge       = 0
  Multiplicity = 1
  Basis Set: AUG-CC-PVTZ
    Blend: AUG-CC-PVTZ
  Basis Set: (AUG-CC-PVTZ AUX)
    Blend: AUG-CC-PVTZ-JKFIT

    Orbital Energies [Eh]
    ---------------------

    Doubly Occupied:

       1A    -92.213805     2A    -20.614879     3A    -20.553659
       4A    -20.553510     5A    -11.301900     6A    -11.278094
       7A    -11.251248     8A    -11.233024     9A    -11.227028
      10A    -11.218587    11A     -9.178053    12A     -6.863509
      13A     -6.862064    14A     -6.861889    15A     -1.481010
      16A     -1.375058    17A     -1.337393    18A     -1.121061
      19A     -1.051572    20A     -0.997032    21A     -0.943341
      22A     -0.877169    23A     -0.830929    24A     -0.788524
      25A     -0.725202    26A     -0.692846    27A     -0.690695
      28A     -0.656838    29A     -0.635370    30A     -0.616139
      31A     -0.606710    32A     -0.586931    33A     -0.567557
      34A     -0.559479    35A     -0.555565    36A     -0.544272
      37A     -0.537354    38A     -0.509931    39A     -0.499987
      40A     -0.496905    41A     -0.490374    42A     -0.485386
      43A     -0.483083    44A     -0.463307    45A     -0.453564

  @DF-RHF Final Energy:  -857.62651571734420

   => Energetics <=

    Nuclear Repulsion Energy =            722.6630597407929599
    One-Electron Energy =               -2612.8354852959519121
    Two-Electron Energy =                1032.5459098378146336
    Total Energy =                       -857.6265157173443185
  Basis Set: (AUG-CC-PVTZ AUX)
    Blend: AUG-CC-PVTZ-RI
    Molecular point group: c1

    Geometry (in Angstrom), charge = 0, multiplicity = 1:

       Center              X                  Y                   Z               Mass
    ------------   -----------------  -----------------  -----------------  -----------------
         S           -0.263401689665    -0.398669051826     0.148099148229    31.972071174400
         O           -1.534530689665     0.604766948174    -0.118473851771    15.994914619570
         O           -0.319564689665    -1.483786051826    -0.833852851771    15.994914619570
         O           -0.184716689665    -0.717678051826     1.574630148229    15.994914619570
         C            2.393425310335     0.338452948174     0.204607148229    12.000000000000
         C            1.005402310335     0.785755948174    -0.260081851771    12.000000000000
         C            2.869289310335    -0.927487051826    -0.506610851771    12.000000000000
         C            3.372284310335     1.491261948174    -0.019780851771    12.000000000000
         C           -2.827678689665    -0.075886051826    -0.119389851771    12.000000000000
         C           -3.870911689665     1.007348948174    -0.259147851771    12.000000000000
         H            2.329597310335     0.138072948174     1.280689148229     1.007825032230
         H            0.963331310335     0.927822948174    -1.344610851771     1.007825032230
         H            0.705753310335     1.715313948174     0.232907148229     1.007825032230
         H            2.900402310335    -0.768628051826    -1.590036851771     1.007825032230
         H            2.219122310335    -1.782844051826    -0.312286851771     1.007825032230
         H            3.879091310335    -1.184325051826    -0.173040851771     1.007825032230
         H            3.447960810335     1.727023948174    -1.066188351771     1.007825032230
         H            3.059524310335     2.394444948174     0.513350148229     1.007825032230
         H            4.369733310335     1.216538948174     0.335555148229     1.007825032230
         H           -2.847125689665    -0.782275051826    -0.953013851771     1.007825032230
         H           -2.936212689665    -0.624513051826     0.821091148229     1.007825032230
         H           -3.815297689665     1.702155948174     0.580957148229     1.007825032230
         H           -3.722196689665     1.562420948174    -1.187595851771     1.007825032230
         H           -4.867783689665     0.557539948174    -0.277088851771     1.007825032230

  Basis Set: AUG-CC-PVTZ
    Blend: AUG-CC-PVTZ
  Basis Set: (AUG-CC-PVTZ AUX)
    Blend: AUG-CC-PVTZ-JKFIT
	 Reference Energy          =    -857.6265157173442049 [Eh]
	 Singles Energy            =      -0.0000000000000000 [Eh]
	 Same-Spin Energy          =      -0.5252939068190129 [Eh]
	 Opposite-Spin Energy      =      -1.6806896981493287 [Eh]
	 Correlation Energy        =      -2.2059836049683414 [Eh]
	 Total Energy              =    -859.8324993223125148 [Eh]

	 ================> DF-SCS-MP2 Energies <==================
	-----------------------------------------------------------
	 SCS Same-Spin Scale       =       0.3333333333333333 [-]
	 SCS Opposite-Spin Scale   =       1.2000000000000000 [-]
	 SCS Same-Spin Energy      =      -0.1750979689396709 [Eh]
	 SCS Opposite-Spin Energy  =      -2.0168276377791945 [Eh]
	 SCS Correlation Energy    =      -2.1919256067188653 [Eh]
	 SCS Total Energy          =    -859.8184413240630874 [Eh]
	-----------------------------------------------------------

  Dipole Moment: [D]
     X:    -0.0629      Y:     2.7136      Z:    -1.0545     Total:     2.9120

*** Psi4 exiting successfully. Buy a developer a beer!
