                               Psi4 1.4a3.dev225

  ==> Input File <==

--------------------------------------------------------------------------
#psi4
#
memory 32 gb

molecule  {
0 1
  S       -0.2946600    -0.4360860     0.1655790
  O       -1.5657890     0.5673500    -0.1009940
  O       -0.3508230    -1.5212030    -0.8163730
  O       -0.2159750    -0.7550950     1.5921100
  C        2.3583170     0.2586851     0.1897496
  C        0.9741440     0.7483390    -0.2426020
  C        2.8380310    -0.9649040    -0.4891310
  C        3.3410260     1.4538450    -0.0023010
  C       -2.8589370    -0.1133030    -0.1019100
  C       -3.9021700     0.9699320    -0.2416680
  H        2.2983390     0.1006560     1.2981690
  H        0.9320730     0.8904060    -1.3271310
  H        0.6744950     1.6778970     0.2503870
  H        2.8691440    -0.8060450    -1.5725570
  H        2.1878640    -1.8202610    -0.2948070
  H        3.8478330    -1.2217420    -0.1555610
  H        3.4181100     1.6939920    -1.0681710
  H        3.0282660     2.3570280     0.5308300
  H        4.3384750     1.1791220     0.3530350
  H       -2.8783840    -0.8196920    -0.9355340
  H       -2.9674710    -0.6619300     0.8385710
  H       -3.8465560     1.6647390     0.5984370
  H       -3.7534550     1.5250040    -1.1701160
  H       -4.8990420     0.5201230    -0.2596090
units angstrom
no_reorient  #important for SAPT in psi4, default
symmetry c1  #important for SAPT in psi4, default
}

set PROPERTIES_ORIGIN ["COM"]
properties('MP2/aug-cc-pvtz', properties = ['dipole'])
--------------------------------------------------------------------------

    Molecular point group: c1
  Charge       = 0
  Multiplicity = 1
  Basis Set: AUG-CC-PVTZ
    Blend: AUG-CC-PVTZ
  Basis Set: (AUG-CC-PVTZ AUX)
    Blend: AUG-CC-PVTZ-JKFIT

    Orbital Energies [Eh]
    ---------------------

    Doubly Occupied:

       1A    -92.213228     2A    -20.614579     3A    -20.553660
       4A    -20.553390     5A    -11.301751     6A    -11.278793
       7A    -11.252913     8A    -11.232929     9A    -11.230507
      10A    -11.217440    11A     -9.177572    12A     -6.863032
      13A     -6.861556    14A     -6.861393    15A     -1.480871
      16A     -1.374903    17A     -1.337315    18A     -1.122616
      19A     -1.051712    20A     -0.997888    21A     -0.944953
      22A     -0.876808    23A     -0.830150    24A     -0.784821
      25A     -0.725130    26A     -0.692857    27A     -0.690344
      28A     -0.657949    29A     -0.635519    30A     -0.618139
      31A     -0.606279    32A     -0.586958    33A     -0.566543
      34A     -0.558110    35A     -0.554909    36A     -0.544775
      37A     -0.537207    38A     -0.508180    39A     -0.506108
      40A     -0.498946    41A     -0.495457    42A     -0.484920
      43A     -0.474406    44A     -0.463160    45A     -0.449215

  @DF-RHF Final Energy:  -857.62313614954428

   => Energetics <=

    Nuclear Repulsion Energy =            722.9101140723456638
    One-Electron Energy =               -2613.3267206759951478
    Two-Electron Energy =                1032.7934704541053179
    Total Energy =                       -857.6231361495442798
  Basis Set: (AUG-CC-PVTZ AUX)
    Blend: AUG-CC-PVTZ-RI
    Molecular point group: c1

    Geometry (in Angstrom), charge = 0, multiplicity = 1:

       Center              X                  Y                   Z               Mass
    ------------   -----------------  -----------------  -----------------  -----------------
         S           -0.263132029483    -0.395635376188     0.150553971597    31.972071174400
         O           -1.534261029483     0.607800623812    -0.116019028403    15.994914619570
         O           -0.319295029483    -1.480752376188    -0.831398028403    15.994914619570
         O           -0.184447029483    -0.714644376188     1.577084971597    15.994914619570
         C            2.389844970517     0.299135723812     0.174724571597    12.000000000000
         C            1.005671970517     0.788789623812    -0.257627028403    12.000000000000
         C            2.869558970517    -0.924453376188    -0.504156028403    12.000000000000
         C            3.372553970517     1.494295623812    -0.017326028403    12.000000000000
         C           -2.827409029483    -0.072852376188    -0.116935028403    12.000000000000
         C           -3.870642029483     1.010382623812    -0.256693028403    12.000000000000
         H            2.329866970517     0.141106623812     1.283143971597     1.007825032230
         H            0.963600970517     0.930856623812    -1.342156028403     1.007825032230
         H            0.706022970517     1.718347623812     0.235361971597     1.007825032230
         H            2.900671970517    -0.765594376188    -1.587582028403     1.007825032230
         H            2.219391970517    -1.779810376188    -0.309832028403     1.007825032230
         H            3.879360970517    -1.181291376188    -0.170586028403     1.007825032230
         H            3.449637970517     1.734442623812    -1.083196028403     1.007825032230
         H            3.059793970517     2.397478623812     0.515804971597     1.007825032230
         H            4.370002970517     1.219572623812     0.338009971597     1.007825032230
         H           -2.846856029483    -0.779241376188    -0.950559028403     1.007825032230
         H           -2.935943029483    -0.621479376188     0.823545971597     1.007825032230
         H           -3.815028029483     1.705189623812     0.583411971597     1.007825032230
         H           -3.721927029483     1.565454623812    -1.185141028403     1.007825032230
         H           -4.867514029483     0.560573623812    -0.274634028403     1.007825032230

  Basis Set: AUG-CC-PVTZ
    Blend: AUG-CC-PVTZ
  Basis Set: (AUG-CC-PVTZ AUX)
    Blend: AUG-CC-PVTZ-JKFIT
	 Reference Energy          =    -857.6231361495442798 [Eh]
	 Singles Energy            =      -0.0000000000000000 [Eh]
	 Same-Spin Energy          =      -0.5256242809020889 [Eh]
	 Opposite-Spin Energy      =      -1.6812517280806938 [Eh]
	 Correlation Energy        =      -2.2068760089827828 [Eh]
	 Total Energy              =    -859.8300121585270972 [Eh]

	 ================> DF-SCS-MP2 Energies <==================
	-----------------------------------------------------------
	 SCS Same-Spin Scale       =       0.3333333333333333 [-]
	 SCS Opposite-Spin Scale   =       1.2000000000000000 [-]
	 SCS Same-Spin Energy      =      -0.1752080936340296 [Eh]
	 SCS Opposite-Spin Energy  =      -2.0175020736968325 [Eh]
	 SCS Correlation Energy    =      -2.1927101673308620 [Eh]
	 SCS Total Energy          =    -859.8158463168751950 [Eh]
	-----------------------------------------------------------

  Dipole Moment: [D]
     X:    -0.0516      Y:     2.6817      Z:    -1.0563     Total:     2.8827

*** Psi4 exiting successfully. Buy a developer a beer!
