                               Psi4 1.4a3.dev225

  ==> Input File <==

--------------------------------------------------------------------------
#psi4
#
memory 32 gb

molecule  {
0 1
  S       -0.2946600    -0.4360860     0.1655790
  O       -1.5657890     0.5673500    -0.1009940
  O       -0.3508230    -1.5212030    -0.8163730
  O       -0.2159750    -0.7550950     1.5921100
  C        2.3621670     0.3010360     0.2220870
  C        0.9741440     0.7483390    -0.2426020
  C        2.8380310    -0.9649040    -0.4891310
  C        3.3410260     1.4538450    -0.0023010
  C       -2.8589370    -0.1133030    -0.1019100
  C       -3.9021700     0.9699320    -0.2416680
  H        2.2983390     0.1006560     1.2981690
  H        0.9320730     0.8904060    -1.3271310
  H        0.6744950     1.6778970     0.2503870
  H        2.8691440    -0.8060450    -1.5725570
  H        2.1878640    -1.8202610    -0.2948070
  H        3.8478330    -1.2217420    -0.1555610
  H        3.4181100     1.6939920    -1.0681710
  H        3.0282660     2.3570280     0.5308300
  H        4.3384750     1.1791220     0.3530350
  H       -2.8698531    -0.7602704    -0.9825953
  H       -2.9674710    -0.6619300     0.8385710
  H       -3.8465560     1.6647390     0.5984370
  H       -3.7534550     1.5250040    -1.1701160
  H       -4.8990420     0.5201230    -0.2596090
units angstrom
no_reorient  #important for SAPT in psi4, default
symmetry c1  #important for SAPT in psi4, default
}

set PROPERTIES_ORIGIN ["COM"]
properties('MP2/aug-cc-pvtz', properties = ['dipole'])
--------------------------------------------------------------------------

    Molecular point group: c1
  Charge       = 0
  Multiplicity = 1
  Basis Set: AUG-CC-PVTZ
    Blend: AUG-CC-PVTZ
  Basis Set: (AUG-CC-PVTZ AUX)
    Blend: AUG-CC-PVTZ-JKFIT

    Orbital Energies [Eh]
    ---------------------

    Doubly Occupied:

       1A    -92.213613     2A    -20.614056     3A    -20.553452
       4A    -20.553427     5A    -11.302139     6A    -11.277996
       7A    -11.251408     8A    -11.232612     9A    -11.229468
      10A    -11.218543    11A     -9.177859    12A     -6.863312
      13A     -6.861872    14A     -6.861698    15A     -1.480822
      16A     -1.374917    17A     -1.337254    18A     -1.120852
      19A     -1.051976    20A     -0.996698    21A     -0.942275
      22A     -0.876615    23A     -0.829139    24A     -0.787891
      25A     -0.724426    26A     -0.695278    27A     -0.690255
      28A     -0.657895    29A     -0.635535    30A     -0.616078
      31A     -0.606384    32A     -0.586538    33A     -0.567153
      34A     -0.558821    35A     -0.554554    36A     -0.543366
      37A     -0.535600    38A     -0.510004    39A     -0.498918
      40A     -0.497816    41A     -0.490593    42A     -0.485575
      43A     -0.482564    44A     -0.463462    45A     -0.453454

  @DF-RHF Final Energy:  -857.62594683815166

   => Energetics <=

    Nuclear Repulsion Energy =            722.6102424421503656
    One-Electron Energy =               -2612.7440485569863995
    Two-Electron Energy =                1032.5078592766844849
    Total Energy =                       -857.6259468381515489
  Basis Set: (AUG-CC-PVTZ AUX)
    Blend: AUG-CC-PVTZ-RI
    Molecular point group: c1

    Geometry (in Angstrom), charge = 0, multiplicity = 1:

       Center              X                  Y                   Z               Mass
    ------------   -----------------  -----------------  -----------------  -----------------
         S           -0.263462003915    -0.399056281886     0.148502868456    31.972071174400
         O           -1.534591003915     0.604379718114    -0.118070131544    15.994914619570
         O           -0.319625003915    -1.484173281886    -0.833449131544    15.994914619570
         O           -0.184777003915    -0.718065281886     1.575033868456    15.994914619570
         C            2.393364996085     0.338065718114     0.205010868456    12.000000000000
         C            1.005341996085     0.785368718114    -0.259678131544    12.000000000000
         C            2.869228996085    -0.927874281886    -0.506207131544    12.000000000000
         C            3.372223996085     1.490874718114    -0.019377131544    12.000000000000
         C           -2.827739003915    -0.076273281886    -0.118986131544    12.000000000000
         C           -3.870972003915     1.006961718114    -0.258744131544    12.000000000000
         H            2.329536996085     0.137685718114     1.281092868456     1.007825032230
         H            0.963270996085     0.927435718114    -1.344207131544     1.007825032230
         H            0.705692996085     1.714926718114     0.233310868456     1.007825032230
         H            2.900341996085    -0.769015281886    -1.589633131544     1.007825032230
         H            2.219061996085    -1.783231281886    -0.311883131544     1.007825032230
         H            3.879030996085    -1.184712281886    -0.172637131544     1.007825032230
         H            3.449307996085     1.731021718114    -1.085247131544     1.007825032230
         H            3.059463996085     2.394057718114     0.513753868456     1.007825032230
         H            4.369672996085     1.216151718114     0.335958868456     1.007825032230
         H           -2.838655103915    -0.723240681886    -0.999671431544     1.007825032230
         H           -2.936273003915    -0.624900281886     0.821494868456     1.007825032230
         H           -3.815358003915     1.701768718114     0.581360868456     1.007825032230
         H           -3.722257003915     1.562033718114    -1.187192131544     1.007825032230
         H           -4.867844003915     0.557152718114    -0.276685131544     1.007825032230

  Basis Set: AUG-CC-PVTZ
    Blend: AUG-CC-PVTZ
  Basis Set: (AUG-CC-PVTZ AUX)
    Blend: AUG-CC-PVTZ-JKFIT
	 Reference Energy          =    -857.6259468381516626 [Eh]
	 Singles Energy            =      -0.0000000000000000 [Eh]
	 Same-Spin Energy          =      -0.5253055523336920 [Eh]
	 Opposite-Spin Energy      =      -1.6808712995907604 [Eh]
	 Correlation Energy        =      -2.2061768519244525 [Eh]
	 Total Energy              =    -859.8321236900760596 [Eh]

	 ================> DF-SCS-MP2 Energies <==================
	-----------------------------------------------------------
	 SCS Same-Spin Scale       =       0.3333333333333333 [-]
	 SCS Opposite-Spin Scale   =       1.2000000000000000 [-]
	 SCS Same-Spin Energy      =      -0.1751018507778973 [Eh]
	 SCS Opposite-Spin Energy  =      -2.0170455595089125 [Eh]
	 SCS Correlation Energy    =      -2.1921474102868097 [Eh]
	 SCS Total Energy          =    -859.8180942484384559 [Eh]
	-----------------------------------------------------------

  Dipole Moment: [D]
     X:    -0.0795      Y:     2.7259      Z:    -1.0523     Total:     2.9231

*** Psi4 exiting successfully. Buy a developer a beer!
