                               Psi4 1.4a3.dev225

  ==> Input File <==

--------------------------------------------------------------------------
#psi4
#
memory 32 gb

molecule  {
0 1
  S       -0.2946600    -0.4360860     0.1655790
  O       -1.5657890     0.5673500    -0.1009940
  O       -0.3508230    -1.5212030    -0.8163730
  O       -0.2159750    -0.7550950     1.5921100
  C        2.3621670     0.3010360     0.2220870
  C        0.9741440     0.7483390    -0.2426020
  C        2.8380310    -0.9649040    -0.4891310
  C        3.3410260     1.4538450    -0.0023010
  C       -2.8589370    -0.1133030    -0.1019100
  C       -3.9021700     0.9699320    -0.2416680
  H        2.2983390     0.1006560     1.2981690
  H        0.9320730     0.8904060    -1.3271310
  H        0.6744950     1.6778970     0.2503870
  H        2.8691440    -0.8060450    -1.5725570
  H        2.1878640    -1.8202610    -0.2948070
  H        3.8478330    -1.2217420    -0.1555610
  H        3.4181100     1.6939920    -1.0681710
  H        3.0282660     2.3570280     0.5308300
  H        4.3384750     1.1791220     0.3530350
  H       -2.8762586    -0.8051482    -0.9476894
  H       -2.9674710    -0.6619300     0.8385710
  H       -3.8465560     1.6647390     0.5984370
  H       -3.7534550     1.5250040    -1.1701160
  H       -4.8990420     0.5201230    -0.2596090
units angstrom
no_reorient  #important for SAPT in psi4, default
symmetry c1  #important for SAPT in psi4, default
}

set PROPERTIES_ORIGIN ["COM"]
properties('MP2/aug-cc-pvtz', properties = ['dipole'])
--------------------------------------------------------------------------

    Molecular point group: c1
  Charge       = 0
  Multiplicity = 1
  Basis Set: AUG-CC-PVTZ
    Blend: AUG-CC-PVTZ
  Basis Set: (AUG-CC-PVTZ AUX)
    Blend: AUG-CC-PVTZ-JKFIT

    Orbital Energies [Eh]
    ---------------------

    Doubly Occupied:

       1A    -92.213779     2A    -20.614692     3A    -20.553626
       4A    -20.553515     5A    -11.301972     6A    -11.278096
       7A    -11.251472     8A    -11.232923     9A    -11.229514
      10A    -11.218600    11A     -9.178027    12A     -6.863481
      13A     -6.862038    14A     -6.861863    15A     -1.480984
      16A     -1.375040    17A     -1.337382    18A     -1.120918
      19A     -1.051630    20A     -0.996723    21A     -0.942328
      22A     -0.876921    23A     -0.830361    24A     -0.788002
      25A     -0.725007    26A     -0.693453    27A     -0.690578
      28A     -0.657070    29A     -0.635193    30A     -0.616132
      31A     -0.606655    32A     -0.586678    33A     -0.567193
      34A     -0.558864    35A     -0.554632    36A     -0.543532
      37A     -0.536929    38A     -0.510029    39A     -0.499650
      40A     -0.497270    41A     -0.490534    42A     -0.485479
      43A     -0.482575    44A     -0.463386    45A     -0.453610

  @DF-RHF Final Energy:  -857.62649069780900

   => Energetics <=

    Nuclear Repulsion Energy =            722.5837479403643329
    One-Electron Energy =               -2612.6837987339358733
    Two-Electron Energy =                1032.4735600957624229
    Total Energy =                       -857.6264906978090039
  Basis Set: (AUG-CC-PVTZ AUX)
    Blend: AUG-CC-PVTZ-RI
    Molecular point group: c1

    Geometry (in Angstrom), charge = 0, multiplicity = 1:

       Center              X                  Y                   Z               Mass
    ------------   -----------------  -----------------  -----------------  -----------------
         S           -0.263423130160    -0.398783927095     0.148291031221    31.972071174400
         O           -1.534552130160     0.604652072905    -0.118281968779    15.994914619570
         O           -0.319586130160    -1.483900927095    -0.833660968779    15.994914619570
         O           -0.184738130160    -0.717792927095     1.574822031221    15.994914619570
         C            2.393403869840     0.338338072905     0.204799031221    12.000000000000
         C            1.005380869840     0.785641072905    -0.259889968779    12.000000000000
         C            2.869267869840    -0.927601927095    -0.506418968779    12.000000000000
         C            3.372262869840     1.491147072905    -0.019588968779    12.000000000000
         C           -2.827700130160    -0.076000927095    -0.119197968779    12.000000000000
         C           -3.870933130160     1.007234072905    -0.258955968779    12.000000000000
         H            2.329575869840     0.137958072905     1.280881031221     1.007825032230
         H            0.963309869840     0.927708072905    -1.344418968779     1.007825032230
         H            0.705731869840     1.715199072905     0.233099031221     1.007825032230
         H            2.900380869840    -0.768742927095    -1.589844968779     1.007825032230
         H            2.219100869840    -1.782958927095    -0.312094968779     1.007825032230
         H            3.879069869840    -1.184439927095    -0.172848968779     1.007825032230
         H            3.449346869840     1.731294072905    -1.085458968779     1.007825032230
         H            3.059502869840     2.394330072905     0.513542031221     1.007825032230
         H            4.369711869840     1.216424072905     0.335747031221     1.007825032230
         H           -2.845021730160    -0.767846127095    -0.964977368779     1.007825032230
         H           -2.936234130160    -0.624627927095     0.821283031221     1.007825032230
         H           -3.815319130160     1.702041072905     0.581149031221     1.007825032230
         H           -3.722218130160     1.562306072905    -1.187403968779     1.007825032230
         H           -4.867805130160     0.557425072905    -0.276896968779     1.007825032230

  Basis Set: AUG-CC-PVTZ
    Blend: AUG-CC-PVTZ
  Basis Set: (AUG-CC-PVTZ AUX)
    Blend: AUG-CC-PVTZ-JKFIT
	 Reference Energy          =    -857.6264906978090039 [Eh]
	 Singles Energy            =      -0.0000000000000000 [Eh]
	 Same-Spin Energy          =      -0.5252890983312188 [Eh]
	 Opposite-Spin Energy      =      -1.6808104631143690 [Eh]
	 Correlation Energy        =      -2.2060995614455878 [Eh]
	 Total Energy              =    -859.8325902592546299 [Eh]

	 ================> DF-SCS-MP2 Energies <==================
	-----------------------------------------------------------
	 SCS Same-Spin Scale       =       0.3333333333333333 [-]
	 SCS Opposite-Spin Scale   =       1.2000000000000000 [-]
	 SCS Same-Spin Energy      =      -0.1750963661104063 [Eh]
	 SCS Opposite-Spin Energy  =      -2.0169725557372429 [Eh]
	 SCS Correlation Energy    =      -2.1920689218476492 [Eh]
	 SCS Total Energy          =    -859.8185596196566394 [Eh]
	-----------------------------------------------------------

  Dipole Moment: [D]
     X:    -0.0692      Y:     2.7132      Z:    -1.0465     Total:     2.9089

*** Psi4 exiting successfully. Buy a developer a beer!
