                               Psi4 1.4a3.dev225

  ==> Input File <==

--------------------------------------------------------------------------
#psi4
#
memory 32 gb

molecule  {
0 1
  S       -0.3695546    -0.5224543     0.1729834
  O       -1.5657890     0.5673500    -0.1009940
  O       -0.3508230    -1.5212030    -0.8163730
  O       -0.2159750    -0.7550950     1.5921100
  C        2.3621670     0.3010360     0.2220870
  C        0.9741440     0.7483390    -0.2426020
  C        2.8380310    -0.9649040    -0.4891310
  C        3.3410260     1.4538450    -0.0023010
  C       -2.8589370    -0.1133030    -0.1019100
  C       -3.9021700     0.9699320    -0.2416680
  H        2.2983390     0.1006560     1.2981690
  H        0.9320730     0.8904060    -1.3271310
  H        0.6744950     1.6778970     0.2503870
  H        2.8691440    -0.8060450    -1.5725570
  H        2.1878640    -1.8202610    -0.2948070
  H        3.8478330    -1.2217420    -0.1555610
  H        3.4181100     1.6939920    -1.0681710
  H        3.0282660     2.3570280     0.5308300
  H        4.3384750     1.1791220     0.3530350
  H       -2.8783840    -0.8196920    -0.9355340
  H       -2.9674710    -0.6619300     0.8385710
  H       -3.8465560     1.6647390     0.5984370
  H       -3.7534550     1.5250040    -1.1701160
  H       -4.8990420     0.5201230    -0.2596090
units angstrom
no_reorient  #important for SAPT in psi4, default
symmetry c1  #important for SAPT in psi4, default
}

set PROPERTIES_ORIGIN ["COM"]
properties('MP2/aug-cc-pvtz', properties = ['dipole'])
--------------------------------------------------------------------------

    Molecular point group: c1
  Charge       = 0
  Multiplicity = 1
  Basis Set: AUG-CC-PVTZ
    Blend: AUG-CC-PVTZ
  Basis Set: (AUG-CC-PVTZ AUX)
    Blend: AUG-CC-PVTZ-JKFIT

    Orbital Energies [Eh]
    ---------------------

    Doubly Occupied:

       1A    -92.210262     2A    -20.618892     3A    -20.568325
       4A    -20.558484     5A    -11.305163     6A    -11.265957
       7A    -11.241152     8A    -11.235253     9A    -11.222621
      10A    -11.214039    11A     -9.175178    12A     -6.860634
      13A     -6.859585    14A     -6.858926    15A     -1.502643
      16A     -1.391714    17A     -1.364796    18A     -1.103705
      19A     -1.049974    20A     -0.970847    21A     -0.936220
      22A     -0.875446    23A     -0.834351    24A     -0.780437
      25A     -0.726713    26A     -0.699085    27A     -0.692373
      28A     -0.655937    29A     -0.639256    30A     -0.616345
      31A     -0.606426    32A     -0.584104    33A     -0.568415
      34A     -0.562318    35A     -0.553960    36A     -0.544261
      37A     -0.538073    38A     -0.515362    39A     -0.509759
      40A     -0.504161    41A     -0.490761    42A     -0.481932
      43A     -0.476153    44A     -0.473935    45A     -0.431691

  @DF-RHF Final Energy:  -857.61522057295826

   => Energetics <=

    Nuclear Repulsion Energy =            722.3504738631100963
    One-Electron Energy =               -2612.1801451298197208
    Two-Electron Energy =                1032.2144506937515871
    Total Energy =                       -857.6152205729581510
  Basis Set: (AUG-CC-PVTZ AUX)
    Blend: AUG-CC-PVTZ-RI
    Molecular point group: c1

    Geometry (in Angstrom), charge = 0, multiplicity = 1:

       Center              X                  Y                   Z               Mass
    ------------   -----------------  -----------------  -----------------  -----------------
         S           -0.323885683634    -0.468435831620     0.154196123884    31.972071174400
         O           -1.520120083634     0.621368468380    -0.119781276116    15.994914619570
         O           -0.305154083634    -1.467184531620    -0.835160276116    15.994914619570
         O           -0.170306083634    -0.701076531620     1.573322723884    15.994914619570
         C            2.407835916366     0.355054468380     0.203299723884    12.000000000000
         C            1.019812916366     0.802357468380    -0.261389276116    12.000000000000
         C            2.883699916366    -0.910885531620    -0.507918276116    12.000000000000
         C            3.386694916366     1.507863468380    -0.021088276116    12.000000000000
         C           -2.813268083634    -0.059284531620    -0.120697276116    12.000000000000
         C           -3.856501083634     1.023950468380    -0.260455276116    12.000000000000
         H            2.344007916366     0.154674468380     1.279381723884     1.007825032230
         H            0.977741916366     0.944424468380    -1.345918276116     1.007825032230
         H            0.720163916366     1.731915468380     0.231599723884     1.007825032230
         H            2.914812916366    -0.752026531620    -1.591344276116     1.007825032230
         H            2.233532916366    -1.766242531620    -0.313594276116     1.007825032230
         H            3.893501916366    -1.167723531620    -0.174348276116     1.007825032230
         H            3.463778916366     1.748010468380    -1.086958276116     1.007825032230
         H            3.073934916366     2.411046468380     0.512042723884     1.007825032230
         H            4.384143916366     1.233140468380     0.334247723884     1.007825032230
         H           -2.832715083634    -0.765673531620    -0.954321276116     1.007825032230
         H           -2.921802083634    -0.607911531620     0.819783723884     1.007825032230
         H           -3.800887083634     1.718757468380     0.579649723884     1.007825032230
         H           -3.707786083634     1.579022468380    -1.188903276116     1.007825032230
         H           -4.853373083634     0.574141468380    -0.278396276116     1.007825032230

  Basis Set: AUG-CC-PVTZ
    Blend: AUG-CC-PVTZ
  Basis Set: (AUG-CC-PVTZ AUX)
    Blend: AUG-CC-PVTZ-JKFIT
	 Reference Energy          =    -857.6152205729582647 [Eh]
	 Singles Energy            =      -0.0000000000000000 [Eh]
	 Same-Spin Energy          =      -0.5243431331263781 [Eh]
	 Opposite-Spin Energy      =      -1.6800818065284480 [Eh]
	 Correlation Energy        =      -2.2044249396548263 [Eh]
	 Total Energy              =    -859.8196455126130786 [Eh]

	 ================> DF-SCS-MP2 Energies <==================
	-----------------------------------------------------------
	 SCS Same-Spin Scale       =       0.3333333333333333 [-]
	 SCS Opposite-Spin Scale   =       1.2000000000000000 [-]
	 SCS Same-Spin Energy      =      -0.1747810443754594 [Eh]
	 SCS Opposite-Spin Energy  =      -2.0160981678341376 [Eh]
	 SCS Correlation Energy    =      -2.1908792122095968 [Eh]
	 SCS Total Energy          =    -859.8060997851678167 [Eh]
	-----------------------------------------------------------

  Dipole Moment: [D]
     X:    -0.8064      Y:     2.0231      Z:    -1.0085     Total:     2.4001

*** Psi4 exiting successfully. Buy a developer a beer!
