                               Psi4 1.4a3.dev225

  ==> Input File <==

--------------------------------------------------------------------------
#psi4
#
memory 32 gb

molecule  {
0 1
  S       -0.2946600    -0.4360860     0.1655790
  O       -1.5657890     0.5673500    -0.1009940
  O       -0.3508230    -1.5212030    -0.8163730
  O       -0.2159750    -0.7550950     1.5921100
  C        2.3621670     0.3010360     0.2220870
  C        0.9741440     0.7483390    -0.2426020
  C        2.8380310    -0.9649040    -0.4891310
  C        3.3410260     1.4538450    -0.0023010
  C       -2.8589370    -0.1133030    -0.1019100
  C       -3.9021700     0.9699320    -0.2416680
  H        2.2983390     0.1006560     1.2981690
  H        0.9320730     0.8904060    -1.3271310
  H        0.6744950     1.6778970     0.2503870
  H        2.8691440    -0.8060450    -1.5725570
  H        2.1878640    -1.8202610    -0.2948070
  H        3.8478330    -1.2217420    -0.1555610
  H        3.4181100     1.6939920    -1.0681710
  H        3.0282660     2.3570280     0.5308300
  H        4.3384750     1.1791220     0.3530350
  H       -2.8783840    -0.8196920    -0.9355340
  H       -2.9674710    -0.6619300     0.8385710
  H       -3.8465560     1.6647390     0.5984370
  H       -3.7507310     1.5351711    -1.1871222
  H       -4.8990420     0.5201230    -0.2596090
units angstrom
no_reorient  #important for SAPT in psi4, default
symmetry c1  #important for SAPT in psi4, default
}

set PROPERTIES_ORIGIN ["COM"]
properties('MP2/aug-cc-pvtz', properties = ['dipole'])
--------------------------------------------------------------------------

    Molecular point group: c1
  Charge       = 0
  Multiplicity = 1
  Basis Set: AUG-CC-PVTZ
    Blend: AUG-CC-PVTZ
  Basis Set: (AUG-CC-PVTZ AUX)
    Blend: AUG-CC-PVTZ-JKFIT

    Orbital Energies [Eh]
    ---------------------

    Doubly Occupied:

       1A    -92.213859     2A    -20.614949     3A    -20.553712
       4A    -20.553574     5A    -11.302144     6A    -11.278141
       7A    -11.251504     8A    -11.235440     9A    -11.229536
      10A    -11.218628    11A     -9.178108    12A     -6.863564
      13A     -6.862119    14A     -6.861944    15A     -1.481073
      16A     -1.375121    17A     -1.337454    18A     -1.120948
      19A     -1.050994    20A     -0.996457    21A     -0.942353
      22A     -0.876120    23A     -0.830492    24A     -0.788051
      25A     -0.725258    26A     -0.692738    27A     -0.690651
      28A     -0.656513    29A     -0.635016    30A     -0.616143
      31A     -0.606367    32A     -0.586756    33A     -0.566926
      34A     -0.557901    35A     -0.554766    36A     -0.543567
      37A     -0.536255    38A     -0.510025    39A     -0.500057
      40A     -0.496546    41A     -0.490431    42A     -0.485424
      43A     -0.482559    44A     -0.463353    45A     -0.453682

  @DF-RHF Final Energy:  -857.62601818191604

   => Energetics <=

    Nuclear Repulsion Energy =            722.4924748164348784
    One-Electron Energy =               -2612.5025540638275743
    Two-Electron Energy =                1032.3840610654765442
    Total Energy =                       -857.6260181819161517
  Basis Set: (AUG-CC-PVTZ AUX)
    Blend: AUG-CC-PVTZ-RI
    Molecular point group: c1

    Geometry (in Angstrom), charge = 0, multiplicity = 1:

       Center              X                  Y                   Z               Mass
    ------------   -----------------  -----------------  -----------------  -----------------
         S           -0.263426762949    -0.398757365739     0.148320469799    31.972071174400
         O           -1.534555762949     0.604678634261    -0.118252530201    15.994914619570
         O           -0.319589762949    -1.483874365739    -0.833631530201    15.994914619570
         O           -0.184741762949    -0.717766365739     1.574851469799    15.994914619570
         C            2.393400237051     0.338364634261     0.204828469799    12.000000000000
         C            1.005377237051     0.785667634261    -0.259860530201    12.000000000000
         C            2.869264237051    -0.927575365739    -0.506389530201    12.000000000000
         C            3.372259237051     1.491173634261    -0.019559530201    12.000000000000
         C           -2.827703762949    -0.075974365739    -0.119168530201    12.000000000000
         C           -3.870936762949     1.007260634261    -0.258926530201    12.000000000000
         H            2.329572237051     0.137984634261     1.280910469799     1.007825032230
         H            0.963306237051     0.927734634261    -1.344389530201     1.007825032230
         H            0.705728237051     1.715225634261     0.233128469799     1.007825032230
         H            2.900377237051    -0.768716365739    -1.589815530201     1.007825032230
         H            2.219097237051    -1.782932365739    -0.312065530201     1.007825032230
         H            3.879066237051    -1.184413365739    -0.172819530201     1.007825032230
         H            3.449343237051     1.731320634261    -1.085429530201     1.007825032230
         H            3.059499237051     2.394356634261     0.513571469799     1.007825032230
         H            4.369708237051     1.216450634261     0.335776469799     1.007825032230
         H           -2.847150762949    -0.782363365739    -0.952792530201     1.007825032230
         H           -2.936237762949    -0.624601365739     0.821312469799     1.007825032230
         H           -3.815322762949     1.702067634261     0.581178469799     1.007825032230
         H           -3.719497762949     1.572499734261    -1.204380730201     1.007825032230
         H           -4.867808762949     0.557451634261    -0.276867530201     1.007825032230

  Basis Set: AUG-CC-PVTZ
    Blend: AUG-CC-PVTZ
  Basis Set: (AUG-CC-PVTZ AUX)
    Blend: AUG-CC-PVTZ-JKFIT
	 Reference Energy          =    -857.6260181819160380 [Eh]
	 Singles Energy            =      -0.0000000000000000 [Eh]
	 Same-Spin Energy          =      -0.5252807760059220 [Eh]
	 Opposite-Spin Energy      =      -1.6809160753570815 [Eh]
	 Correlation Energy        =      -2.2061968513630035 [Eh]
	 Total Energy              =    -859.8322150332789988 [Eh]

	 ================> DF-SCS-MP2 Energies <==================
	-----------------------------------------------------------
	 SCS Same-Spin Scale       =       0.3333333333333333 [-]
	 SCS Opposite-Spin Scale   =       1.2000000000000000 [-]
	 SCS Same-Spin Energy      =      -0.1750935920019740 [Eh]
	 SCS Opposite-Spin Energy  =      -2.0170992904284977 [Eh]
	 SCS Correlation Energy    =      -2.1921928824304717 [Eh]
	 SCS Total Energy          =    -859.8182110643465421 [Eh]
	-----------------------------------------------------------

  Dipole Moment: [D]
     X:    -0.0639      Y:     2.7033      Z:    -1.0370     Total:     2.8961

*** Psi4 exiting successfully. Buy a developer a beer!
