                               Psi4 1.4a3.dev225

  ==> Input File <==

--------------------------------------------------------------------------
#psi4
#
memory 32 gb

molecule  {
0 1
  S       -0.2946600    -0.4360860     0.1655790
  O       -1.5657890     0.5673500    -0.1009940
  O       -0.3508230    -1.5212030    -0.8163730
  O       -0.2159750    -0.7550950     1.5921100
  C        2.3621670     0.3010360     0.2220870
  C        0.9741440     0.7483390    -0.2426020
  C        2.8380310    -0.9649040    -0.4891310
  C        3.3410260     1.4538450    -0.0023010
  C       -2.8589370    -0.1133030    -0.1019100
  C       -3.9021700     0.9699320    -0.2416680
  H        2.2983390     0.1006560     1.2981690
  H        0.9320730     0.8904060    -1.3271310
  H        0.6881897     1.6354139     0.2278562
  H        2.8691440    -0.8060450    -1.5725570
  H        2.1878640    -1.8202610    -0.2948070
  H        3.8478330    -1.2217420    -0.1555610
  H        3.4181100     1.6939920    -1.0681710
  H        3.0282660     2.3570280     0.5308300
  H        4.3384750     1.1791220     0.3530350
  H       -2.8783840    -0.8196920    -0.9355340
  H       -2.9674710    -0.6619300     0.8385710
  H       -3.8465560     1.6647390     0.5984370
  H       -3.7534550     1.5250040    -1.1701160
  H       -4.8990420     0.5201230    -0.2596090
units angstrom
no_reorient  #important for SAPT in psi4, default
symmetry c1  #important for SAPT in psi4, default
}

set PROPERTIES_ORIGIN ["COM"]
properties('MP2/aug-cc-pvtz', properties = ['dipole'])
--------------------------------------------------------------------------

    Molecular point group: c1
  Charge       = 0
  Multiplicity = 1
  Basis Set: AUG-CC-PVTZ
    Blend: AUG-CC-PVTZ
  Basis Set: (AUG-CC-PVTZ AUX)
    Blend: AUG-CC-PVTZ-JKFIT

    Orbital Energies [Eh]
    ---------------------

    Doubly Occupied:

       1A    -92.213678     2A    -20.615064     3A    -20.553628
       4A    -20.553453     5A    -11.302027     6A    -11.272741
       7A    -11.251294     8A    -11.233095     9A    -11.229616
      10A    -11.218354    11A     -9.177961    12A     -6.863412
      13A     -6.861966    14A     -6.861793    15A     -1.481087
      16A     -1.375162    17A     -1.337377    18A     -1.122515
      19A     -1.051744    20A     -0.999056    21A     -0.942410
      22A     -0.877765    23A     -0.831048    24A     -0.789432
      25A     -0.726338    26A     -0.693693    27A     -0.690692
      28A     -0.661507    29A     -0.636027    30A     -0.616552
      31A     -0.606787    32A     -0.587404    33A     -0.567899
      34A     -0.559486    35A     -0.554782    36A     -0.543691
      37A     -0.537574    38A     -0.510635    39A     -0.500066
      40A     -0.496978    41A     -0.490857    42A     -0.485629
      43A     -0.482557    44A     -0.463457    45A     -0.453806

  @DF-RHF Final Energy:  -857.62574506607700

   => Energetics <=

    Nuclear Repulsion Energy =            722.8606211608450849
    One-Electron Energy =               -2613.2085436361189750
    Two-Electron Energy =                1032.7221774091967745
    Total Energy =                       -857.6257450660771156
  Basis Set: (AUG-CC-PVTZ AUX)
    Blend: AUG-CC-PVTZ-RI
    Molecular point group: c1

    Geometry (in Angstrom), charge = 0, multiplicity = 1:

       Center              X                  Y                   Z               Mass
    ------------   -----------------  -----------------  -----------------  -----------------
         S           -0.263493342030    -0.398437841739     0.148353997540    31.972071174400
         O           -1.534622342030     0.604998158261    -0.118219002460    15.994914619570
         O           -0.319656342030    -1.483554841739    -0.833598002460    15.994914619570
         O           -0.184808342030    -0.717446841739     1.574884997540    15.994914619570
         C            2.393333657970     0.338684158261     0.204861997540    12.000000000000
         C            1.005310657970     0.785987158261    -0.259827002460    12.000000000000
         C            2.869197657970    -0.927255841739    -0.506356002460    12.000000000000
         C            3.372192657970     1.491493158261    -0.019526002460    12.000000000000
         C           -2.827770342030    -0.075654841739    -0.119135002460    12.000000000000
         C           -3.871003342030     1.007580158261    -0.258893002460    12.000000000000
         H            2.329505657970     0.138304158261     1.280943997540     1.007825032230
         H            0.963239657970     0.928054158261    -1.344356002460     1.007825032230
         H            0.719356357970     1.673062058261     0.210631197540     1.007825032230
         H            2.900310657970    -0.768396841739    -1.589782002460     1.007825032230
         H            2.219030657970    -1.782612841739    -0.312032002460     1.007825032230
         H            3.878999657970    -1.184093841739    -0.172786002460     1.007825032230
         H            3.449276657970     1.731640158261    -1.085396002460     1.007825032230
         H            3.059432657970     2.394676158261     0.513604997540     1.007825032230
         H            4.369641657970     1.216770158261     0.335809997540     1.007825032230
         H           -2.847217342030    -0.782043841739    -0.952759002460     1.007825032230
         H           -2.936304342030    -0.624281841739     0.821345997540     1.007825032230
         H           -3.815389342030     1.702387158261     0.581211997540     1.007825032230
         H           -3.722288342030     1.562652158261    -1.187341002460     1.007825032230
         H           -4.867875342030     0.557771158261    -0.276834002460     1.007825032230

  Basis Set: AUG-CC-PVTZ
    Blend: AUG-CC-PVTZ
  Basis Set: (AUG-CC-PVTZ AUX)
    Blend: AUG-CC-PVTZ-JKFIT
	 Reference Energy          =    -857.6257450660770019 [Eh]
	 Singles Energy            =      -0.0000000000000000 [Eh]
	 Same-Spin Energy          =      -0.5251826591671983 [Eh]
	 Opposite-Spin Energy      =      -1.6804196917066954 [Eh]
	 Correlation Energy        =      -2.2056023508738938 [Eh]
	 Total Energy              =    -859.8313474169508481 [Eh]

	 ================> DF-SCS-MP2 Energies <==================
	-----------------------------------------------------------
	 SCS Same-Spin Scale       =       0.3333333333333333 [-]
	 SCS Opposite-Spin Scale   =       1.2000000000000000 [-]
	 SCS Same-Spin Energy      =      -0.1750608863890661 [Eh]
	 SCS Opposite-Spin Energy  =      -2.0165036300480343 [Eh]
	 SCS Correlation Energy    =      -2.1915645164371003 [Eh]
	 SCS Total Energy          =    -859.8173095825140990 [Eh]
	-----------------------------------------------------------

  Dipole Moment: [D]
     X:    -0.0719      Y:     2.7141      Z:    -1.0447     Total:     2.9091

*** Psi4 exiting successfully. Buy a developer a beer!
