                               Psi4 1.4a3.dev225

  ==> Input File <==

--------------------------------------------------------------------------
#psi4
#
memory 32 gb

molecule  {
0 1
  S       -0.2946600    -0.4360860     0.1655790
  O       -1.5657890     0.5673500    -0.1009940
  O       -0.3508230    -1.5212030    -0.8163730
  O       -0.2159750    -0.7550950     1.5921100
  C        2.3621670     0.3010360     0.2220870
  C        0.9741440     0.7483390    -0.2426020
  C        2.8380310    -0.9649040    -0.4891310
  C        3.3410260     1.4538450    -0.0023010
  C       -2.8589370    -0.1133030    -0.1019100
  C       -3.9021700     0.9699320    -0.2416680
  H        2.2983390     0.1006560     1.2981690
  H        0.9320730     0.8904060    -1.3271310
  H        0.6744950     1.6778970     0.2503870
  H        2.8691440    -0.8060450    -1.5725570
  H        2.1759544    -1.8359292    -0.2912474
  H        3.8478330    -1.2217420    -0.1555610
  H        3.4181100     1.6939920    -1.0681710
  H        3.0282660     2.3570280     0.5308300
  H        4.3384750     1.1791220     0.3530350
  H       -2.8783840    -0.8196920    -0.9355340
  H       -2.9674710    -0.6619300     0.8385710
  H       -3.8465560     1.6647390     0.5984370
  H       -3.7534550     1.5250040    -1.1701160
  H       -4.8990420     0.5201230    -0.2596090
units angstrom
no_reorient  #important for SAPT in psi4, default
symmetry c1  #important for SAPT in psi4, default
}

set PROPERTIES_ORIGIN ["COM"]
properties('MP2/aug-cc-pvtz', properties = ['dipole'])
--------------------------------------------------------------------------

    Molecular point group: c1
  Charge       = 0
  Multiplicity = 1
  Basis Set: AUG-CC-PVTZ
    Blend: AUG-CC-PVTZ
  Basis Set: (AUG-CC-PVTZ AUX)
    Blend: AUG-CC-PVTZ-JKFIT

    Orbital Energies [Eh]
    ---------------------

    Doubly Occupied:

       1A    -92.213803     2A    -20.614878     3A    -20.553591
       4A    -20.553499     5A    -11.301896     6A    -11.278147
       7A    -11.251648     8A    -11.233022     9A    -11.229673
      10A    -11.220863    11A     -9.178049    12A     -6.863505
      13A     -6.862061    14A     -6.861885    15A     -1.480997
      16A     -1.375050    17A     -1.337371    18A     -1.120854
      19A     -1.051482    20A     -0.996609    21A     -0.941040
      22A     -0.876954    23A     -0.830691    24A     -0.787738
      25A     -0.725184    26A     -0.692823    27A     -0.690649
      28A     -0.656629    29A     -0.634967    30A     -0.615120
      31A     -0.606652    32A     -0.586239    33A     -0.567180
      34A     -0.558863    35A     -0.554250    36A     -0.543724
      37A     -0.537324    38A     -0.509053    39A     -0.500008
      40A     -0.496885    41A     -0.490227    42A     -0.485305
      43A     -0.482418    44A     -0.463297    45A     -0.453232

  @DF-RHF Final Energy:  -857.62595542013980

   => Energetics <=

    Nuclear Repulsion Energy =            722.5087980572886863
    One-Electron Energy =               -2612.5388423478834738
    Two-Electron Energy =                1032.4040888704550980
    Total Energy =                       -857.6259554201396895
  Basis Set: (AUG-CC-PVTZ AUX)
    Blend: AUG-CC-PVTZ-RI
    Molecular point group: c1

    Geometry (in Angstrom), charge = 0, multiplicity = 1:

       Center              X                  Y                   Z               Mass
    ------------   -----------------  -----------------  -----------------  -----------------
         S           -0.263337954427    -0.398600576242     0.148195659889    31.972071174400
         O           -1.534466954427     0.604835423758    -0.118377340111    15.994914619570
         O           -0.319500954427    -1.483717576242    -0.833756340111    15.994914619570
         O           -0.184652954427    -0.717609576242     1.574726659889    15.994914619570
         C            2.393489045573     0.338521423758     0.204703659889    12.000000000000
         C            1.005466045573     0.785824423758    -0.259985340111    12.000000000000
         C            2.869353045573    -0.927418576242    -0.506514340111    12.000000000000
         C            3.372348045573     1.491330423758    -0.019684340111    12.000000000000
         C           -2.827614954427    -0.075817576242    -0.119293340111    12.000000000000
         C           -3.870847954427     1.007417423758    -0.259051340111    12.000000000000
         H            2.329661045573     0.138141423758     1.280785659889     1.007825032230
         H            0.963395045573     0.927891423758    -1.344514340111     1.007825032230
         H            0.705817045573     1.715382423758     0.233003659889     1.007825032230
         H            2.900466045573    -0.768559576242    -1.589940340111     1.007825032230
         H            2.207276445573    -1.798443776242    -0.308630740111     1.007825032230
         H            3.879155045573    -1.184256576242    -0.172944340111     1.007825032230
         H            3.449432045573     1.731477423758    -1.085554340111     1.007825032230
         H            3.059588045573     2.394513423758     0.513446659889     1.007825032230
         H            4.369797045573     1.216607423758     0.335651659889     1.007825032230
         H           -2.847061954427    -0.782206576242    -0.952917340111     1.007825032230
         H           -2.936148954427    -0.624444576242     0.821187659889     1.007825032230
         H           -3.815233954427     1.702224423758     0.581053659889     1.007825032230
         H           -3.722132954427     1.562489423758    -1.187499340111     1.007825032230
         H           -4.867719954427     0.557608423758    -0.276992340111     1.007825032230

  Basis Set: AUG-CC-PVTZ
    Blend: AUG-CC-PVTZ
  Basis Set: (AUG-CC-PVTZ AUX)
    Blend: AUG-CC-PVTZ-JKFIT
	 Reference Energy          =    -857.6259554201398032 [Eh]
	 Singles Energy            =      -0.0000000000000000 [Eh]
	 Same-Spin Energy          =      -0.5253172765401677 [Eh]
	 Opposite-Spin Energy      =      -1.6809569751770983 [Eh]
	 Correlation Energy        =      -2.2062742517172662 [Eh]
	 Total Energy              =    -859.8322296718570215 [Eh]

	 ================> DF-SCS-MP2 Energies <==================
	-----------------------------------------------------------
	 SCS Same-Spin Scale       =       0.3333333333333333 [-]
	 SCS Opposite-Spin Scale   =       1.2000000000000000 [-]
	 SCS Same-Spin Energy      =      -0.1751057588467226 [Eh]
	 SCS Opposite-Spin Energy  =      -2.0171483702125177 [Eh]
	 SCS Correlation Energy    =      -2.1922541290592403 [Eh]
	 SCS Total Energy          =    -859.8182095491990822 [Eh]
	-----------------------------------------------------------

  Dipole Moment: [D]
     X:    -0.0635      Y:     2.7160      Z:    -1.0447     Total:     2.9107

*** Psi4 exiting successfully. Buy a developer a beer!
