                               Psi4 1.4a3.dev225

  ==> Input File <==

--------------------------------------------------------------------------
#psi4
#
memory 32 gb

molecule  {
0 1
  S       -0.2946600    -0.4360860     0.1655790
  O       -1.5657890     0.5673500    -0.1009940
  O       -0.3508230    -1.5212030    -0.8163730
  O       -0.2159750    -0.7550950     1.5921100
  C        2.3621670     0.3010360     0.2220870
  C        0.9741440     0.7483390    -0.2426020
  C        2.8380310    -0.9649040    -0.4891310
  C        3.3410260     1.4538450    -0.0023010
  C       -2.8589370    -0.1133030    -0.1019100
  C       -3.9021700     0.9699320    -0.2416680
  H        2.2983390     0.1006560     1.2981690
  H        0.9320730     0.8904060    -1.3271310
  H        0.6744950     1.6778970     0.2503870
  H        2.8691440    -0.8060450    -1.5725570
  H        2.1878640    -1.8202610    -0.2948070
  H        3.8478330    -1.2217420    -0.1555610
  H        3.4181100     1.6939920    -1.0681710
  H        3.0282660     2.3570280     0.5308300
  H        4.3384750     1.1791220     0.3530350
  H       -2.8774943    -0.7873730    -0.8973936
  H       -2.9674710    -0.6619300     0.8385710
  H       -3.8465560     1.6647390     0.5984370
  H       -3.7534550     1.5250040    -1.1701160
  H       -4.8990420     0.5201230    -0.2596090
units angstrom
no_reorient  #important for SAPT in psi4, default
symmetry c1  #important for SAPT in psi4, default
}

set PROPERTIES_ORIGIN ["COM"]
properties('MP2/aug-cc-pvtz', properties = ['dipole'])
--------------------------------------------------------------------------

    Molecular point group: c1
  Charge       = 0
  Multiplicity = 1
  Basis Set: AUG-CC-PVTZ
    Blend: AUG-CC-PVTZ
  Basis Set: (AUG-CC-PVTZ AUX)
    Blend: AUG-CC-PVTZ-JKFIT

    Orbital Energies [Eh]
    ---------------------

    Doubly Occupied:

       1A    -92.213731     2A    -20.614338     3A    -20.553725
       4A    -20.553432     5A    -11.296265     6A    -11.278036
       7A    -11.251431     8A    -11.232784     9A    -11.229482
      10A    -11.218586    11A     -9.177979    12A     -6.863431
      13A     -6.861992    14A     -6.861819    15A     -1.480928
      16A     -1.374961    17A     -1.337395    18A     -1.120919
      19A     -1.053338    20A     -0.996849    21A     -0.942305
      22A     -0.878967    23A     -0.834073    24A     -0.787977
      25A     -0.725329    26A     -0.696070    27A     -0.690898
      28A     -0.657462    29A     -0.636071    30A     -0.616072
      31A     -0.606748    32A     -0.586737    33A     -0.567135
      34A     -0.558756    35A     -0.554559    36A     -0.543719
      37A     -0.538234    38A     -0.510389    39A     -0.502596
      40A     -0.497516    41A     -0.490502    42A     -0.485574
      43A     -0.482667    44A     -0.463670    45A     -0.453543

  @DF-RHF Final Energy:  -857.62575706679536

   => Energetics <=

    Nuclear Repulsion Energy =            722.8252586975471559
    One-Electron Energy =               -2613.1440535709371034
    Two-Electron Energy =                1032.6930378065944751
    Total Energy =                       -857.6257570667953587
  Basis Set: (AUG-CC-PVTZ AUX)
    Blend: AUG-CC-PVTZ-RI
    Molecular point group: c1

    Geometry (in Angstrom), charge = 0, multiplicity = 1:

       Center              X                  Y                   Z               Mass
    ------------   -----------------  -----------------  -----------------  -----------------
         S           -0.263415630933    -0.398891801387     0.147985795623    31.972071174400
         O           -1.534544630933     0.604544198613    -0.118587204377    15.994914619570
         O           -0.319578630933    -1.484008801387    -0.833966204377    15.994914619570
         O           -0.184730630933    -0.717900801387     1.574516795623    15.994914619570
         C            2.393411369067     0.338230198613     0.204493795623    12.000000000000
         C            1.005388369067     0.785533198613    -0.260195204377    12.000000000000
         C            2.869275369067    -0.927709801387    -0.506724204377    12.000000000000
         C            3.372270369067     1.491039198613    -0.019894204377    12.000000000000
         C           -2.827692630933    -0.076108801387    -0.119503204377    12.000000000000
         C           -3.870925630933     1.007126198613    -0.259261204377    12.000000000000
         H            2.329583369067     0.137850198613     1.280575795623     1.007825032230
         H            0.963317369067     0.927600198613    -1.344724204377     1.007825032230
         H            0.705739369067     1.715091198613     0.232793795623     1.007825032230
         H            2.900388369067    -0.768850801387    -1.590150204377     1.007825032230
         H            2.219108369067    -1.783066801387    -0.312400204377     1.007825032230
         H            3.879077369067    -1.184547801387    -0.173154204377     1.007825032230
         H            3.449354369067     1.731186198613    -1.085764204377     1.007825032230
         H            3.059510369067     2.394222198613     0.513236795623     1.007825032230
         H            4.369719369067     1.216316198613     0.335441795623     1.007825032230
         H           -2.846249930933    -0.750178801387    -0.914986804377     1.007825032230
         H           -2.936226630933    -0.624735801387     0.820977795623     1.007825032230
         H           -3.815311630933     1.701933198613     0.580843795623     1.007825032230
         H           -3.722210630933     1.562198198613    -1.187709204377     1.007825032230
         H           -4.867797630933     0.557317198613    -0.277202204377     1.007825032230

  Basis Set: AUG-CC-PVTZ
    Blend: AUG-CC-PVTZ
  Basis Set: (AUG-CC-PVTZ AUX)
    Blend: AUG-CC-PVTZ-JKFIT
	 Reference Energy          =    -857.6257570667953587 [Eh]
	 Singles Energy            =      -0.0000000000000000 [Eh]
	 Same-Spin Energy          =      -0.5251874588556025 [Eh]
	 Opposite-Spin Energy      =      -1.6804042511069908 [Eh]
	 Correlation Energy        =      -2.2055917099625932 [Eh]
	 Total Energy              =    -859.8313487767579772 [Eh]

	 ================> DF-SCS-MP2 Energies <==================
	-----------------------------------------------------------
	 SCS Same-Spin Scale       =       0.3333333333333333 [-]
	 SCS Opposite-Spin Scale   =       1.2000000000000000 [-]
	 SCS Same-Spin Energy      =      -0.1750624862852008 [Eh]
	 SCS Opposite-Spin Energy  =      -2.0164851013283887 [Eh]
	 SCS Correlation Energy    =      -2.1915475876135893 [Eh]
	 SCS Total Energy          =    -859.8173046544089857 [Eh]
	-----------------------------------------------------------

  Dipole Moment: [D]
     X:    -0.0793      Y:     2.6985      Z:    -1.0525     Total:     2.8976

*** Psi4 exiting successfully. Buy a developer a beer!
