                               Psi4 1.4a3.dev225

  ==> Input File <==

--------------------------------------------------------------------------
#psi4
#
memory 32 gb

molecule  {
0 1
  S       -0.2946600    -0.4360860     0.1655790
  O       -1.5657890     0.5673500    -0.1009940
  O       -0.3508230    -1.5212030    -0.8163730
  O       -0.2159750    -0.7550950     1.5921100
  C        2.3621670     0.3010360     0.2220870
  C        0.9741440     0.7483390    -0.2426020
  C        2.8380310    -0.9649040    -0.4891310
  C        3.3410260     1.4538450    -0.0023010
  C       -2.8589370    -0.1133030    -0.1019100
  C       -3.9021700     0.9699320    -0.2416680
  H        2.2983390     0.1006560     1.2981690
  H        0.9320730     0.8904060    -1.3271310
  H        0.6744950     1.6778970     0.2503870
  H        2.8691440    -0.8060450    -1.5725570
  H        2.1878640    -1.8202610    -0.2948070
  H        3.8478330    -1.2217420    -0.1555610
  H        3.4181100     1.6939920    -1.0681710
  H        3.0282660     2.3570280     0.5308300
  H        4.3384750     1.1791220     0.3530350
  H       -2.8868201    -0.8756722    -0.8844113
  H       -2.9674710    -0.6619300     0.8385710
  H       -3.8465560     1.6647390     0.5984370
  H       -3.7534550     1.5250040    -1.1701160
  H       -4.8990420     0.5201230    -0.2596090
units angstrom
no_reorient  #important for SAPT in psi4, default
symmetry c1  #important for SAPT in psi4, default
}

set PROPERTIES_ORIGIN ["COM"]
properties('MP2/aug-cc-pvtz', properties = ['dipole'])
--------------------------------------------------------------------------

    Molecular point group: c1
  Charge       = 0
  Multiplicity = 1
  Basis Set: AUG-CC-PVTZ
    Blend: AUG-CC-PVTZ
  Basis Set: (AUG-CC-PVTZ AUX)
    Blend: AUG-CC-PVTZ-JKFIT

    Orbital Energies [Eh]
    ---------------------

    Doubly Occupied:

       1A    -92.214054     2A    -20.615734     3A    -20.553911
       4A    -20.553661     5A    -11.301686     6A    -11.278261
       7A    -11.251578     8A    -11.233509     9A    -11.229591
      10A    -11.218693    11A     -9.178303    12A     -6.863762
      13A     -6.862312    14A     -6.862137    15A     -1.481258
      16A     -1.375269    17A     -1.337589    18A     -1.121029
      19A     -1.051177    20A     -0.996780    21A     -0.942415
      22A     -0.877521    23A     -0.832493    24A     -0.788188
      25A     -0.726068    26A     -0.691194    27A     -0.690585
      28A     -0.655645    29A     -0.634425    30A     -0.616220
      31A     -0.607150    32A     -0.586919    33A     -0.567365
      34A     -0.558955    35A     -0.554771    36A     -0.543986
      37A     -0.539361    38A     -0.510063    39A     -0.501358
      40A     -0.495332    41A     -0.490213    42A     -0.485085
      43A     -0.482450    44A     -0.462961    45A     -0.453849

  @DF-RHF Final Energy:  -857.62579967279089

   => Energetics <=

    Nuclear Repulsion Energy =            722.5449795843425136
    One-Electron Energy =               -2612.5918285856241710
    Two-Electron Energy =                1032.4210493284908807
    Total Energy =                       -857.6257996727908903
  Basis Set: (AUG-CC-PVTZ AUX)
    Blend: AUG-CC-PVTZ-RI
    Molecular point group: c1

    Geometry (in Angstrom), charge = 0, multiplicity = 1:

       Center              X                  Y                   Z               Mass
    ------------   -----------------  -----------------  -----------------  -----------------
         S           -0.263359034435    -0.398355930418     0.147907008526    31.972071174400
         O           -1.534488034435     0.605080069582    -0.118665991474    15.994914619570
         O           -0.319522034435    -1.483472930418    -0.834044991474    15.994914619570
         O           -0.184674034435    -0.717364930418     1.574438008526    15.994914619570
         C            2.393467965565     0.338766069582     0.204415008526    12.000000000000
         C            1.005444965565     0.786069069582    -0.260273991474    12.000000000000
         C            2.869331965565    -0.927173930418    -0.506802991474    12.000000000000
         C            3.372326965565     1.491575069582    -0.019972991474    12.000000000000
         C           -2.827636034435    -0.075572930418    -0.119581991474    12.000000000000
         C           -3.870869034435     1.007662069582    -0.259339991474    12.000000000000
         H            2.329639965565     0.138386069582     1.280497008526     1.007825032230
         H            0.963373965565     0.928136069582    -1.344802991474     1.007825032230
         H            0.705795965565     1.715627069582     0.232715008526     1.007825032230
         H            2.900444965565    -0.768314930418    -1.590228991474     1.007825032230
         H            2.219164965565    -1.782530930418    -0.312478991474     1.007825032230
         H            3.879133965565    -1.184011930418    -0.173232991474     1.007825032230
         H            3.449410965565     1.731722069582    -1.085842991474     1.007825032230
         H            3.059566965565     2.394758069582     0.513158008526     1.007825032230
         H            4.369775965565     1.216852069582     0.335363008526     1.007825032230
         H           -2.855519134435    -0.837942130418    -0.902083291474     1.007825032230
         H           -2.936170034435    -0.624199930418     0.820899008526     1.007825032230
         H           -3.815255034435     1.702469069582     0.580765008526     1.007825032230
         H           -3.722154034435     1.562734069582    -1.187787991474     1.007825032230
         H           -4.867741034435     0.557853069582    -0.277280991474     1.007825032230

  Basis Set: AUG-CC-PVTZ
    Blend: AUG-CC-PVTZ
  Basis Set: (AUG-CC-PVTZ AUX)
    Blend: AUG-CC-PVTZ-JKFIT
	 Reference Energy          =    -857.6257996727908903 [Eh]
	 Singles Energy            =      -0.0000000000000000 [Eh]
	 Same-Spin Energy          =      -0.5253249720592635 [Eh]
	 Opposite-Spin Energy      =      -1.6808105778393170 [Eh]
	 Correlation Energy        =      -2.2061355498985806 [Eh]
	 Total Energy              =    -859.8319352226894807 [Eh]

	 ================> DF-SCS-MP2 Energies <==================
	-----------------------------------------------------------
	 SCS Same-Spin Scale       =       0.3333333333333333 [-]
	 SCS Opposite-Spin Scale   =       1.2000000000000000 [-]
	 SCS Same-Spin Energy      =      -0.1751083240197545 [Eh]
	 SCS Opposite-Spin Energy  =      -2.0169726934071801 [Eh]
	 SCS Correlation Energy    =      -2.1920810174269345 [Eh]
	 SCS Total Energy          =    -859.8178806902178621 [Eh]
	-----------------------------------------------------------

  Dipole Moment: [D]
     X:    -0.0523      Y:     2.6925      Z:    -1.0332     Total:     2.8844

*** Psi4 exiting successfully. Buy a developer a beer!
