                               Psi4 1.4a3.dev225

  ==> Input File <==

--------------------------------------------------------------------------
#psi4
#
memory 32 gb

molecule  {
0 1
  S       -0.2946600    -0.4360860     0.1655790
  O       -1.5657890     0.5673500    -0.1009940
  O       -0.3508230    -1.5212030    -0.8163730
  O       -0.2159750    -0.7550950     1.5921100
  C        2.3621670     0.3010360     0.2220870
  C        0.9741440     0.7483390    -0.2426020
  C        2.8380310    -0.9649040    -0.4891310
  C        3.3410260     1.4538450    -0.0023010
  C       -2.8146918    -0.0900144    -0.1018787
  C       -3.9021700     0.9699320    -0.2416680
  H        2.2983390     0.1006560     1.2981690
  H        0.9320730     0.8904060    -1.3271310
  H        0.6744950     1.6778970     0.2503870
  H        2.8691440    -0.8060450    -1.5725570
  H        2.1878640    -1.8202610    -0.2948070
  H        3.8478330    -1.2217420    -0.1555610
  H        3.4181100     1.6939920    -1.0681710
  H        3.0282660     2.3570280     0.5308300
  H        4.3384750     1.1791220     0.3530350
  H       -2.8783840    -0.8196920    -0.9355340
  H       -2.9674710    -0.6619300     0.8385710
  H       -3.8465560     1.6647390     0.5984370
  H       -3.7534550     1.5250040    -1.1701160
  H       -4.8990420     0.5201230    -0.2596090
units angstrom
no_reorient  #important for SAPT in psi4, default
symmetry c1  #important for SAPT in psi4, default
}

set PROPERTIES_ORIGIN ["COM"]
properties('MP2/aug-cc-pvtz', properties = ['dipole'])
--------------------------------------------------------------------------

    Molecular point group: c1
  Charge       = 0
  Multiplicity = 1
  Basis Set: AUG-CC-PVTZ
    Blend: AUG-CC-PVTZ
  Basis Set: (AUG-CC-PVTZ AUX)
    Blend: AUG-CC-PVTZ-JKFIT

    Orbital Energies [Eh]
    ---------------------

    Doubly Occupied:

       1A    -92.216915     2A    -20.620005     3A    -20.556189
       4A    -20.556143     5A    -11.300137     6A    -11.280326
       7A    -11.253041     8A    -11.231177     9A    -11.230699
      10A    -11.219805    11A     -9.181237    12A     -6.866735
      13A     -6.865197    14A     -6.865016    15A     -1.488634
      16A     -1.387445    17A     -1.339761    18A     -1.122822
      19A     -1.048555    20A     -0.996790    21A     -0.943549
      22A     -0.880231    23A     -0.829312    24A     -0.790342
      25A     -0.731712    26A     -0.696291    27A     -0.693542
      28A     -0.657410    29A     -0.635346    30A     -0.619803
      31A     -0.611970    32A     -0.588134    33A     -0.568805
      34A     -0.560196    35A     -0.556854    36A     -0.544726
      37A     -0.531939    38A     -0.511630    39A     -0.496699
      40A     -0.494562    41A     -0.491253    42A     -0.485539
      43A     -0.482498    44A     -0.463277    45A     -0.455989

  @DF-RHF Final Energy:  -857.62506297539596

   => Energetics <=

    Nuclear Repulsion Energy =            723.6032777828584130
    One-Electron Energy =               -2614.5602082624645845
    Two-Electron Energy =                1033.3318675042103223
    Total Energy =                       -857.6250629753958492
  Basis Set: (AUG-CC-PVTZ AUX)
    Blend: AUG-CC-PVTZ-RI
    Molecular point group: c1

    Geometry (in Angstrom), charge = 0, multiplicity = 1:

       Center              X                  Y                   Z               Mass
    ------------   -----------------  -----------------  -----------------  -----------------
         S           -0.266607401503    -0.400378504019     0.148215000675    31.972071174400
         O           -1.537736401503     0.603057495981    -0.118357999325    15.994914619570
         O           -0.322770401503    -1.485495504019    -0.833736999325    15.994914619570
         O           -0.187922401503    -0.719387504019     1.574746000675    15.994914619570
         C            2.390219598497     0.336743495981     0.204723000675    12.000000000000
         C            1.002196598497     0.784046495981    -0.259965999325    12.000000000000
         C            2.866083598497    -0.929196504019    -0.506494999325    12.000000000000
         C            3.369078598497     1.489552495981    -0.019664999325    12.000000000000
         C           -2.786639201503    -0.054306904019    -0.119242699325    12.000000000000
         C           -3.874117401503     1.005639495981    -0.259031999325    12.000000000000
         H            2.326391598497     0.136363495981     1.280805000675     1.007825032230
         H            0.960125598497     0.926113495981    -1.344494999325     1.007825032230
         H            0.702547598497     1.713604495981     0.233023000675     1.007825032230
         H            2.897196598497    -0.770337504019    -1.589920999325     1.007825032230
         H            2.215916598497    -1.784553504019    -0.312170999325     1.007825032230
         H            3.875885598497    -1.186034504019    -0.172924999325     1.007825032230
         H            3.446162598497     1.729699495981    -1.085534999325     1.007825032230
         H            3.056318598497     2.392735495981     0.513466000675     1.007825032230
         H            4.366527598497     1.214829495981     0.335671000675     1.007825032230
         H           -2.850331401503    -0.783984504019    -0.952897999325     1.007825032230
         H           -2.939418401503    -0.626222504019     0.821207000675     1.007825032230
         H           -3.818503401503     1.700446495981     0.581073000675     1.007825032230
         H           -3.725402401503     1.560711495981    -1.187479999325     1.007825032230
         H           -4.870989401503     0.555830495981    -0.276972999325     1.007825032230

  Basis Set: AUG-CC-PVTZ
    Blend: AUG-CC-PVTZ
  Basis Set: (AUG-CC-PVTZ AUX)
    Blend: AUG-CC-PVTZ-JKFIT
	 Reference Energy          =    -857.6250629753959629 [Eh]
	 Singles Energy            =      -0.0000000000000000 [Eh]
	 Same-Spin Energy          =      -0.5253280786089406 [Eh]
	 Opposite-Spin Energy      =      -1.6805009641724804 [Eh]
	 Correlation Energy        =      -2.2058290427814211 [Eh]
	 Total Energy              =    -859.8308920181773374 [Eh]

	 ================> DF-SCS-MP2 Energies <==================
	-----------------------------------------------------------
	 SCS Same-Spin Scale       =       0.3333333333333333 [-]
	 SCS Opposite-Spin Scale   =       1.2000000000000000 [-]
	 SCS Same-Spin Energy      =      -0.1751093595363135 [Eh]
	 SCS Opposite-Spin Energy  =      -2.0166011570069764 [Eh]
	 SCS Correlation Energy    =      -2.1917105165432900 [Eh]
	 SCS Total Energy          =    -859.8167734919392160 [Eh]
	-----------------------------------------------------------

  Dipole Moment: [D]
     X:     0.2033      Y:     2.7289      Z:    -1.0310     Total:     2.9242

*** Psi4 exiting successfully. Buy a developer a beer!
