                               Psi4 1.4a3.dev225

  ==> Input File <==

--------------------------------------------------------------------------
#psi4
#
memory 32 gb

molecule  {
0 1
  S       -0.2946600    -0.4360860     0.1655790
  O       -1.5657890     0.5673500    -0.1009940
  O       -0.3508230    -1.5212030    -0.8163730
  O       -0.2159750    -0.7550950     1.5921100
  C        2.3621670     0.3010360     0.2220870
  C        0.9816998     0.8300685    -0.1742191
  C        2.8380310    -0.9649040    -0.4891310
  C        3.3410260     1.4538450    -0.0023010
  C       -2.8589370    -0.1133030    -0.1019100
  C       -3.9021700     0.9699320    -0.2416680
  H        2.2983390     0.1006560     1.2981690
  H        0.9320730     0.8904060    -1.3271310
  H        0.6744950     1.6778970     0.2503870
  H        2.8691440    -0.8060450    -1.5725570
  H        2.1878640    -1.8202610    -0.2948070
  H        3.8478330    -1.2217420    -0.1555610
  H        3.4181100     1.6939920    -1.0681710
  H        3.0282660     2.3570280     0.5308300
  H        4.3384750     1.1791220     0.3530350
  H       -2.8783840    -0.8196920    -0.9355340
  H       -2.9674710    -0.6619300     0.8385710
  H       -3.8465560     1.6647390     0.5984370
  H       -3.7534550     1.5250040    -1.1701160
  H       -4.8990420     0.5201230    -0.2596090
units angstrom
no_reorient  #important for SAPT in psi4, default
symmetry c1  #important for SAPT in psi4, default
}

set PROPERTIES_ORIGIN ["COM"]
properties('MP2/aug-cc-pvtz', properties = ['dipole'])
--------------------------------------------------------------------------

    Molecular point group: c1
  Charge       = 0
  Multiplicity = 1
  Basis Set: AUG-CC-PVTZ
    Blend: AUG-CC-PVTZ
  Basis Set: (AUG-CC-PVTZ AUX)
    Blend: AUG-CC-PVTZ-JKFIT

    Orbital Energies [Eh]
    ---------------------

    Doubly Occupied:

       1A    -92.212016     2A    -20.613618     3A    -20.557483
       4A    -20.550609     5A    -11.301120     6A    -11.279805
       7A    -11.251569     8A    -11.232552     9A    -11.228913
      10A    -11.221259    11A     -9.176149    12A     -6.861612
      13A     -6.860065    14A     -6.859862    15A     -1.479562
      16A     -1.374197    17A     -1.337214    18A     -1.120242
      19A     -1.050257    20A     -0.994554    21A     -0.943400
      22A     -0.877523    23A     -0.829903    24A     -0.790366
      25A     -0.724299    26A     -0.693564    27A     -0.685823
      28A     -0.668875    29A     -0.636480    30A     -0.617175
      31A     -0.605743    32A     -0.580406    33A     -0.566779
      34A     -0.559276    35A     -0.554569    36A     -0.544183
      37A     -0.537258    38A     -0.515181    39A     -0.500689
      40A     -0.498386    41A     -0.493861    42A     -0.482912
      43A     -0.477626    44A     -0.463278    45A     -0.445955

  @DF-RHF Final Energy:  -857.61310952230235

   => Energetics <=

    Nuclear Repulsion Energy =            721.5132242418187616
    One-Electron Energy =               -2610.5403307129267887
    Two-Electron Energy =                1031.4139969488057886
    Total Energy =                       -857.6131095223022385
  Basis Set: (AUG-CC-PVTZ AUX)
    Blend: AUG-CC-PVTZ-RI
    Molecular point group: c1

    Geometry (in Angstrom), charge = 0, multiplicity = 1:

       Center              X                  Y                   Z               Mass
    ------------   -----------------  -----------------  -----------------  -----------------
         S           -0.263956215643    -0.404601459089     0.143275895772    31.972071174400
         O           -1.535085215643     0.598834540911    -0.123297104228    15.994914619570
         O           -0.320119215643    -1.489718459089    -0.838676104228    15.994914619570
         O           -0.185271215643    -0.723610459089     1.569806895772    15.994914619570
         C            2.392870784357     0.332520540911     0.199783895772    12.000000000000
         C            1.012403584357     0.861553040911    -0.196522204228    12.000000000000
         C            2.868734784357    -0.933419459089    -0.511434104228    12.000000000000
         C            3.371729784357     1.485329540911    -0.024604104228    12.000000000000
         C           -2.828233215643    -0.081818459089    -0.124213104228    12.000000000000
         C           -3.871466215643     1.001416540911    -0.263971104228    12.000000000000
         H            2.329042784357     0.132140540911     1.275865895772     1.007825032230
         H            0.962776784357     0.921890540911    -1.349434104228     1.007825032230
         H            0.705198784357     1.709381540911     0.228083895772     1.007825032230
         H            2.899847784357    -0.774560459089    -1.594860104228     1.007825032230
         H            2.218567784357    -1.788776459089    -0.317110104228     1.007825032230
         H            3.878536784357    -1.190257459089    -0.177864104228     1.007825032230
         H            3.448813784357     1.725476540911    -1.090474104228     1.007825032230
         H            3.058969784357     2.388512540911     0.508526895772     1.007825032230
         H            4.369178784357     1.210606540911     0.330731895772     1.007825032230
         H           -2.847680215643    -0.788207459089    -0.957837104228     1.007825032230
         H           -2.936767215643    -0.630445459089     0.816267895772     1.007825032230
         H           -3.815852215643     1.696223540911     0.576133895772     1.007825032230
         H           -3.722751215643     1.556488540911    -1.192419104228     1.007825032230
         H           -4.868338215643     0.551607540911    -0.281912104228     1.007825032230

  Basis Set: AUG-CC-PVTZ
    Blend: AUG-CC-PVTZ
  Basis Set: (AUG-CC-PVTZ AUX)
    Blend: AUG-CC-PVTZ-JKFIT
	 Reference Energy          =    -857.6131095223023522 [Eh]
	 Singles Energy            =      -0.0000000000000000 [Eh]
	 Same-Spin Energy          =      -0.5254432597905303 [Eh]
	 Opposite-Spin Energy      =      -1.6816006419851568 [Eh]
	 Correlation Energy        =      -2.2070439017756871 [Eh]
	 Total Energy              =    -859.8201534240780575 [Eh]

	 ================> DF-SCS-MP2 Energies <==================
	-----------------------------------------------------------
	 SCS Same-Spin Scale       =       0.3333333333333333 [-]
	 SCS Opposite-Spin Scale   =       1.2000000000000000 [-]
	 SCS Same-Spin Energy      =      -0.1751477532635101 [Eh]
	 SCS Opposite-Spin Energy  =      -2.0179207703821880 [Eh]
	 SCS Correlation Energy    =      -2.1930685236456982 [Eh]
	 SCS Total Energy          =    -859.8061780459480588 [Eh]
	-----------------------------------------------------------

  Dipole Moment: [D]
     X:    -0.0579      Y:     2.6348      Z:    -1.0528     Total:     2.8380

*** Psi4 exiting successfully. Buy a developer a beer!
