                               Psi4 1.4a3.dev225

  ==> Input File <==

--------------------------------------------------------------------------
#psi4
#
memory 32 gb

molecule  {
0 1
  S       -0.2946600    -0.4360860     0.1655790
  O       -1.4108917     0.4450732    -0.0685099
  O       -0.3508230    -1.5212030    -0.8163730
  O       -0.2159750    -0.7550950     1.5921100
  C        2.3621670     0.3010360     0.2220870
  C        0.9741440     0.7483390    -0.2426020
  C        2.8380310    -0.9649040    -0.4891310
  C        3.3410260     1.4538450    -0.0023010
  C       -2.8589370    -0.1133030    -0.1019100
  C       -3.9021700     0.9699320    -0.2416680
  H        2.2983390     0.1006560     1.2981690
  H        0.9320730     0.8904060    -1.3271310
  H        0.6744950     1.6778970     0.2503870
  H        2.8691440    -0.8060450    -1.5725570
  H        2.1878640    -1.8202610    -0.2948070
  H        3.8478330    -1.2217420    -0.1555610
  H        3.4181100     1.6939920    -1.0681710
  H        3.0282660     2.3570280     0.5308300
  H        4.3384750     1.1791220     0.3530350
  H       -2.8783840    -0.8196920    -0.9355340
  H       -2.9674710    -0.6619300     0.8385710
  H       -3.8465560     1.6647390     0.5984370
  H       -3.7534550     1.5250040    -1.1701160
  H       -4.8990420     0.5201230    -0.2596090
units angstrom
no_reorient  #important for SAPT in psi4, default
symmetry c1  #important for SAPT in psi4, default
}

set PROPERTIES_ORIGIN ["COM"]
properties('MP2/aug-cc-pvtz', properties = ['dipole'])
--------------------------------------------------------------------------

    Molecular point group: c1
  Charge       = 0
  Multiplicity = 1
  Basis Set: AUG-CC-PVTZ
    Blend: AUG-CC-PVTZ
  Basis Set: (AUG-CC-PVTZ AUX)
    Blend: AUG-CC-PVTZ-JKFIT

    Orbital Energies [Eh]
    ---------------------

    Doubly Occupied:

       1A    -92.193066     2A    -20.616649     3A    -20.530295
       4A    -20.529917     5A    -11.333430     6A    -11.262832
       7A    -11.253509     8A    -11.240515     9A    -11.221714
      10A    -11.210126    11A     -9.159573    12A     -6.846160
      13A     -6.843636    14A     -6.843289    15A     -1.531855
      16A     -1.371185    17A     -1.320517    18A     -1.111100
      19A     -1.075433    20A     -0.990662    21A     -0.934037
      22A     -0.899261    23A     -0.823713    24A     -0.785128
      25A     -0.725289    26A     -0.712167    27A     -0.697134
      28A     -0.653118    29A     -0.635289    30A     -0.611515
      31A     -0.601436    32A     -0.587373    33A     -0.578910
      34A     -0.564054    35A     -0.549351    36A     -0.546694
      37A     -0.534938    38A     -0.518614    39A     -0.504303
      40A     -0.497297    41A     -0.479810    42A     -0.475339
      43A     -0.469292    44A     -0.446492    45A     -0.440574

  @DF-RHF Final Energy:  -857.61373141057436

   => Energetics <=

    Nuclear Repulsion Energy =            729.5986481671299089
    One-Electron Energy =               -2626.9115812373715926
    Two-Electron Energy =                1039.6992016596675512
    Total Energy =                       -857.6137314105742462
  Basis Set: (AUG-CC-PVTZ AUX)
    Blend: AUG-CC-PVTZ-RI
    Molecular point group: c1

    Geometry (in Angstrom), charge = 0, multiplicity = 1:

       Center              X                  Y                   Z               Mass
    ------------   -----------------  -----------------  -----------------  -----------------
         S           -0.278329381945    -0.386918402274     0.145088510826    31.972071174400
         O           -1.394561081945     0.494240797726    -0.089000389174    15.994914619570
         O           -0.334492381945    -1.472035402274    -0.836863489174    15.994914619570
         O           -0.199644381945    -0.705927402274     1.571619510826    15.994914619570
         C            2.378497618055     0.350203597726     0.201596510826    12.000000000000
         C            0.990474618055     0.797506597726    -0.263092489174    12.000000000000
         C            2.854361618055    -0.915736402274    -0.509621489174    12.000000000000
         C            3.357356618055     1.503012597726    -0.022791489174    12.000000000000
         C           -2.842606381945    -0.064135402274    -0.122400489174    12.000000000000
         C           -3.885839381945     1.019099597726    -0.262158489174    12.000000000000
         H            2.314669618055     0.149823597726     1.277678510826     1.007825032230
         H            0.948403618055     0.939573597726    -1.347621489174     1.007825032230
         H            0.690825618055     1.727064597726     0.229896510826     1.007825032230
         H            2.885474618055    -0.756877402274    -1.593047489174     1.007825032230
         H            2.204194618055    -1.771093402274    -0.315297489174     1.007825032230
         H            3.864163618055    -1.172574402274    -0.176051489174     1.007825032230
         H            3.434440618055     1.743159597726    -1.088661489174     1.007825032230
         H            3.044596618055     2.406195597726     0.510339510826     1.007825032230
         H            4.354805618055     1.228289597726     0.332544510826     1.007825032230
         H           -2.862053381945    -0.770524402274    -0.956024489174     1.007825032230
         H           -2.951140381945    -0.612762402274     0.818080510826     1.007825032230
         H           -3.830225381945     1.713906597726     0.577946510826     1.007825032230
         H           -3.737124381945     1.574171597726    -1.190606489174     1.007825032230
         H           -4.882711381945     0.569290597726    -0.280099489174     1.007825032230

  Basis Set: AUG-CC-PVTZ
    Blend: AUG-CC-PVTZ
  Basis Set: (AUG-CC-PVTZ AUX)
    Blend: AUG-CC-PVTZ-JKFIT
	 Reference Energy          =    -857.6137314105743599 [Eh]
	 Singles Energy            =      -0.0000000000000000 [Eh]
	 Same-Spin Energy          =      -0.5219188387563373 [Eh]
	 Opposite-Spin Energy      =      -1.6720841254662973 [Eh]
	 Correlation Energy        =      -2.1940029642226344 [Eh]
	 Total Energy              =    -859.8077343747969508 [Eh]

	 ================> DF-SCS-MP2 Energies <==================
	-----------------------------------------------------------
	 SCS Same-Spin Scale       =       0.3333333333333333 [-]
	 SCS Opposite-Spin Scale   =       1.2000000000000000 [-]
	 SCS Same-Spin Energy      =      -0.1739729462521124 [Eh]
	 SCS Opposite-Spin Energy  =      -2.0065009505595568 [Eh]
	 SCS Correlation Energy    =      -2.1804738968116690 [Eh]
	 SCS Total Energy          =    -859.7942053073860507 [Eh]
	-----------------------------------------------------------

  Dipole Moment: [D]
     X:    -1.9730      Y:     3.3012      Z:    -1.2556     Total:     4.0457

*** Psi4 exiting successfully. Buy a developer a beer!
