                               Psi4 1.4a3.dev225

  ==> Input File <==

--------------------------------------------------------------------------
#psi4
#
memory 32 gb

molecule  {
0 1
  S       -0.2946600    -0.4360860     0.1655790
  O       -1.5657890     0.5673500    -0.1009940
  O       -0.4272607    -1.5617131    -0.7619141
  O       -0.2159750    -0.7550950     1.5921100
  C        2.3621670     0.3010360     0.2220870
  C        0.9741440     0.7483390    -0.2426020
  C        2.8380310    -0.9649040    -0.4891310
  C        3.3410260     1.4538450    -0.0023010
  C       -2.8589370    -0.1133030    -0.1019100
  C       -3.9021700     0.9699320    -0.2416680
  H        2.2983390     0.1006560     1.2981690
  H        0.9320730     0.8904060    -1.3271310
  H        0.6744950     1.6778970     0.2503870
  H        2.8691440    -0.8060450    -1.5725570
  H        2.1878640    -1.8202610    -0.2948070
  H        3.8478330    -1.2217420    -0.1555610
  H        3.4181100     1.6939920    -1.0681710
  H        3.0282660     2.3570280     0.5308300
  H        4.3384750     1.1791220     0.3530350
  H       -2.8783840    -0.8196920    -0.9355340
  H       -2.9674710    -0.6619300     0.8385710
  H       -3.8465560     1.6647390     0.5984370
  H       -3.7534550     1.5250040    -1.1701160
  H       -4.8990420     0.5201230    -0.2596090
units angstrom
no_reorient  #important for SAPT in psi4, default
symmetry c1  #important for SAPT in psi4, default
}

set PROPERTIES_ORIGIN ["COM"]
properties('MP2/aug-cc-pvtz', properties = ['dipole'])
--------------------------------------------------------------------------

    Molecular point group: c1
  Charge       = 0
  Multiplicity = 1
  Basis Set: AUG-CC-PVTZ
    Blend: AUG-CC-PVTZ
  Basis Set: (AUG-CC-PVTZ AUX)
    Blend: AUG-CC-PVTZ-JKFIT

    Orbital Energies [Eh]
    ---------------------

    Doubly Occupied:

       1A    -92.213049     2A    -20.612345     3A    -20.552313
       4A    -20.549042     5A    -11.299585     6A    -11.282996
       7A    -11.253807     8A    -11.231548     9A    -11.231414
      10A    -11.221111    11A     -9.177415    12A     -6.862877
      13A     -6.861378    14A     -6.861260    15A     -1.480042
      16A     -1.372826    17A     -1.333112    18A     -1.124111
      19A     -1.050742    20A     -0.999012    21A     -0.944590
      22A     -0.876495    23A     -0.829511    24A     -0.789370
      25A     -0.725000    26A     -0.691418    27A     -0.691134
      28A     -0.656843    29A     -0.634442    30A     -0.618057
      31A     -0.606163    32A     -0.588352    33A     -0.566221
      34A     -0.558488    35A     -0.554119    36A     -0.545304
      37A     -0.535996    38A     -0.511407    39A     -0.498340
      40A     -0.495923    41A     -0.491786    42A     -0.484984
      43A     -0.481356    44A     -0.460970    45A     -0.456032

  @DF-RHF Final Energy:  -857.62618525373887

   => Energetics <=

    Nuclear Repulsion Energy =            722.3632993887099474
    One-Electron Energy =               -2612.2544012618222951
    Two-Electron Energy =                1032.2649166193734800
    Total Energy =                       -857.6261852537388677
  Basis Set: (AUG-CC-PVTZ AUX)
    Blend: AUG-CC-PVTZ-RI
    Molecular point group: c1

    Geometry (in Angstrom), charge = 0, multiplicity = 1:

       Center              X                  Y                   Z               Mass
    ------------   -----------------  -----------------  -----------------  -----------------
         S           -0.256048027363    -0.394793876524     0.142971977181    31.972071174400
         O           -1.527177027363     0.608642123476    -0.123601022819    15.994914619570
         O           -0.388648727363    -1.520420976524    -0.784521122819    15.994914619570
         O           -0.177363027363    -0.713802876524     1.569502977181    15.994914619570
         C            2.400778972637     0.342328123476     0.199479977181    12.000000000000
         C            1.012755972637     0.789631123476    -0.265209022819    12.000000000000
         C            2.876642972637    -0.923611876524    -0.511738022819    12.000000000000
         C            3.379637972637     1.495137123476    -0.024908022819    12.000000000000
         C           -2.820325027363    -0.072010876524    -0.124517022819    12.000000000000
         C           -3.863558027363     1.011224123476    -0.264275022819    12.000000000000
         H            2.336950972637     0.141948123476     1.275561977181     1.007825032230
         H            0.970684972637     0.931698123476    -1.349738022819     1.007825032230
         H            0.713106972637     1.719189123476     0.227779977181     1.007825032230
         H            2.907755972637    -0.764752876524    -1.595164022819     1.007825032230
         H            2.226475972637    -1.778968876524    -0.317414022819     1.007825032230
         H            3.886444972637    -1.180449876524    -0.178168022819     1.007825032230
         H            3.456721972637     1.735284123476    -1.090778022819     1.007825032230
         H            3.066877972637     2.398320123476     0.508222977181     1.007825032230
         H            4.377086972637     1.220414123476     0.330427977181     1.007825032230
         H           -2.839772027363    -0.778399876524    -0.958141022819     1.007825032230
         H           -2.928859027363    -0.620637876524     0.815963977181     1.007825032230
         H           -3.807944027363     1.706031123476     0.575829977181     1.007825032230
         H           -3.714843027363     1.566296123476    -1.192723022819     1.007825032230
         H           -4.860430027363     0.561415123476    -0.282216022819     1.007825032230

  Basis Set: AUG-CC-PVTZ
    Blend: AUG-CC-PVTZ
  Basis Set: (AUG-CC-PVTZ AUX)
    Blend: AUG-CC-PVTZ-JKFIT
	 Reference Energy          =    -857.6261852537388677 [Eh]
	 Singles Energy            =      -0.0000000000000000 [Eh]
	 Same-Spin Energy          =      -0.5251597560097867 [Eh]
	 Opposite-Spin Energy      =      -1.6804161893029868 [Eh]
	 Correlation Energy        =      -2.2055759453127735 [Eh]
	 Total Energy              =    -859.8317611990516980 [Eh]

	 ================> DF-SCS-MP2 Energies <==================
	-----------------------------------------------------------
	 SCS Same-Spin Scale       =       0.3333333333333333 [-]
	 SCS Opposite-Spin Scale   =       1.2000000000000000 [-]
	 SCS Same-Spin Energy      =      -0.1750532520032622 [Eh]
	 SCS Opposite-Spin Energy  =      -2.0164994271635841 [Eh]
	 SCS Correlation Energy    =      -2.1915526791668465 [Eh]
	 SCS Total Energy          =    -859.8177379329057430 [Eh]
	-----------------------------------------------------------

  Dipole Moment: [D]
     X:     0.2051      Y:     2.8207      Z:    -1.1688     Total:     3.0601

*** Psi4 exiting successfully. Buy a developer a beer!
