                               Psi4 1.4a3.dev225

  ==> Input File <==

--------------------------------------------------------------------------
#psi4
#
memory 32 gb

molecule  {
0 1
  S       -0.2946600    -0.4360860     0.1655790
  O       -1.5657890     0.5673500    -0.1009940
  O       -0.3508230    -1.5212030    -0.8163730
  O       -0.2159750    -0.7550950     1.5921100
  C        2.3621670     0.3010360     0.2220870
  C        0.9741440     0.7483390    -0.2426020
  C        2.8380310    -0.9649040    -0.4891310
  C        3.3410260     1.4538450    -0.0023010
  C       -2.8589370    -0.1133030    -0.1019100
  C       -3.9021700     0.9699320    -0.2416680
  H        2.2983390     0.1006560     1.2981690
  H        0.9320730     0.8904060    -1.3271310
  H        0.6744950     1.6778970     0.2503870
  H        2.8685760    -0.8089453    -1.5527766
  H        2.1878640    -1.8202610    -0.2948070
  H        3.8478330    -1.2217420    -0.1555610
  H        3.4181100     1.6939920    -1.0681710
  H        3.0282660     2.3570280     0.5308300
  H        4.3384750     1.1791220     0.3530350
  H       -2.8783840    -0.8196920    -0.9355340
  H       -2.9674710    -0.6619300     0.8385710
  H       -3.8465560     1.6647390     0.5984370
  H       -3.7534550     1.5250040    -1.1701160
  H       -4.8990420     0.5201230    -0.2596090
units angstrom
no_reorient  #important for SAPT in psi4, default
symmetry c1  #important for SAPT in psi4, default
}

set PROPERTIES_ORIGIN ["COM"]
properties('MP2/aug-cc-pvtz', properties = ['dipole'])
--------------------------------------------------------------------------

    Molecular point group: c1
  Charge       = 0
  Multiplicity = 1
  Basis Set: AUG-CC-PVTZ
    Blend: AUG-CC-PVTZ
  Basis Set: (AUG-CC-PVTZ AUX)
    Blend: AUG-CC-PVTZ-JKFIT

    Orbital Energies [Eh]
    ---------------------

    Doubly Occupied:

       1A    -92.213811     2A    -20.614885     3A    -20.553673
       4A    -20.553503     5A    -11.301904     6A    -11.278104
       7A    -11.251252     8A    -11.233026     9A    -11.229502
      10A    -11.216108    11A     -9.178058    12A     -6.863514
      13A     -6.862069    14A     -6.861894    15A     -1.481015
      16A     -1.375063    17A     -1.337399    18A     -1.121039
      19A     -1.051561    20A     -0.996923    21A     -0.943487
      22A     -0.877113    23A     -0.830863    24A     -0.788628
      25A     -0.725209    26A     -0.692862    27A     -0.690728
      28A     -0.656748    29A     -0.635111    30A     -0.616076
      31A     -0.606787    32A     -0.587485    33A     -0.567218
      34A     -0.559031    35A     -0.555255    36A     -0.544920
      37A     -0.537389    38A     -0.509951    39A     -0.500006
      40A     -0.496947    41A     -0.490352    42A     -0.485418
      43A     -0.483182    44A     -0.463314    45A     -0.453599

  @DF-RHF Final Energy:  -857.62651997642433

   => Energetics <=

    Nuclear Repulsion Energy =            722.6674727917378505
    One-Electron Energy =               -2612.8440216156950555
    Two-Electron Energy =                1032.5500288475327579
    Total Energy =                       -857.6265199764243334
  Basis Set: (AUG-CC-PVTZ AUX)
    Blend: AUG-CC-PVTZ-RI
    Molecular point group: c1

    Geometry (in Angstrom), charge = 0, multiplicity = 1:

       Center              X                  Y                   Z               Mass
    ------------   -----------------  -----------------  -----------------  -----------------
         S           -0.263406784430    -0.398678062186     0.148097218954    31.972071174400
         O           -1.534535784430     0.604757937814    -0.118475781046    15.994914619570
         O           -0.319569784430    -1.483795062186    -0.833854781046    15.994914619570
         O           -0.184721784430    -0.717687062186     1.574628218954    15.994914619570
         C            2.393420215570     0.338443937814     0.204605218954    12.000000000000
         C            1.005397215570     0.785746937814    -0.260083781046    12.000000000000
         C            2.869284215570    -0.927496062186    -0.506612781046    12.000000000000
         C            3.372279215570     1.491252937814    -0.019782781046    12.000000000000
         C           -2.827683784430    -0.075895062186    -0.119391781046    12.000000000000
         C           -3.870916784430     1.007339937814    -0.259149781046    12.000000000000
         H            2.329592215570     0.138063937814     1.280687218954     1.007825032230
         H            0.963326215570     0.927813937814    -1.344612781046     1.007825032230
         H            0.705748215570     1.715304937814     0.232905218954     1.007825032230
         H            2.899829215570    -0.771537362186    -1.570258381046     1.007825032230
         H            2.219117215570    -1.782853062186    -0.312288781046     1.007825032230
         H            3.879086215570    -1.184334062186    -0.173042781046     1.007825032230
         H            3.449363215570     1.731399937814    -1.085652781046     1.007825032230
         H            3.059519215570     2.394435937814     0.513348218954     1.007825032230
         H            4.369728215570     1.216529937814     0.335553218954     1.007825032230
         H           -2.847130784430    -0.782284062186    -0.953015781046     1.007825032230
         H           -2.936217784430    -0.624522062186     0.821089218954     1.007825032230
         H           -3.815302784430     1.702146937814     0.580955218954     1.007825032230
         H           -3.722201784430     1.562411937814    -1.187597781046     1.007825032230
         H           -4.867788784430     0.557530937814    -0.277090781046     1.007825032230

  Basis Set: AUG-CC-PVTZ
    Blend: AUG-CC-PVTZ
  Basis Set: (AUG-CC-PVTZ AUX)
    Blend: AUG-CC-PVTZ-JKFIT
	 Reference Energy          =    -857.6265199764243334 [Eh]
	 Singles Energy            =      -0.0000000000000000 [Eh]
	 Same-Spin Energy          =      -0.5252907899011443 [Eh]
	 Opposite-Spin Energy      =      -1.6806855269261889 [Eh]
	 Correlation Energy        =      -2.2059763168273330 [Eh]
	 Total Energy              =    -859.8324962932516655 [Eh]

	 ================> DF-SCS-MP2 Energies <==================
	-----------------------------------------------------------
	 SCS Same-Spin Scale       =       0.3333333333333333 [-]
	 SCS Opposite-Spin Scale   =       1.2000000000000000 [-]
	 SCS Same-Spin Energy      =      -0.1750969299670481 [Eh]
	 SCS Opposite-Spin Energy  =      -2.0168226323114267 [Eh]
	 SCS Correlation Energy    =      -2.1919195622784748 [Eh]
	 SCS Total Energy          =    -859.8184395387028189 [Eh]
	-----------------------------------------------------------

  Dipole Moment: [D]
     X:    -0.0639      Y:     2.7090      Z:    -1.0550     Total:     2.9079

*** Psi4 exiting successfully. Buy a developer a beer!
