                               Psi4 1.4a3.dev225

  ==> Input File <==

--------------------------------------------------------------------------
#psi4
#
memory 32 gb

molecule  {
0 1
  S       -0.2946600    -0.4360860     0.1655790
  O       -1.5657890     0.5673500    -0.1009940
  O       -0.3508230    -1.5212030    -0.8163730
  O       -0.2159750    -0.7550950     1.5921100
  C        2.3621670     0.3010360     0.2220870
  C        0.9729010     0.7066317    -0.2759649
  C        2.8380310    -0.9649040    -0.4891310
  C        3.3410260     1.4538450    -0.0023010
  C       -2.8589370    -0.1133030    -0.1019100
  C       -3.9021700     0.9699320    -0.2416680
  H        2.2983390     0.1006560     1.2981690
  H        0.9320730     0.8904060    -1.3271310
  H        0.6744950     1.6778970     0.2503870
  H        2.8691440    -0.8060450    -1.5725570
  H        2.1878640    -1.8202610    -0.2948070
  H        3.8478330    -1.2217420    -0.1555610
  H        3.4181100     1.6939920    -1.0681710
  H        3.0282660     2.3570280     0.5308300
  H        4.3384750     1.1791220     0.3530350
  H       -2.8783840    -0.8196920    -0.9355340
  H       -2.9674710    -0.6619300     0.8385710
  H       -3.8465560     1.6647390     0.5984370
  H       -3.7534550     1.5250040    -1.1701160
  H       -4.8990420     0.5201230    -0.2596090
units angstrom
no_reorient  #important for SAPT in psi4, default
symmetry c1  #important for SAPT in psi4, default
}

set PROPERTIES_ORIGIN ["COM"]
properties('MP2/aug-cc-pvtz', properties = ['dipole'])
--------------------------------------------------------------------------

    Molecular point group: c1
  Charge       = 0
  Multiplicity = 1
  Basis Set: AUG-CC-PVTZ
    Blend: AUG-CC-PVTZ
  Basis Set: (AUG-CC-PVTZ AUX)
    Blend: AUG-CC-PVTZ-JKFIT

    Orbital Energies [Eh]
    ---------------------

    Doubly Occupied:

       1A    -92.214726     2A    -20.615518     3A    -20.555006
       4A    -20.551620     5A    -11.302258     6A    -11.278311
       7A    -11.252021     8A    -11.233235     9A    -11.229983
      10A    -11.217583    11A     -9.179015    12A     -6.864461
      13A     -6.863144    14A     -6.862838    15A     -1.481719
      16A     -1.375508    17A     -1.337451    18A     -1.121728
      19A     -1.052120    20A     -0.998369    21A     -0.942037
      22A     -0.876947    23A     -0.831211    24A     -0.788844
      25A     -0.727053    26A     -0.693134    27A     -0.692171
      28A     -0.652228    29A     -0.633170    30A     -0.616803
      31A     -0.607051    32A     -0.588480    33A     -0.567208
      34A     -0.558573    35A     -0.554733    36A     -0.543623
      37A     -0.537488    38A     -0.508179    39A     -0.500615
      40A     -0.497159    41A     -0.488279    42A     -0.485300
      43A     -0.482861    44A     -0.462935    45A     -0.455802

  @DF-RHF Final Energy:  -857.62346546090691

   => Energetics <=

    Nuclear Repulsion Energy =            723.0678432055481153
    One-Electron Energy =               -2613.6256183503833199
    Two-Electron Energy =                1032.9343096839281770
    Total Energy =                       -857.6234654609070276
  Basis Set: (AUG-CC-PVTZ AUX)
    Blend: AUG-CC-PVTZ-RI
    Molecular point group: c1

    Geometry (in Angstrom), charge = 0, multiplicity = 1:

       Center              X                  Y                   Z               Mass
    ------------   -----------------  -----------------  -----------------  -----------------
         S           -0.263320412001    -0.395681882896     0.150628074501    31.972071174400
         O           -1.534449412001     0.607754117104    -0.115944925499    15.994914619570
         O           -0.319483412001    -1.480798882896    -0.831323925499    15.994914619570
         O           -0.184635412001    -0.714690882896     1.577159074501    15.994914619570
         C            2.393506587999     0.341440117104     0.207136074501    12.000000000000
         C            1.004240587999     0.747035817104    -0.290915825499    12.000000000000
         C            2.869370587999    -0.924499882896    -0.504081925499    12.000000000000
         C            3.372365587999     1.494249117104    -0.017251925499    12.000000000000
         C           -2.827597412001    -0.072898882896    -0.116860925499    12.000000000000
         C           -3.870830412001     1.010336117104    -0.256618925499    12.000000000000
         H            2.329678587999     0.141060117104     1.283218074501     1.007825032230
         H            0.963412587999     0.930810117104    -1.342081925499     1.007825032230
         H            0.705834587999     1.718301117104     0.235436074501     1.007825032230
         H            2.900483587999    -0.765640882896    -1.587507925499     1.007825032230
         H            2.219203587999    -1.779856882896    -0.309757925499     1.007825032230
         H            3.879172587999    -1.181337882896    -0.170511925499     1.007825032230
         H            3.449449587999     1.734396117104    -1.083121925499     1.007825032230
         H            3.059605587999     2.397432117104     0.515879074501     1.007825032230
         H            4.369814587999     1.219526117104     0.338084074501     1.007825032230
         H           -2.847044412001    -0.779287882896    -0.950484925499     1.007825032230
         H           -2.936131412001    -0.621525882896     0.823620074501     1.007825032230
         H           -3.815216412001     1.705143117104     0.583486074501     1.007825032230
         H           -3.722115412001     1.565408117104    -1.185066925499     1.007825032230
         H           -4.867702412001     0.560527117104    -0.274559925499     1.007825032230

  Basis Set: AUG-CC-PVTZ
    Blend: AUG-CC-PVTZ
  Basis Set: (AUG-CC-PVTZ AUX)
    Blend: AUG-CC-PVTZ-JKFIT
	 Reference Energy          =    -857.6234654609069139 [Eh]
	 Singles Energy            =      -0.0000000000000000 [Eh]
	 Same-Spin Energy          =      -0.5254278730754273 [Eh]
	 Opposite-Spin Energy      =      -1.6809644832509569 [Eh]
	 Correlation Energy        =      -2.2063923563263841 [Eh]
	 Total Energy              =    -859.8298578172333464 [Eh]

	 ================> DF-SCS-MP2 Energies <==================
	-----------------------------------------------------------
	 SCS Same-Spin Scale       =       0.3333333333333333 [-]
	 SCS Opposite-Spin Scale   =       1.2000000000000000 [-]
	 SCS Same-Spin Energy      =      -0.1751426243584757 [Eh]
	 SCS Opposite-Spin Energy  =      -2.0171573799011484 [Eh]
	 SCS Correlation Energy    =      -2.1923000042596241 [Eh]
	 SCS Total Energy          =    -859.8157654651665780 [Eh]
	-----------------------------------------------------------

  Dipole Moment: [D]
     X:    -0.0610      Y:     2.7378      Z:    -1.0355     Total:     2.9277

*** Psi4 exiting successfully. Buy a developer a beer!
