                               Psi4 1.4a3.dev225

  ==> Input File <==

--------------------------------------------------------------------------
#psi4
#
memory 32 gb

molecule  {
0 1
  S       -0.2946600    -0.4360860     0.1655790
  O       -1.5657890     0.5673500    -0.1009940
  O       -0.3508230    -1.5212030    -0.8163730
  O       -0.2159750    -0.7550950     1.5921100
  C        2.3621670     0.3010360     0.2220870
  C        0.9741440     0.7483390    -0.2426020
  C        2.8380310    -0.9649040    -0.4891310
  C        3.3410260     1.4538450    -0.0023010
  C       -2.8589370    -0.1133030    -0.1019100
  C       -3.9100143     0.9591243    -0.2643959
  H        2.2983390     0.1006560     1.2981690
  H        0.9320730     0.8904060    -1.3271310
  H        0.6744950     1.6778970     0.2503870
  H        2.8691440    -0.8060450    -1.5725570
  H        2.1878640    -1.8202610    -0.2948070
  H        3.8478330    -1.2217420    -0.1555610
  H        3.4181100     1.6939920    -1.0681710
  H        3.0282660     2.3570280     0.5308300
  H        4.3384750     1.1791220     0.3530350
  H       -2.8783840    -0.8196920    -0.9355340
  H       -2.9674710    -0.6619300     0.8385710
  H       -3.8465560     1.6647390     0.5984370
  H       -3.7534550     1.5250040    -1.1701160
  H       -4.8990420     0.5201230    -0.2596090
units angstrom
no_reorient  #important for SAPT in psi4, default
symmetry c1  #important for SAPT in psi4, default
}

set PROPERTIES_ORIGIN ["COM"]
properties('MP2/aug-cc-pvtz', properties = ['dipole'])
--------------------------------------------------------------------------

    Molecular point group: c1
  Charge       = 0
  Multiplicity = 1
  Basis Set: AUG-CC-PVTZ
    Blend: AUG-CC-PVTZ
  Basis Set: (AUG-CC-PVTZ AUX)
    Blend: AUG-CC-PVTZ-JKFIT

    Orbital Energies [Eh]
    ---------------------

    Doubly Occupied:

       1A    -92.213977     2A    -20.615130     3A    -20.553693
       4A    -20.553628     5A    -11.301882     6A    -11.278212
       7A    -11.251546     8A    -11.233121     9A    -11.229566
      10A    -11.218649    11A     -9.178215    12A     -6.863674
      13A     -6.862225    14A     -6.862049    15A     -1.481094
      16A     -1.375103    17A     -1.337463    18A     -1.120989
      19A     -1.051567    20A     -0.996900    21A     -0.942379
      22A     -0.877199    23A     -0.830637    24A     -0.788097
      25A     -0.725373    26A     -0.692660    27A     -0.690650
      28A     -0.656892    29A     -0.634647    30A     -0.616220
      31A     -0.607429    32A     -0.586861    33A     -0.569676
      34A     -0.558586    35A     -0.553553    36A     -0.543449
      37A     -0.538306    38A     -0.509816    39A     -0.499214
      40A     -0.495807    41A     -0.490596    42A     -0.485507
      43A     -0.482494    44A     -0.463310    45A     -0.453866

  @DF-RHF Final Energy:  -857.62581130887406

   => Energetics <=

    Nuclear Repulsion Energy =            722.4961830264167020
    One-Electron Energy =               -2612.5001744593855619
    Two-Electron Energy =                1032.3781801240947971
    Total Energy =                       -857.6258113088740629
  Basis Set: (AUG-CC-PVTZ AUX)
    Blend: AUG-CC-PVTZ-RI
    Molecular point group: c1

    Geometry (in Angstrom), charge = 0, multiplicity = 1:

       Center              X                  Y                   Z               Mass
    ------------   -----------------  -----------------  -----------------  -----------------
         S           -0.262843400297    -0.397914696259     0.149859586556    31.972071174400
         O           -1.533972400297     0.605521303741    -0.116713413444    15.994914619570
         O           -0.319006400297    -1.483031696259    -0.832092413444    15.994914619570
         O           -0.184158400297    -0.716923696259     1.576390586556    15.994914619570
         C            2.393983599703     0.339207303741     0.206367586556    12.000000000000
         C            1.005960599703     0.786510303741    -0.258321413444    12.000000000000
         C            2.869847599703    -0.926732696259    -0.504850413444    12.000000000000
         C            3.372842599703     1.492016303741    -0.018020413444    12.000000000000
         C           -2.827120400297    -0.075131696259    -0.117629413444    12.000000000000
         C           -3.878197700297     0.997295603741    -0.280115313444    12.000000000000
         H            2.330155599703     0.138827303741     1.282449586556     1.007825032230
         H            0.963889599703     0.928577303741    -1.342850413444     1.007825032230
         H            0.706311599703     1.716068303741     0.234667586556     1.007825032230
         H            2.900960599703    -0.767873696259    -1.588276413444     1.007825032230
         H            2.219680599703    -1.782089696259    -0.310526413444     1.007825032230
         H            3.879649599703    -1.183570696259    -0.171280413444     1.007825032230
         H            3.449926599703     1.732163303741    -1.083890413444     1.007825032230
         H            3.060082599703     2.395199303741     0.515110586556     1.007825032230
         H            4.370291599703     1.217293303741     0.337315586556     1.007825032230
         H           -2.846567400297    -0.781520696259    -0.951253413444     1.007825032230
         H           -2.935654400297    -0.623758696259     0.822851586556     1.007825032230
         H           -3.814739400297     1.702910303741     0.582717586556     1.007825032230
         H           -3.721638400297     1.563175303741    -1.185835413444     1.007825032230
         H           -4.867225400297     0.558294303741    -0.275328413444     1.007825032230

  Basis Set: AUG-CC-PVTZ
    Blend: AUG-CC-PVTZ
  Basis Set: (AUG-CC-PVTZ AUX)
    Blend: AUG-CC-PVTZ-JKFIT
	 Reference Energy          =    -857.6258113088740629 [Eh]
	 Singles Energy            =      -0.0000000000000000 [Eh]
	 Same-Spin Energy          =      -0.5252814546438924 [Eh]
	 Opposite-Spin Energy      =      -1.6808140489356611 [Eh]
	 Correlation Energy        =      -2.2060955035795535 [Eh]
	 Total Energy              =    -859.8319068124536670 [Eh]

	 ================> DF-SCS-MP2 Energies <==================
	-----------------------------------------------------------
	 SCS Same-Spin Scale       =       0.3333333333333333 [-]
	 SCS Opposite-Spin Scale   =       1.2000000000000000 [-]
	 SCS Same-Spin Energy      =      -0.1750938182146308 [Eh]
	 SCS Opposite-Spin Energy  =      -2.0169768587227934 [Eh]
	 SCS Correlation Energy    =      -2.1920706769374241 [Eh]
	 SCS Total Energy          =    -859.8178819858114821 [Eh]
	-----------------------------------------------------------

  Dipole Moment: [D]
     X:    -0.0614      Y:     2.7031      Z:    -1.0526     Total:     2.9015

*** Psi4 exiting successfully. Buy a developer a beer!
