                               Psi4 1.4a3.dev225

  ==> Input File <==

--------------------------------------------------------------------------
#psi4
#
memory 32 gb

molecule  {
0 1
  S       -0.2946600    -0.4360860     0.1655790
  O       -1.5657890     0.5673500    -0.1009940
  O       -0.3508230    -1.5212030    -0.8163730
  O       -0.2159750    -0.7550950     1.5921100
  C        2.3621670     0.3010360     0.2220870
  C        0.9741440     0.7483390    -0.2426020
  C        2.8380310    -0.9649040    -0.4891310
  C        3.3410260     1.4538450    -0.0023010
  C       -2.8589370    -0.1133030    -0.1019100
  C       -3.9021700     0.9699320    -0.2416680
  H        2.2983390     0.1006560     1.2981690
  H        0.9320730     0.8904060    -1.3271310
  H        0.6744950     1.6778970     0.2503870
  H        2.8691440    -0.8060450    -1.5725570
  H        2.2176379    -1.7810906    -0.3037059
  H        3.8478330    -1.2217420    -0.1555610
  H        3.4181100     1.6939920    -1.0681710
  H        3.0282660     2.3570280     0.5308300
  H        4.3384750     1.1791220     0.3530350
  H       -2.8783840    -0.8196920    -0.9355340
  H       -2.9674710    -0.6619300     0.8385710
  H       -3.8465560     1.6647390     0.5984370
  H       -3.7534550     1.5250040    -1.1701160
  H       -4.8990420     0.5201230    -0.2596090
units angstrom
no_reorient  #important for SAPT in psi4, default
symmetry c1  #important for SAPT in psi4, default
}

set PROPERTIES_ORIGIN ["COM"]
properties('MP2/aug-cc-pvtz', properties = ['dipole'])
--------------------------------------------------------------------------

    Molecular point group: c1
  Charge       = 0
  Multiplicity = 1
  Basis Set: AUG-CC-PVTZ
    Blend: AUG-CC-PVTZ
  Basis Set: (AUG-CC-PVTZ AUX)
    Blend: AUG-CC-PVTZ-JKFIT

    Orbital Energies [Eh]
    ---------------------

    Doubly Occupied:

       1A    -92.213908     2A    -20.614960     3A    -20.553908
       4A    -20.553648     5A    -11.301962     6A    -11.278096
       7A    -11.251141     8A    -11.233065     9A    -11.229205
      10A    -11.212882    11A     -9.178161    12A     -6.863616
      13A     -6.862170    14A     -6.861997    15A     -1.481135
      16A     -1.375165    17A     -1.337551    18A     -1.121238
      19A     -1.051663    20A     -0.997159    21A     -0.946022
      22A     -0.877236    23A     -0.831013    24A     -0.788894
      25A     -0.725278    26A     -0.693002    27A     -0.690782
      28A     -0.657305    29A     -0.635427    30A     -0.619127
      31A     -0.606963    32A     -0.587899    33A     -0.567335
      34A     -0.558935    35A     -0.555658    36A     -0.543339
      37A     -0.537608    38A     -0.512492    39A     -0.500051
      40A     -0.496934    41A     -0.491075    42A     -0.485733
      43A     -0.482698    44A     -0.463420    45A     -0.454546

  @DF-RHF Final Energy:  -857.62558382166867

   => Energetics <=

    Nuclear Repulsion Energy =            722.7507555577573157
    One-Electron Energy =               -2612.9898751623532007
    Two-Electron Energy =                1032.6135357829273289
    Total Energy =                       -857.6255838216686698
  Basis Set: (AUG-CC-PVTZ AUX)
    Blend: AUG-CC-PVTZ-RI
    Molecular point group: c1

    Geometry (in Angstrom), charge = 0, multiplicity = 1:

       Center              X                  Y                   Z               Mass
    ------------   -----------------  -----------------  -----------------  -----------------
         S           -0.263590923622    -0.398933381224     0.148271268145    31.972071174400
         O           -1.534719923622     0.604502618776    -0.118301731855    15.994914619570
         O           -0.319753923622    -1.484050381224    -0.833680731855    15.994914619570
         O           -0.184905923622    -0.717942381224     1.574802268145    15.994914619570
         C            2.393236076378     0.338188618776     0.204779268145    12.000000000000
         C            1.005213076378     0.785491618776    -0.259909731855    12.000000000000
         C            2.869100076378    -0.927751381224    -0.506438731855    12.000000000000
         C            3.372095076378     1.490997618776    -0.019608731855    12.000000000000
         C           -2.827867923622    -0.076150381224    -0.119217731855    12.000000000000
         C           -3.871100923622     1.007084618776    -0.258975731855    12.000000000000
         H            2.329408076378     0.137808618776     1.280861268145     1.007825032230
         H            0.963142076378     0.927558618776    -1.344438731855     1.007825032230
         H            0.705564076378     1.715049618776     0.233079268145     1.007825032230
         H            2.900213076378    -0.768892381224    -1.589864731855     1.007825032230
         H            2.248706976378    -1.743937981224    -0.321013631855     1.007825032230
         H            3.878902076378    -1.184589381224    -0.172868731855     1.007825032230
         H            3.449179076378     1.731144618776    -1.085478731855     1.007825032230
         H            3.059335076378     2.394180618776     0.513522268145     1.007825032230
         H            4.369544076378     1.216274618776     0.335727268145     1.007825032230
         H           -2.847314923622    -0.782539381224    -0.952841731855     1.007825032230
         H           -2.936401923622    -0.624777381224     0.821263268145     1.007825032230
         H           -3.815486923622     1.701891618776     0.581129268145     1.007825032230
         H           -3.722385923622     1.562156618776    -1.187423731855     1.007825032230
         H           -4.867972923622     0.557275618776    -0.276916731855     1.007825032230

  Basis Set: AUG-CC-PVTZ
    Blend: AUG-CC-PVTZ
  Basis Set: (AUG-CC-PVTZ AUX)
    Blend: AUG-CC-PVTZ-JKFIT
	 Reference Energy          =    -857.6255838216686698 [Eh]
	 Singles Energy            =      -0.0000000000000000 [Eh]
	 Same-Spin Energy          =      -0.5252310543456216 [Eh]
	 Opposite-Spin Energy      =      -1.6804571185516364 [Eh]
	 Correlation Energy        =      -2.2056881728972577 [Eh]
	 Total Energy              =    -859.8312719945658955 [Eh]

	 ================> DF-SCS-MP2 Energies <==================
	-----------------------------------------------------------
	 SCS Same-Spin Scale       =       0.3333333333333333 [-]
	 SCS Opposite-Spin Scale   =       1.2000000000000000 [-]
	 SCS Same-Spin Energy      =      -0.1750770181152072 [Eh]
	 SCS Opposite-Spin Energy  =      -2.0165485422619636 [Eh]
	 SCS Correlation Energy    =      -2.1916255603771706 [Eh]
	 SCS Total Energy          =    -859.8172093820458031 [Eh]
	-----------------------------------------------------------

  Dipole Moment: [D]
     X:    -0.0711      Y:     2.6935      Z:    -1.0433     Total:     2.8893

*** Psi4 exiting successfully. Buy a developer a beer!
