                               Psi4 1.4a3.dev225

  ==> Input File <==

--------------------------------------------------------------------------
#psi4
#
memory 32 gb

molecule  {
0 1
  S       -0.2946600    -0.4360860     0.1655790
  O       -1.5657890     0.5673500    -0.1009940
  O       -0.3508230    -1.5212030    -0.8163730
  O       -0.2159750    -0.7550950     1.5921100
  C        2.3621670     0.3010360     0.2220870
  C        0.9741440     0.7483390    -0.2426020
  C        2.8380310    -0.9649040    -0.4891310
  C        3.3410260     1.4538450    -0.0023010
  C       -2.8589370    -0.1133030    -0.1019100
  C       -3.9021700     0.9699320    -0.2416680
  H        2.2983390     0.1006560     1.2981690
  H        0.9320730     0.8904060    -1.3271310
  H        0.6744950     1.6778970     0.2503870
  H        2.8316643    -0.7985074    -1.5718534
  H        2.1878640    -1.8202610    -0.2948070
  H        3.8478330    -1.2217420    -0.1555610
  H        3.4181100     1.6939920    -1.0681710
  H        3.0282660     2.3570280     0.5308300
  H        4.3384750     1.1791220     0.3530350
  H       -2.8783840    -0.8196920    -0.9355340
  H       -2.9674710    -0.6619300     0.8385710
  H       -3.8465560     1.6647390     0.5984370
  H       -3.7534550     1.5250040    -1.1701160
  H       -4.8990420     0.5201230    -0.2596090
units angstrom
no_reorient  #important for SAPT in psi4, default
symmetry c1  #important for SAPT in psi4, default
}

set PROPERTIES_ORIGIN ["COM"]
properties('MP2/aug-cc-pvtz', properties = ['dipole'])
--------------------------------------------------------------------------

    Molecular point group: c1
  Charge       = 0
  Multiplicity = 1
  Basis Set: AUG-CC-PVTZ
    Blend: AUG-CC-PVTZ
  Basis Set: (AUG-CC-PVTZ AUX)
    Blend: AUG-CC-PVTZ-JKFIT

    Orbital Energies [Eh]
    ---------------------

    Doubly Occupied:

       1A    -92.213873     2A    -20.614934     3A    -20.553743
       4A    -20.553547     5A    -11.301942     6A    -11.278188
       7A    -11.251231     8A    -11.233055     9A    -11.229480
      10A    -11.218714    11A     -9.178119    12A     -6.863575
      13A     -6.862130    14A     -6.861955    15A     -1.481070
      16A     -1.375114    17A     -1.337457    18A     -1.121045
      19A     -1.051556    20A     -0.996718    21A     -0.942423
      22A     -0.876991    23A     -0.830728    24A     -0.787792
      25A     -0.725226    26A     -0.692888    27A     -0.690856
      28A     -0.656805    29A     -0.635377    30A     -0.616453
      31A     -0.606861    32A     -0.586054    33A     -0.567262
      34A     -0.558776    35A     -0.553953    36A     -0.545294
      37A     -0.537494    38A     -0.509757    39A     -0.500028
      40A     -0.497308    41A     -0.490681    42A     -0.485448
      43A     -0.481586    44A     -0.463354    45A     -0.453674

  @DF-RHF Final Energy:  -857.62632806910290

   => Energetics <=

    Nuclear Repulsion Energy =            722.6530740734453957
    One-Electron Energy =               -2612.8177710605755237
    Two-Electron Energy =                1032.5383689180273450
    Total Energy =                       -857.6263280691027830
  Basis Set: (AUG-CC-PVTZ AUX)
    Blend: AUG-CC-PVTZ-RI
    Molecular point group: c1

    Geometry (in Angstrom), charge = 0, multiplicity = 1:

       Center              X                  Y                   Z               Mass
    ------------   -----------------  -----------------  -----------------  -----------------
         S           -0.263182774378    -0.398741407806     0.148212992407    31.972071174400
         O           -1.534311774378     0.604694592194    -0.118360007593    15.994914619570
         O           -0.319345774378    -1.483858407806    -0.833739007593    15.994914619570
         O           -0.184497774378    -0.717750407806     1.574743992407    15.994914619570
         C            2.393644225622     0.338380592194     0.204720992407    12.000000000000
         C            1.005621225622     0.785683592194    -0.259968007593    12.000000000000
         C            2.869508225622    -0.927559407806    -0.506497007593    12.000000000000
         C            3.372503225622     1.491189592194    -0.019667007593    12.000000000000
         C           -2.827459774378    -0.075958407806    -0.119276007593    12.000000000000
         C           -3.870692774378     1.007276592194    -0.259034007593    12.000000000000
         H            2.329816225622     0.138000592194     1.280802992407     1.007825032230
         H            0.963550225622     0.927750592194    -1.344497007593     1.007825032230
         H            0.705972225622     1.715241592194     0.233020992407     1.007825032230
         H            2.863141525622    -0.761162807806    -1.589219407593     1.007825032230
         H            2.219341225622    -1.782916407806    -0.312173007593     1.007825032230
         H            3.879310225622    -1.184397407806    -0.172927007593     1.007825032230
         H            3.449587225622     1.731336592194    -1.085537007593     1.007825032230
         H            3.059743225622     2.394372592194     0.513463992407     1.007825032230
         H            4.369952225622     1.216466592194     0.335668992407     1.007825032230
         H           -2.846906774378    -0.782347407806    -0.952900007593     1.007825032230
         H           -2.935993774378    -0.624585407806     0.821204992407     1.007825032230
         H           -3.815078774378     1.702083592194     0.581070992407     1.007825032230
         H           -3.721977774378     1.562348592194    -1.187482007593     1.007825032230
         H           -4.867564774378     0.557467592194    -0.276975007593     1.007825032230

  Basis Set: AUG-CC-PVTZ
    Blend: AUG-CC-PVTZ
  Basis Set: (AUG-CC-PVTZ AUX)
    Blend: AUG-CC-PVTZ-JKFIT
	 Reference Energy          =    -857.6263280691028967 [Eh]
	 Singles Energy            =      -0.0000000000000000 [Eh]
	 Same-Spin Energy          =      -0.5253203258183626 [Eh]
	 Opposite-Spin Energy      =      -1.6808488097061873 [Eh]
	 Correlation Energy        =      -2.2061691355245499 [Eh]
	 Total Energy              =    -859.8324972046274297 [Eh]

	 ================> DF-SCS-MP2 Energies <==================
	-----------------------------------------------------------
	 SCS Same-Spin Scale       =       0.3333333333333333 [-]
	 SCS Opposite-Spin Scale   =       1.2000000000000000 [-]
	 SCS Same-Spin Energy      =      -0.1751067752727875 [Eh]
	 SCS Opposite-Spin Energy  =      -2.0170185716474247 [Eh]
	 SCS Correlation Energy    =      -2.1921253469202124 [Eh]
	 SCS Total Energy          =    -859.8184534160230896 [Eh]
	-----------------------------------------------------------

  Dipole Moment: [D]
     X:    -0.0765      Y:     2.7070      Z:    -1.0384     Total:     2.9004

*** Psi4 exiting successfully. Buy a developer a beer!
