                               Psi4 1.4a3.dev225

  ==> Input File <==

--------------------------------------------------------------------------
#psi4
#
memory 32 gb

molecule  {
0 1
  S       -0.2946600    -0.4360860     0.1655790
  O       -1.5657890     0.5673500    -0.1009940
  O       -0.3508230    -1.5212030    -0.8163730
  O       -0.2132875    -0.7659910     1.6408343
  C        2.3621670     0.3010360     0.2220870
  C        0.9741440     0.7483390    -0.2426020
  C        2.8380310    -0.9649040    -0.4891310
  C        3.3410260     1.4538450    -0.0023010
  C       -2.8589370    -0.1133030    -0.1019100
  C       -3.9021700     0.9699320    -0.2416680
  H        2.2983390     0.1006560     1.2981690
  H        0.9320730     0.8904060    -1.3271310
  H        0.6744950     1.6778970     0.2503870
  H        2.8691440    -0.8060450    -1.5725570
  H        2.1878640    -1.8202610    -0.2948070
  H        3.8478330    -1.2217420    -0.1555610
  H        3.4181100     1.6939920    -1.0681710
  H        3.0282660     2.3570280     0.5308300
  H        4.3384750     1.1791220     0.3530350
  H       -2.8783840    -0.8196920    -0.9355340
  H       -2.9674710    -0.6619300     0.8385710
  H       -3.8465560     1.6647390     0.5984370
  H       -3.7534550     1.5250040    -1.1701160
  H       -4.8990420     0.5201230    -0.2596090
units angstrom
no_reorient  #important for SAPT in psi4, default
symmetry c1  #important for SAPT in psi4, default
}

set PROPERTIES_ORIGIN ["COM"]
properties('MP2/aug-cc-pvtz', properties = ['dipole'])
--------------------------------------------------------------------------

    Molecular point group: c1
  Charge       = 0
  Multiplicity = 1
  Basis Set: AUG-CC-PVTZ
    Blend: AUG-CC-PVTZ
  Basis Set: (AUG-CC-PVTZ AUX)
    Blend: AUG-CC-PVTZ-JKFIT

    Orbital Energies [Eh]
    ---------------------

    Doubly Occupied:

       1A    -92.217641     2A    -20.618486     3A    -20.557712
       4A    -20.552413     5A    -11.303094     6A    -11.281001
       7A    -11.252105     8A    -11.233906     9A    -11.230103
      10A    -11.219142    11A     -9.181371    12A     -6.866785
      13A     -6.865387    14A     -6.864846    15A     -1.474139
      16A     -1.372607    17A     -1.322082    18A     -1.122173
      19A     -1.053037    20A     -0.998404    21A     -0.942912
      22A     -0.878733    23A     -0.833179    24A     -0.789425
      25A     -0.723643    26A     -0.693910    27A     -0.688641
      28A     -0.656677    29A     -0.632892    30A     -0.616231
      31A     -0.606550    32A     -0.586124    33A     -0.566032
      34A     -0.557424    35A     -0.555326    36A     -0.543778
      37A     -0.537094    38A     -0.510712    39A     -0.498609
      40A     -0.496143    41A     -0.490924    42A     -0.484356
      43A     -0.478383    44A     -0.460875    45A     -0.454259

  @DF-RHF Final Energy:  -857.61843484903045

   => Energetics <=

    Nuclear Repulsion Energy =            720.1401441578842650
    One-Electron Energy =               -2607.7786255961550523
    Two-Electron Energy =                1030.0200465892403372
    Total Energy =                       -857.6184348490305638
  Basis Set: (AUG-CC-PVTZ AUX)
    Blend: AUG-CC-PVTZ-RI
    Molecular point group: c1

    Geometry (in Angstrom), charge = 0, multiplicity = 1:

       Center              X                  Y                   Z               Mass
    ------------   -----------------  -----------------  -----------------  -----------------
         S           -0.263669081841    -0.397646200049     0.143524313213    31.972071174400
         O           -1.534798081841     0.605789799951    -0.123048686787    15.994914619570
         O           -0.319832081841    -1.482763200049    -0.838427686787    15.994914619570
         O           -0.182296581841    -0.727551200049     1.618779613213    15.994914619570
         C            2.393157918159     0.339475799951     0.200032313213    12.000000000000
         C            1.005134918159     0.786778799951    -0.264656686787    12.000000000000
         C            2.869021918159    -0.926464200049    -0.511185686787    12.000000000000
         C            3.372016918159     1.492284799951    -0.024355686787    12.000000000000
         C           -2.827946081841    -0.074863200049    -0.123964686787    12.000000000000
         C           -3.871179081841     1.008371799951    -0.263722686787    12.000000000000
         H            2.329329918159     0.139095799951     1.276114313213     1.007825032230
         H            0.963063918159     0.928845799951    -1.349185686787     1.007825032230
         H            0.705485918159     1.716336799951     0.228332313213     1.007825032230
         H            2.900134918159    -0.767605200049    -1.594611686787     1.007825032230
         H            2.218854918159    -1.781821200049    -0.316861686787     1.007825032230
         H            3.878823918159    -1.183302200049    -0.177615686787     1.007825032230
         H            3.449100918159     1.732431799951    -1.090225686787     1.007825032230
         H            3.059256918159     2.395467799951     0.508775313213     1.007825032230
         H            4.369465918159     1.217561799951     0.330980313213     1.007825032230
         H           -2.847393081841    -0.781252200049    -0.957588686787     1.007825032230
         H           -2.936480081841    -0.623490200049     0.816516313213     1.007825032230
         H           -3.815565081841     1.703178799951     0.576382313213     1.007825032230
         H           -3.722464081841     1.563443799951    -1.192170686787     1.007825032230
         H           -4.868051081841     0.558562799951    -0.281663686787     1.007825032230

  Basis Set: AUG-CC-PVTZ
    Blend: AUG-CC-PVTZ
  Basis Set: (AUG-CC-PVTZ AUX)
    Blend: AUG-CC-PVTZ-JKFIT
	 Reference Energy          =    -857.6184348490304501 [Eh]
	 Singles Energy            =      -0.0000000000000000 [Eh]
	 Same-Spin Energy          =      -0.5263371908020869 [Eh]
	 Opposite-Spin Energy      =      -1.6835008038310630 [Eh]
	 Correlation Energy        =      -2.2098379946331499 [Eh]
	 Total Energy              =    -859.8282728436636262 [Eh]

	 ================> DF-SCS-MP2 Energies <==================
	-----------------------------------------------------------
	 SCS Same-Spin Scale       =       0.3333333333333333 [-]
	 SCS Opposite-Spin Scale   =       1.2000000000000000 [-]
	 SCS Same-Spin Energy      =      -0.1754457302673623 [Eh]
	 SCS Opposite-Spin Energy  =      -2.0202009645972754 [Eh]
	 SCS Correlation Energy    =      -2.1956466948646378 [Eh]
	 SCS Total Energy          =    -859.8140815438950995 [Eh]
	-----------------------------------------------------------

  Dipole Moment: [D]
     X:    -0.0841      Y:     2.7786      Z:    -1.2909     Total:     3.0649

*** Psi4 exiting successfully. Buy a developer a beer!
