                               Psi4 1.4a3.dev225

  ==> Input File <==

--------------------------------------------------------------------------
#psi4
#
memory 32 gb

molecule  {
0 1
  S       -0.2946600    -0.4360860     0.1655790
  O       -1.5657890     0.5673500    -0.1009940
  O       -0.3508230    -1.5212030    -0.8163730
  O       -0.2159750    -0.7550950     1.5921100
  C        2.3621670     0.3010360     0.2220870
  C        0.9741440     0.7483390    -0.2426020
  C        2.8380310    -0.9649040    -0.4891310
  C        3.3410260     1.4538450    -0.0023010
  C       -2.8589370    -0.1133030    -0.1019100
  C       -3.9021700     0.9699320    -0.2416680
  H        2.2983390     0.1006560     1.2981690
  H        0.9320730     0.8904060    -1.3271310
  H        0.6744950     1.6778970     0.2503870
  H        2.8691440    -0.8060450    -1.5725570
  H        2.1878640    -1.8202610    -0.2948070
  H        3.8478330    -1.2217420    -0.1555610
  H        3.4181100     1.6939920    -1.0681710
  H        3.0282660     2.3570280     0.5308300
  H        4.3384750     1.1791220     0.3530350
  H       -2.8801635    -0.8843301    -1.0118147
  H       -2.9674710    -0.6619300     0.8385710
  H       -3.8465560     1.6647390     0.5984370
  H       -3.7534550     1.5250040    -1.1701160
  H       -4.8990420     0.5201230    -0.2596090
units angstrom
no_reorient  #important for SAPT in psi4, default
symmetry c1  #important for SAPT in psi4, default
}

set PROPERTIES_ORIGIN ["COM"]
properties('MP2/aug-cc-pvtz', properties = ['dipole'])
--------------------------------------------------------------------------

    Molecular point group: c1
  Charge       = 0
  Multiplicity = 1
  Basis Set: AUG-CC-PVTZ
    Blend: AUG-CC-PVTZ
  Basis Set: (AUG-CC-PVTZ AUX)
    Blend: AUG-CC-PVTZ-JKFIT

    Orbital Energies [Eh]
    ---------------------

    Doubly Occupied:

       1A    -92.214103     2A    -20.616283     3A    -20.553831
       4A    -20.553605     5A    -11.312670     6A    -11.278362
       7A    -11.251648     8A    -11.233701     9A    -11.229649
      10A    -11.218700    11A     -9.178350    12A     -6.863815
      13A     -6.862355    14A     -6.862179    15A     -1.481367
      16A     -1.375540    17A     -1.337508    18A     -1.121046
      19A     -1.049074    20A     -0.996657    21A     -0.942447
      22A     -0.874740    23A     -0.825245    24A     -0.788203
      25A     -0.725258    26A     -0.691473    27A     -0.686421
      28A     -0.655411    29A     -0.632735    30A     -0.616359
      31A     -0.606860    32A     -0.586732    33A     -0.567496
      34A     -0.559212    35A     -0.554937    36A     -0.543528
      37A     -0.536229    38A     -0.509795    39A     -0.498889
      40A     -0.492373    41A     -0.489847    42A     -0.484585
      43A     -0.481456    44A     -0.462017    45A     -0.453932

  @DF-RHF Final Energy:  -857.61945732890251

   => Energetics <=

    Nuclear Repulsion Energy =            722.1121099100085985
    One-Electron Energy =               -2611.7498877043803986
    Two-Electron Energy =                1032.0183204654690599
    Total Energy =                       -857.6194573289026266
  Basis Set: (AUG-CC-PVTZ AUX)
    Blend: AUG-CC-PVTZ-RI
    Molecular point group: c1

    Geometry (in Angstrom), charge = 0, multiplicity = 1:

       Center              X                  Y                   Z               Mass
    ------------   -----------------  -----------------  -----------------  -----------------
         S           -0.263399432068    -0.398303387278     0.148680195410    31.972071174400
         O           -1.534528432068     0.605132612722    -0.117892804590    15.994914619570
         O           -0.319562432068    -1.483420387278    -0.833271804590    15.994914619570
         O           -0.184714432068    -0.717312387278     1.575211195410    15.994914619570
         C            2.393427567932     0.338818612722     0.205188195410    12.000000000000
         C            1.005404567932     0.786121612722    -0.259500804590    12.000000000000
         C            2.869291567932    -0.927121387278    -0.506029804590    12.000000000000
         C            3.372286567932     1.491627612722    -0.019199804590    12.000000000000
         C           -2.827676432068    -0.075520387278    -0.118808804590    12.000000000000
         C           -3.870909432068     1.007714612722    -0.258566804590    12.000000000000
         H            2.329599567932     0.138438612722     1.281270195410     1.007825032230
         H            0.963333567932     0.928188612722    -1.344029804590     1.007825032230
         H            0.705755567932     1.715679612722     0.233488195410     1.007825032230
         H            2.900404567932    -0.768262387278    -1.589455804590     1.007825032230
         H            2.219124567932    -1.782478387278    -0.311705804590     1.007825032230
         H            3.879093567932    -1.183959387278    -0.172459804590     1.007825032230
         H            3.449370567932     1.731774612722    -1.085069804590     1.007825032230
         H            3.059526567932     2.394810612722     0.513931195410     1.007825032230
         H            4.369735567932     1.216904612722     0.336136195410     1.007825032230
         H           -2.848902932068    -0.846547487278    -1.028713504590     1.007825032230
         H           -2.936210432068    -0.624147387278     0.821672195410     1.007825032230
         H           -3.815295432068     1.702521612722     0.581538195410     1.007825032230
         H           -3.722194432068     1.562786612722    -1.187014804590     1.007825032230
         H           -4.867781432068     0.557905612722    -0.276507804590     1.007825032230

  Basis Set: AUG-CC-PVTZ
    Blend: AUG-CC-PVTZ
  Basis Set: (AUG-CC-PVTZ AUX)
    Blend: AUG-CC-PVTZ-JKFIT
	 Reference Energy          =    -857.6194573289025129 [Eh]
	 Singles Energy            =      -0.0000000000000000 [Eh]
	 Same-Spin Energy          =      -0.5255429481118505 [Eh]
	 Opposite-Spin Energy      =      -1.6818086140604265 [Eh]
	 Correlation Energy        =      -2.2073515621722768 [Eh]
	 Total Energy              =    -859.8268088910747338 [Eh]

	 ================> DF-SCS-MP2 Energies <==================
	-----------------------------------------------------------
	 SCS Same-Spin Scale       =       0.3333333333333333 [-]
	 SCS Opposite-Spin Scale   =       1.2000000000000000 [-]
	 SCS Same-Spin Energy      =      -0.1751809827039502 [Eh]
	 SCS Opposite-Spin Energy  =      -2.0181703368725117 [Eh]
	 SCS Correlation Energy    =      -2.1933513195764620 [Eh]
	 SCS Total Energy          =    -859.8128086484789492 [Eh]
	-----------------------------------------------------------

  Dipole Moment: [D]
     X:    -0.0339      Y:     2.7383      Z:    -1.0195     Total:     2.9222

*** Psi4 exiting successfully. Buy a developer a beer!
