                               Psi4 1.4a3.dev225

  ==> Input File <==

--------------------------------------------------------------------------
#psi4
#
memory 32 gb

molecule  {
0 1
  S       -0.2946600    -0.4360860     0.1655790
  O       -1.5657890     0.5673500    -0.1009940
  O       -0.3508230    -1.5212030    -0.8163730
  O       -0.2159750    -0.7550950     1.5921100
  C        2.3621670     0.3010360     0.2220870
  C        0.9741440     0.7483390    -0.2426020
  C        2.8380310    -0.9649040    -0.4891310
  C        3.3410260     1.4538450    -0.0023010
  C       -2.8589370    -0.1133030    -0.1019100
  C       -3.9021700     0.9699320    -0.2416680
  H        2.2983390     0.1006560     1.2981690
  H        0.9320730     0.8904060    -1.3271310
  H        0.6744950     1.6778970     0.2503870
  H        2.8691440    -0.8060450    -1.5725570
  H        2.1878640    -1.8202610    -0.2948070
  H        3.8478330    -1.2217420    -0.1555610
  H        3.4181100     1.6939920    -1.0681710
  H        3.0282660     2.3570280     0.5308300
  H        4.3384750     1.1791220     0.3530350
  H       -2.8805035    -0.8340206    -0.9231247
  H       -2.9674710    -0.6619300     0.8385710
  H       -3.8465560     1.6647390     0.5984370
  H       -3.7534550     1.5250040    -1.1701160
  H       -4.8990420     0.5201230    -0.2596090
units angstrom
no_reorient  #important for SAPT in psi4, default
symmetry c1  #important for SAPT in psi4, default
}

set PROPERTIES_ORIGIN ["COM"]
properties('MP2/aug-cc-pvtz', properties = ['dipole'])
--------------------------------------------------------------------------

    Molecular point group: c1
  Charge       = 0
  Multiplicity = 1
  Basis Set: AUG-CC-PVTZ
    Blend: AUG-CC-PVTZ
  Basis Set: (AUG-CC-PVTZ AUX)
    Blend: AUG-CC-PVTZ-JKFIT

    Orbital Energies [Eh]
    ---------------------

    Doubly Occupied:

       1A    -92.213889     2A    -20.615112     3A    -20.553742
       4A    -20.553572     5A    -11.301859     6A    -11.278162
       7A    -11.251514     8A    -11.233148     9A    -11.229545
      10A    -11.218637    11A     -9.178138    12A     -6.863594
      13A     -6.862148    14A     -6.861973    15A     -1.481093
      16A     -1.375129    17A     -1.337466    18A     -1.120962
      19A     -1.051431    20A     -0.996743    21A     -0.942363
      22A     -0.877146    23A     -0.831199    24A     -0.788076
      25A     -0.725421    26A     -0.692304    27A     -0.690784
      28A     -0.656504    29A     -0.634918    30A     -0.616167
      31A     -0.606847    32A     -0.586773    33A     -0.567246
      34A     -0.558897    35A     -0.554687    36A     -0.543676
      37A     -0.537891    38A     -0.510042    39A     -0.500380
      40A     -0.496500    41A     -0.490445    42A     -0.485361
      43A     -0.482555    44A     -0.463266    45A     -0.453710

  @DF-RHF Final Energy:  -857.62645347661714

   => Energetics <=

    Nuclear Repulsion Energy =            722.5674437495808888
    One-Electron Energy =               -2612.6457577677529116
    Two-Electron Energy =                1032.4518605415548791
    Total Energy =                       -857.6264534766171437
  Basis Set: (AUG-CC-PVTZ AUX)
    Blend: AUG-CC-PVTZ-RI
    Molecular point group: c1

    Geometry (in Angstrom), charge = 0, multiplicity = 1:

       Center              X                  Y                   Z               Mass
    ------------   -----------------  -----------------  -----------------  -----------------
         S           -0.263397368673    -0.398608706018     0.148141952751    31.972071174400
         O           -1.534526368673     0.604827293982    -0.118431047249    15.994914619570
         O           -0.319560368673    -1.483725706018    -0.833810047249    15.994914619570
         O           -0.184712368673    -0.717617706018     1.574672952751    15.994914619570
         C            2.393429631327     0.338513293982     0.204649952751    12.000000000000
         C            1.005406631327     0.785816293982    -0.260039047249    12.000000000000
         C            2.869293631327    -0.927426706018    -0.506568047249    12.000000000000
         C            3.372288631327     1.491322293982    -0.019738047249    12.000000000000
         C           -2.827674368673    -0.075825706018    -0.119347047249    12.000000000000
         C           -3.870907368673     1.007409293982    -0.259105047249    12.000000000000
         H            2.329601631327     0.138133293982     1.280731952751     1.007825032230
         H            0.963335631327     0.927883293982    -1.344568047249     1.007825032230
         H            0.705757631327     1.715374293982     0.232949952751     1.007825032230
         H            2.900406631327    -0.768567706018    -1.589994047249     1.007825032230
         H            2.219126631327    -1.782783706018    -0.312244047249     1.007825032230
         H            3.879095631327    -1.184264706018    -0.172998047249     1.007825032230
         H            3.449372631327     1.731469293982    -1.085608047249     1.007825032230
         H            3.059528631327     2.394505293982     0.513392952751     1.007825032230
         H            4.369737631327     1.216599293982     0.335597952751     1.007825032230
         H           -2.849240868673    -0.796543306018    -0.940561747249     1.007825032230
         H           -2.936208368673    -0.624452706018     0.821133952751     1.007825032230
         H           -3.815293368673     1.702216293982     0.580999952751     1.007825032230
         H           -3.722192368673     1.562481293982    -1.187553047249     1.007825032230
         H           -4.867779368673     0.557600293982    -0.277046047249     1.007825032230

  Basis Set: AUG-CC-PVTZ
    Blend: AUG-CC-PVTZ
  Basis Set: (AUG-CC-PVTZ AUX)
    Blend: AUG-CC-PVTZ-JKFIT
	 Reference Energy          =    -857.6264534766171437 [Eh]
	 Singles Energy            =      -0.0000000000000000 [Eh]
	 Same-Spin Energy          =      -0.5252939385040327 [Eh]
	 Opposite-Spin Energy      =      -1.6807948426996364 [Eh]
	 Correlation Energy        =      -2.2060887812036691 [Eh]
	 Total Energy              =    -859.8325422578208190 [Eh]

	 ================> DF-SCS-MP2 Energies <==================
	-----------------------------------------------------------
	 SCS Same-Spin Scale       =       0.3333333333333333 [-]
	 SCS Opposite-Spin Scale   =       1.2000000000000000 [-]
	 SCS Same-Spin Energy      =      -0.1750979795013442 [Eh]
	 SCS Opposite-Spin Energy  =      -2.0169538112395635 [Eh]
	 SCS Correlation Energy    =      -2.1920517907409076 [Eh]
	 SCS Total Energy          =    -859.8185052673580913 [Eh]
	-----------------------------------------------------------

  Dipole Moment: [D]
     X:    -0.0624      Y:     2.7049      Z:    -1.0418     Total:     2.8993

*** Psi4 exiting successfully. Buy a developer a beer!
