                               Psi4 1.4a3.dev225

  ==> Input File <==

--------------------------------------------------------------------------
#psi4
#
memory 32 gb

molecule  {
0 1
  S       -0.2946600    -0.4360860     0.1655790
  O       -1.5657890     0.5673500    -0.1009940
  O       -0.3508230    -1.5212030    -0.8163730
  O       -0.2159750    -0.7550950     1.5921100
  C        2.3621670     0.3010360     0.2220870
  C        0.9741440     0.7483390    -0.2426020
  C        2.8380310    -0.9649040    -0.4891310
  C        3.3410260     1.4538450    -0.0023010
  C       -2.8589370    -0.1133030    -0.1019100
  C       -3.9021700     0.9699320    -0.2416680
  H        2.2983390     0.1006560     1.2981690
  H        0.9320730     0.8904060    -1.3271310
  H        0.6744950     1.6778970     0.2503870
  H        2.8691440    -0.8060450    -1.5725570
  H        2.2474118    -1.7419201    -0.3126048
  H        3.8478330    -1.2217420    -0.1555610
  H        3.4181100     1.6939920    -1.0681710
  H        3.0282660     2.3570280     0.5308300
  H        4.3384750     1.1791220     0.3530350
  H       -2.8783840    -0.8196920    -0.9355340
  H       -2.9674710    -0.6619300     0.8385710
  H       -3.8465560     1.6647390     0.5984370
  H       -3.7534550     1.5250040    -1.1701160
  H       -4.8990420     0.5201230    -0.2596090
units angstrom
no_reorient  #important for SAPT in psi4, default
symmetry c1  #important for SAPT in psi4, default
}

set PROPERTIES_ORIGIN ["COM"]
properties('MP2/aug-cc-pvtz', properties = ['dipole'])
--------------------------------------------------------------------------

    Molecular point group: c1
  Charge       = 0
  Multiplicity = 1
  Basis Set: AUG-CC-PVTZ
    Blend: AUG-CC-PVTZ
  Basis Set: (AUG-CC-PVTZ AUX)
    Blend: AUG-CC-PVTZ-JKFIT

    Orbital Energies [Eh]
    ---------------------

    Doubly Occupied:

       1A    -92.213976     2A    -20.615014     3A    -20.554115
       4A    -20.553740     5A    -11.302004     6A    -11.278076
       7A    -11.250839     8A    -11.233093     9A    -11.228928
      10A    -11.207016    11A     -9.178233    12A     -6.863688
      13A     -6.862242    14A     -6.862070    15A     -1.481223
      16A     -1.375239    17A     -1.337664    18A     -1.121669
      19A     -1.051838    20A     -0.997807    21A     -0.950299
      22A     -0.877457    23A     -0.831279    24A     -0.789893
      25A     -0.725337    26A     -0.693157    27A     -0.690900
      28A     -0.658049    29A     -0.636093    30A     -0.622474
      31A     -0.607135    32A     -0.588966    33A     -0.567483
      34A     -0.559020    35A     -0.556568    36A     -0.543150
      37A     -0.537804    38A     -0.514798    39A     -0.500079
      40A     -0.496992    41A     -0.491518    42A     -0.485990
      43A     -0.482671    44A     -0.463499    45A     -0.455229

  @DF-RHF Final Energy:  -857.62050680849927

   => Energetics <=

    Nuclear Repulsion Energy =            722.9399508124386102
    One-Electron Energy =               -2613.3322904611318336
    Two-Electron Energy =                1032.7718328401938379
    Total Energy =                       -857.6205068084993854
  Basis Set: (AUG-CC-PVTZ AUX)
    Blend: AUG-CC-PVTZ-RI
    Molecular point group: c1

    Geometry (in Angstrom), charge = 0, multiplicity = 1:

       Center              X                  Y                   Z               Mass
    ------------   -----------------  -----------------  -----------------  -----------------
         S           -0.263771615730    -0.399171099502     0.148325273868    31.972071174400
         O           -1.534900615730     0.604264900498    -0.118247726132    15.994914619570
         O           -0.319934615730    -1.484288099502    -0.833626726132    15.994914619570
         O           -0.185086615730    -0.718180099502     1.574856273868    15.994914619570
         C            2.393055384270     0.337950900498     0.204833273868    12.000000000000
         C            1.005032384270     0.785253900498    -0.259855726132    12.000000000000
         C            2.868919384270    -0.927989099502    -0.506384726132    12.000000000000
         C            3.371914384270     1.490759900498    -0.019554726132    12.000000000000
         C           -2.828048615730    -0.076388099502    -0.119163726132    12.000000000000
         C           -3.871281615730     1.006846900498    -0.258921726132    12.000000000000
         H            2.329227384270     0.137570900498     1.280915273868     1.007825032230
         H            0.962961384270     0.927320900498    -1.344384726132     1.007825032230
         H            0.705383384270     1.714811900498     0.233133273868     1.007825032230
         H            2.900032384270    -0.769130099502    -1.589810726132     1.007825032230
         H            2.278300184270    -1.705005199502    -0.329858526132     1.007825032230
         H            3.878721384270    -1.184827099502    -0.172814726132     1.007825032230
         H            3.448998384270     1.730906900498    -1.085424726132     1.007825032230
         H            3.059154384270     2.393942900498     0.513576273868     1.007825032230
         H            4.369363384270     1.216036900498     0.335781273868     1.007825032230
         H           -2.847495615730    -0.782777099502    -0.952787726132     1.007825032230
         H           -2.936582615730    -0.625015099502     0.821317273868     1.007825032230
         H           -3.815667615730     1.701653900498     0.581183273868     1.007825032230
         H           -3.722566615730     1.561918900498    -1.187369726132     1.007825032230
         H           -4.868153615730     0.557037900498    -0.276862726132     1.007825032230

  Basis Set: AUG-CC-PVTZ
    Blend: AUG-CC-PVTZ
  Basis Set: (AUG-CC-PVTZ AUX)
    Blend: AUG-CC-PVTZ-JKFIT
	 Reference Energy          =    -857.6205068084992718 [Eh]
	 Singles Energy            =      -0.0000000000000000 [Eh]
	 Same-Spin Energy          =      -0.5251893845644413 [Eh]
	 Opposite-Spin Energy      =      -1.6801969240142414 [Eh]
	 Correlation Energy        =      -2.2053863085786825 [Eh]
	 Total Energy              =    -859.8258931170779533 [Eh]

	 ================> DF-SCS-MP2 Energies <==================
	-----------------------------------------------------------
	 SCS Same-Spin Scale       =       0.3333333333333333 [-]
	 SCS Opposite-Spin Scale   =       1.2000000000000000 [-]
	 SCS Same-Spin Energy      =      -0.1750631281881471 [Eh]
	 SCS Opposite-Spin Energy  =      -2.0162363088170894 [Eh]
	 SCS Correlation Energy    =      -2.1912994370052363 [Eh]
	 SCS Total Energy          =    -859.8118062455044992 [Eh]
	-----------------------------------------------------------

  Dipole Moment: [D]
     X:    -0.0755      Y:     2.6805      Z:    -1.0426     Total:     2.8771

*** Psi4 exiting successfully. Buy a developer a beer!
