                               Psi4 1.4a3.dev225

  ==> Input File <==

--------------------------------------------------------------------------
#psi4
#
memory 32 gb

molecule  {
0 1
  S       -0.2946600    -0.4360860     0.1655790
  O       -1.5657890     0.5673500    -0.1009940
  O       -0.3508230    -1.5212030    -0.8163730
  O       -0.2159750    -0.7550950     1.5921100
  C        2.3621670     0.3010360     0.2220870
  C        0.9741440     0.7483390    -0.2426020
  C        2.8380310    -0.9649040    -0.4891310
  C        3.3410260     1.4538450    -0.0023010
  C       -2.8589370    -0.1133030    -0.1019100
  C       -3.9021700     0.9699320    -0.2416680
  H        2.2983390     0.1006560     1.2981690
  H        0.9320730     0.8904060    -1.3271310
  H        0.6744950     1.6778970     0.2503870
  H        2.8691440    -0.8060450    -1.5725570
  H        2.1878640    -1.8202610    -0.2948070
  H        3.8478330    -1.2217420    -0.1555610
  H        3.4181100     1.6939920    -1.0681710
  H        3.0282660     2.3570280     0.5308300
  H        4.3384750     1.1791220     0.3530350
  H       -2.8783840    -0.8196920    -0.9355340
  H       -2.9674710    -0.6619300     0.8385710
  H       -3.8465560     1.6647390     0.5984370
  H       -3.7534550     1.5250040    -1.1701160
  H       -4.8079038     0.5612464    -0.2579688
units angstrom
no_reorient  #important for SAPT in psi4, default
symmetry c1  #important for SAPT in psi4, default
}

set PROPERTIES_ORIGIN ["COM"]
properties('MP2/aug-cc-pvtz', properties = ['dipole'])
--------------------------------------------------------------------------

    Molecular point group: c1
  Charge       = 0
  Multiplicity = 1
  Basis Set: AUG-CC-PVTZ
    Blend: AUG-CC-PVTZ
  Basis Set: (AUG-CC-PVTZ AUX)
    Blend: AUG-CC-PVTZ-JKFIT

    Orbital Energies [Eh]
    ---------------------

    Doubly Occupied:

       1A    -92.213412     2A    -20.614362     3A    -20.553352
       4A    -20.553204     5A    -11.301225     6A    -11.277826
       7A    -11.251275     8A    -11.229351     9A    -11.220640
      10A    -11.218442    11A     -9.177668    12A     -6.863119
      13A     -6.861682    14A     -6.861508    15A     -1.480611
      16A     -1.374565    17A     -1.337103    18A     -1.120722
      19A     -1.055471    20A     -0.998642    21A     -0.942166
      22A     -0.883128    23A     -0.831092    24A     -0.787935
      25A     -0.726261    26A     -0.692430    27A     -0.690363
      28A     -0.656441    29A     -0.634808    30A     -0.616434
      31A     -0.608565    32A     -0.589121    33A     -0.576304
      34A     -0.558570    35A     -0.557928    36A     -0.544007
      37A     -0.537961    38A     -0.509782    39A     -0.499640
      40A     -0.496546    41A     -0.490271    42A     -0.485148
      43A     -0.482349    44A     -0.462992    45A     -0.453608

  @DF-RHF Final Energy:  -857.62036801387751

   => Energetics <=

    Nuclear Repulsion Energy =            723.0769827853794141
    One-Electron Energy =               -2613.6386492290266688
    Two-Electron Energy =                1032.9412984297698586
    Total Energy =                       -857.6203680138773962
  Basis Set: (AUG-CC-PVTZ AUX)
    Blend: AUG-CC-PVTZ-RI
    Molecular point group: c1

    Geometry (in Angstrom), charge = 0, multiplicity = 1:

       Center              X                  Y                   Z               Mass
    ------------   -----------------  -----------------  -----------------  -----------------
         S           -0.263963331830    -0.398945233607     0.148207308361    31.972071174400
         O           -1.535092331830     0.604490766393    -0.118365691639    15.994914619570
         O           -0.320126331830    -1.484062233607    -0.833744691639    15.994914619570
         O           -0.185278331830    -0.717954233607     1.574738308361    15.994914619570
         C            2.392863668170     0.338176766393     0.204715308361    12.000000000000
         C            1.004840668170     0.785479766393    -0.259973691639    12.000000000000
         C            2.868727668170    -0.927763233607    -0.506502691639    12.000000000000
         C            3.371722668170     1.490985766393    -0.019672691639    12.000000000000
         C           -2.828240331830    -0.076162233607    -0.119281691639    12.000000000000
         C           -3.871473331830     1.007072766393    -0.259039691639    12.000000000000
         H            2.329035668170     0.137796766393     1.280797308361     1.007825032230
         H            0.962769668170     0.927546766393    -1.344502691639     1.007825032230
         H            0.705191668170     1.715037766393     0.233015308361     1.007825032230
         H            2.899840668170    -0.768904233607    -1.589928691639     1.007825032230
         H            2.218560668170    -1.783120233607    -0.312178691639     1.007825032230
         H            3.878529668170    -1.184601233607    -0.172932691639     1.007825032230
         H            3.448806668170     1.731132766393    -1.085542691639     1.007825032230
         H            3.058962668170     2.394168766393     0.513458308361     1.007825032230
         H            4.369171668170     1.216262766393     0.335663308361     1.007825032230
         H           -2.847687331830    -0.782551233607    -0.952905691639     1.007825032230
         H           -2.936774331830    -0.624789233607     0.821199308361     1.007825032230
         H           -3.815859331830     1.701879766393     0.581065308361     1.007825032230
         H           -3.722758331830     1.562144766393    -1.187487691639     1.007825032230
         H           -4.777207131830     0.598387166393    -0.275340491639     1.007825032230

  Basis Set: AUG-CC-PVTZ
    Blend: AUG-CC-PVTZ
  Basis Set: (AUG-CC-PVTZ AUX)
    Blend: AUG-CC-PVTZ-JKFIT
	 Reference Energy          =    -857.6203680138775098 [Eh]
	 Singles Energy            =      -0.0000000000000000 [Eh]
	 Same-Spin Energy          =      -0.5253578872759836 [Eh]
	 Opposite-Spin Energy      =      -1.6803824201584789 [Eh]
	 Correlation Energy        =      -2.2057403074344624 [Eh]
	 Total Energy              =    -859.8261083213119491 [Eh]

	 ================> DF-SCS-MP2 Energies <==================
	-----------------------------------------------------------
	 SCS Same-Spin Scale       =       0.3333333333333333 [-]
	 SCS Opposite-Spin Scale   =       1.2000000000000000 [-]
	 SCS Same-Spin Energy      =      -0.1751192957586612 [Eh]
	 SCS Opposite-Spin Energy  =      -2.0164589041901748 [Eh]
	 SCS Correlation Energy    =      -2.1915781999488360 [Eh]
	 SCS Total Energy          =    -859.8119462138263316 [Eh]
	-----------------------------------------------------------

  Dipole Moment: [D]
     X:    -0.1137      Y:     2.7021      Z:    -1.0464     Total:     2.8999

*** Psi4 exiting successfully. Buy a developer a beer!
