                               Psi4 1.4a3.dev225

  ==> Input File <==

--------------------------------------------------------------------------
#psi4
#
memory 32 gb

molecule  {
0 1
  S       -0.2946600    -0.4360860     0.1655790
  O       -1.5657890     0.5673500    -0.1009940
  O       -0.3508230    -1.5212030    -0.8163730
  O       -0.2159750    -0.7550950     1.5921100
  C        2.3786185     0.3024951     0.1712800
  C        0.9741440     0.7483390    -0.2426020
  C        2.8380310    -0.9649040    -0.4891310
  C        3.3410260     1.4538450    -0.0023010
  C       -2.8589370    -0.1133030    -0.1019100
  C       -3.9021700     0.9699320    -0.2416680
  H        2.2983390     0.1006560     1.2981690
  H        0.9320730     0.8904060    -1.3271310
  H        0.6744950     1.6778970     0.2503870
  H        2.8691440    -0.8060450    -1.5725570
  H        2.1878640    -1.8202610    -0.2948070
  H        3.8478330    -1.2217420    -0.1555610
  H        3.4181100     1.6939920    -1.0681710
  H        3.0282660     2.3570280     0.5308300
  H        4.3384750     1.1791220     0.3530350
  H       -2.8783840    -0.8196920    -0.9355340
  H       -2.9674710    -0.6619300     0.8385710
  H       -3.8465560     1.6647390     0.5984370
  H       -3.7534550     1.5250040    -1.1701160
  H       -4.8990420     0.5201230    -0.2596090
units angstrom
no_reorient  #important for SAPT in psi4, default
symmetry c1  #important for SAPT in psi4, default
}

set PROPERTIES_ORIGIN ["COM"]
properties('MP2/aug-cc-pvtz', properties = ['dipole'])
--------------------------------------------------------------------------

    Molecular point group: c1
  Charge       = 0
  Multiplicity = 1
  Basis Set: AUG-CC-PVTZ
    Blend: AUG-CC-PVTZ
  Basis Set: (AUG-CC-PVTZ AUX)
    Blend: AUG-CC-PVTZ-JKFIT

    Orbital Energies [Eh]
    ---------------------

    Doubly Occupied:

       1A    -92.214404     2A    -20.615309     3A    -20.553878
       4A    -20.553458     5A    -11.302192     6A    -11.278226
       7A    -11.253587     8A    -11.233194     9A    -11.229301
      10A    -11.218265    11A     -9.178571    12A     -6.864025
      13A     -6.862611    14A     -6.862410    15A     -1.481218
      16A     -1.375296    17A     -1.337454    18A     -1.123740
      19A     -1.052390    20A     -0.998837    21A     -0.946931
      22A     -0.877287    23A     -0.830530    24A     -0.781254
      25A     -0.725507    26A     -0.693232    27A     -0.690409
      28A     -0.657955    29A     -0.635431    30A     -0.619535
      31A     -0.607297    32A     -0.587409    33A     -0.567263
      34A     -0.558976    35A     -0.554927    36A     -0.544946
      37A     -0.538046    38A     -0.512580    39A     -0.501849
      40A     -0.498214    41A     -0.495071    42A     -0.485263
      43A     -0.466667    44A     -0.462664    45A     -0.455813

  @DF-RHF Final Energy:  -857.62271696700520

   => Energetics <=

    Nuclear Repulsion Energy =            722.6727213875697089
    One-Electron Energy =               -2612.8240310120108916
    Two-Electron Energy =                1032.5285926574358655
    Total Energy =                       -857.6227169670053172
  Basis Set: (AUG-CC-PVTZ AUX)
    Blend: AUG-CC-PVTZ-RI
    Molecular point group: c1

    Geometry (in Angstrom), charge = 0, multiplicity = 1:

       Center              X                  Y                   Z               Mass
    ------------   -----------------  -----------------  -----------------  -----------------
         S           -0.264599021305    -0.398801098509     0.151888589834    31.972071174400
         O           -1.535728021305     0.604634901491    -0.114684410166    15.994914619570
         O           -0.320762021305    -1.483918098509    -0.830063410166    15.994914619570
         O           -0.185914021305    -0.717810098509     1.578419589834    15.994914619570
         C            2.408679478695     0.339780001491     0.157589589834    12.000000000000
         C            1.004204978695     0.785623901491    -0.256292410166    12.000000000000
         C            2.868091978695    -0.927619098509    -0.502821410166    12.000000000000
         C            3.371086978695     1.491129901491    -0.015991410166    12.000000000000
         C           -2.828876021305    -0.076018098509    -0.115600410166    12.000000000000
         C           -3.872109021305     1.007216901491    -0.255358410166    12.000000000000
         H            2.328399978695     0.137940901491     1.284478589834     1.007825032230
         H            0.962133978695     0.927690901491    -1.340821410166     1.007825032230
         H            0.704555978695     1.715181901491     0.236696589834     1.007825032230
         H            2.899204978695    -0.768760098509    -1.586247410166     1.007825032230
         H            2.217924978695    -1.782976098509    -0.308497410166     1.007825032230
         H            3.877893978695    -1.184457098509    -0.169251410166     1.007825032230
         H            3.448170978695     1.731276901491    -1.081861410166     1.007825032230
         H            3.058326978695     2.394312901491     0.517139589834     1.007825032230
         H            4.368535978695     1.216406901491     0.339344589834     1.007825032230
         H           -2.848323021305    -0.782407098509    -0.949224410166     1.007825032230
         H           -2.937410021305    -0.624645098509     0.824880589834     1.007825032230
         H           -3.816495021305     1.702023901491     0.584746589834     1.007825032230
         H           -3.723394021305     1.562288901491    -1.183806410166     1.007825032230
         H           -4.868981021305     0.557407901491    -0.273299410166     1.007825032230

  Basis Set: AUG-CC-PVTZ
    Blend: AUG-CC-PVTZ
  Basis Set: (AUG-CC-PVTZ AUX)
    Blend: AUG-CC-PVTZ-JKFIT
	 Reference Energy          =    -857.6227169670052035 [Eh]
	 Singles Energy            =      -0.0000000000000000 [Eh]
	 Same-Spin Energy          =      -0.5256591371866675 [Eh]
	 Opposite-Spin Energy      =      -1.6812924311767510 [Eh]
	 Correlation Energy        =      -2.2069515683634187 [Eh]
	 Total Energy              =    -859.8296685353685689 [Eh]

	 ================> DF-SCS-MP2 Energies <==================
	-----------------------------------------------------------
	 SCS Same-Spin Scale       =       0.3333333333333333 [-]
	 SCS Opposite-Spin Scale   =       1.2000000000000000 [-]
	 SCS Same-Spin Energy      =      -0.1752197123955558 [Eh]
	 SCS Opposite-Spin Energy  =      -2.0175509174121009 [Eh]
	 SCS Correlation Energy    =      -2.1927706298076566 [Eh]
	 SCS Total Energy          =    -859.8154875968128863 [Eh]
	-----------------------------------------------------------

  Dipole Moment: [D]
     X:    -0.0727      Y:     2.6993      Z:    -1.0556     Total:     2.8993

*** Psi4 exiting successfully. Buy a developer a beer!
