                               Psi4 1.4a3.dev225

  ==> Input File <==

--------------------------------------------------------------------------
#psi4
#
memory 32 gb

molecule  {
0 1
  S       -0.2946600    -0.4360860     0.1655790
  O       -1.5657890     0.5673500    -0.1009940
  O       -0.3508230    -1.5212030    -0.8163730
  O       -0.2052248    -0.7986790     1.7870071
  C        2.3621670     0.3010360     0.2220870
  C        0.9741440     0.7483390    -0.2426020
  C        2.8380310    -0.9649040    -0.4891310
  C        3.3410260     1.4538450    -0.0023010
  C       -2.8589370    -0.1133030    -0.1019100
  C       -3.9021700     0.9699320    -0.2416680
  H        2.2983390     0.1006560     1.2981690
  H        0.9320730     0.8904060    -1.3271310
  H        0.6744950     1.6778970     0.2503870
  H        2.8691440    -0.8060450    -1.5725570
  H        2.1878640    -1.8202610    -0.2948070
  H        3.8478330    -1.2217420    -0.1555610
  H        3.4181100     1.6939920    -1.0681710
  H        3.0282660     2.3570280     0.5308300
  H        4.3384750     1.1791220     0.3530350
  H       -2.8783840    -0.8196920    -0.9355340
  H       -2.9674710    -0.6619300     0.8385710
  H       -3.8465560     1.6647390     0.5984370
  H       -3.7534550     1.5250040    -1.1701160
  H       -4.8990420     0.5201230    -0.2596090
units angstrom
no_reorient  #important for SAPT in psi4, default
symmetry c1  #important for SAPT in psi4, default
}

set PROPERTIES_ORIGIN ["COM"]
properties('MP2/aug-cc-pvtz', properties = ['dipole'])
--------------------------------------------------------------------------

    Molecular point group: c1
  Charge       = 0
  Multiplicity = 1
  Basis Set: AUG-CC-PVTZ
    Blend: AUG-CC-PVTZ
  Basis Set: (AUG-CC-PVTZ AUX)
    Blend: AUG-CC-PVTZ-JKFIT

    Orbital Energies [Eh]
    ---------------------

    Doubly Occupied:

       1A    -92.220392     2A    -20.626785     3A    -20.566637
       4A    -20.551761     5A    -11.305981     6A    -11.287447
       7A    -11.253717     8A    -11.236003     9A    -11.231547
      10A    -11.220535    11A     -9.185097    12A     -6.870038
      13A     -6.868782    14A     -6.867758    15A     -1.467519
      16A     -1.374409    17A     -1.265186    18A     -1.125281
      19A     -1.056882    20A     -1.002656    21A     -0.944383
      22A     -0.883216    23A     -0.839601    24A     -0.792982
      25A     -0.721992    26A     -0.697308    27A     -0.686160
      28A     -0.657657    29A     -0.629683    30A     -0.616017
      31A     -0.606967    32A     -0.584937    33A     -0.565054
      34A     -0.557510    35A     -0.552584    36A     -0.543903
      37A     -0.537283    38A     -0.512924    39A     -0.496384
      40A     -0.495644    41A     -0.487562    42A     -0.484661
      43A     -0.464298    44A     -0.451345    45A     -0.450916

  @DF-RHF Final Energy:  -857.57943454483143

   => Energetics <=

    Nuclear Repulsion Energy =            713.4555130525611730
    One-Electron Energy =               -2594.3791301360306534
    Two-Electron Energy =                1023.3441825386380515
    Total Energy =                       -857.5794345448314289
  Basis Set: (AUG-CC-PVTZ AUX)
    Blend: AUG-CC-PVTZ-RI
    Molecular point group: c1

    Geometry (in Angstrom), charge = 0, multiplicity = 1:

       Center              X                  Y                   Z               Mass
    ------------   -----------------  -----------------  -----------------  -----------------
         S           -0.264445652086    -0.394497809540     0.129445475220    31.972071174400
         O           -1.535574652086     0.608938190460    -0.137127524780    15.994914619570
         O           -0.320608652086    -1.479614809540    -0.852506524780    15.994914619570
         O           -0.175010452086    -0.757090809540     1.750873575220    15.994914619570
         C            2.392381347914     0.342624190460     0.185953475220    12.000000000000
         C            1.004358347914     0.789927190460    -0.278735524780    12.000000000000
         C            2.868245347914    -0.923315809540    -0.525264524780    12.000000000000
         C            3.371240347914     1.495433190460    -0.038434524780    12.000000000000
         C           -2.828722652086    -0.071714809540    -0.138043524780    12.000000000000
         C           -3.871955652086     1.011520190460    -0.277801524780    12.000000000000
         H            2.328553347914     0.142244190460     1.262035475220     1.007825032230
         H            0.962287347914     0.931994190460    -1.363264524780     1.007825032230
         H            0.704709347914     1.719485190460     0.214253475220     1.007825032230
         H            2.899358347914    -0.764456809540    -1.608690524780     1.007825032230
         H            2.218078347914    -1.778672809540    -0.330940524780     1.007825032230
         H            3.878047347914    -1.180153809540    -0.191694524780     1.007825032230
         H            3.448324347914     1.735580190460    -1.104304524780     1.007825032230
         H            3.058480347914     2.398616190460     0.494696475220     1.007825032230
         H            4.368689347914     1.220710190460     0.316901475220     1.007825032230
         H           -2.848169652086    -0.778103809540    -0.971667524780     1.007825032230
         H           -2.937256652086    -0.620341809540     0.802437475220     1.007825032230
         H           -3.816341652086     1.706327190460     0.562303475220     1.007825032230
         H           -3.723240652086     1.566592190460    -1.206249524780     1.007825032230
         H           -4.868827652086     0.561711190460    -0.295742524780     1.007825032230

  Basis Set: AUG-CC-PVTZ
    Blend: AUG-CC-PVTZ
  Basis Set: (AUG-CC-PVTZ AUX)
    Blend: AUG-CC-PVTZ-JKFIT
	 Reference Energy          =    -857.5794345448314289 [Eh]
	 Singles Energy            =      -0.0000000000000000 [Eh]
	 Same-Spin Energy          =      -0.5277856060674961 [Eh]
	 Opposite-Spin Energy      =      -1.6891637884476545 [Eh]
	 Correlation Energy        =      -2.2169493945151508 [Eh]
	 Total Energy              =    -859.7963839393465832 [Eh]

	 ================> DF-SCS-MP2 Energies <==================
	-----------------------------------------------------------
	 SCS Same-Spin Scale       =       0.3333333333333333 [-]
	 SCS Opposite-Spin Scale   =       1.2000000000000000 [-]
	 SCS Same-Spin Energy      =      -0.1759285353558320 [Eh]
	 SCS Opposite-Spin Energy  =      -2.0269965461371853 [Eh]
	 SCS Correlation Energy    =      -2.2029250814930172 [Eh]
	 SCS Total Energy          =    -859.7823596263244781 [Eh]
	-----------------------------------------------------------

  Dipole Moment: [D]
     X:    -0.1396      Y:     2.9959      Z:    -2.0710     Total:     3.6447

*** Psi4 exiting successfully. Buy a developer a beer!
