                               Psi4 1.4a3.dev225

  ==> Input File <==

--------------------------------------------------------------------------
#psi4
#
memory 32 gb

molecule  {
0 1
  S       -0.2946600    -0.4360860     0.1655790
  O       -1.5657890     0.5673500    -0.1009940
  O       -0.3508230    -1.5212030    -0.8163730
  O       -0.2186625    -0.7441990     1.5433857
  C        2.3621670     0.3010360     0.2220870
  C        0.9741440     0.7483390    -0.2426020
  C        2.8380310    -0.9649040    -0.4891310
  C        3.3410260     1.4538450    -0.0023010
  C       -2.8589370    -0.1133030    -0.1019100
  C       -3.9021700     0.9699320    -0.2416680
  H        2.2983390     0.1006560     1.2981690
  H        0.9320730     0.8904060    -1.3271310
  H        0.6744950     1.6778970     0.2503870
  H        2.8691440    -0.8060450    -1.5725570
  H        2.1878640    -1.8202610    -0.2948070
  H        3.8478330    -1.2217420    -0.1555610
  H        3.4181100     1.6939920    -1.0681710
  H        3.0282660     2.3570280     0.5308300
  H        4.3384750     1.1791220     0.3530350
  H       -2.8783840    -0.8196920    -0.9355340
  H       -2.9674710    -0.6619300     0.8385710
  H       -3.8465560     1.6647390     0.5984370
  H       -3.7534550     1.5250040    -1.1701160
  H       -4.8990420     0.5201230    -0.2596090
units angstrom
no_reorient  #important for SAPT in psi4, default
symmetry c1  #important for SAPT in psi4, default
}

set PROPERTIES_ORIGIN ["COM"]
properties('MP2/aug-cc-pvtz', properties = ['dipole'])
--------------------------------------------------------------------------

    Molecular point group: c1
  Charge       = 0
  Multiplicity = 1
  Basis Set: AUG-CC-PVTZ
    Blend: AUG-CC-PVTZ
  Basis Set: (AUG-CC-PVTZ AUX)
    Blend: AUG-CC-PVTZ-JKFIT

    Orbital Energies [Eh]
    ---------------------

    Doubly Occupied:

       1A    -92.208539     2A    -20.611042     3A    -20.554841
       4A    -20.549286     5A    -11.300680     6A    -11.274987
       7A    -11.250870     8A    -11.232113     9A    -11.228934
      10A    -11.218090    11A     -9.173920    12A     -6.859334
      13A     -6.858235    14A     -6.857763    15A     -1.493117
      16A     -1.381702    17A     -1.345537    18A     -1.119665
      19A     -1.049961    20A     -0.995011    21A     -0.941765
      22A     -0.875303    23A     -0.828346    24A     -0.786615
      25A     -0.727814    26A     -0.694115    27A     -0.692030
      28A     -0.657295    29A     -0.637707    30A     -0.615985
      31A     -0.607414    32A     -0.587333    33A     -0.569305
      34A     -0.560108    35A     -0.553900    36A     -0.543451
      37A     -0.537972    38A     -0.509598    39A     -0.501289
      40A     -0.497973    41A     -0.490081    42A     -0.489580
      43A     -0.482500    44A     -0.464678    45A     -0.452425

  @DF-RHF Final Energy:  -857.62968570587407

   => Energetics <=

    Nuclear Repulsion Energy =            725.1304773438296252
    One-Electron Energy =               -2617.7839081198699205
    Two-Electron Energy =                1035.0237450701663420
    Total Energy =                       -857.6296857058739533
  Basis Set: (AUG-CC-PVTZ AUX)
    Blend: AUG-CC-PVTZ-RI
    Molecular point group: c1

    Geometry (in Angstrom), charge = 0, multiplicity = 1:

       Center              X                  Y                   Z               Mass
    ------------   -----------------  -----------------  -----------------  -----------------
         S           -0.263151381186    -0.399745127056     0.152910211629    31.972071174400
         O           -1.534280381186     0.603690872944    -0.113662788371    15.994914619570
         O           -0.319314381186    -1.484862127056    -0.829041788371    15.994914619570
         O           -0.187153881186    -0.707858127056     1.530716911629    15.994914619570
         C            2.393675618814     0.337376872944     0.209418211629    12.000000000000
         C            1.005652618814     0.784679872944    -0.255270788371    12.000000000000
         C            2.869539618814    -0.928563127056    -0.501799788371    12.000000000000
         C            3.372534618814     1.490185872944    -0.014969788371    12.000000000000
         C           -2.827428381186    -0.076962127056    -0.114578788371    12.000000000000
         C           -3.870661381186     1.006272872944    -0.254336788371    12.000000000000
         H            2.329847618814     0.136996872944     1.285500211629     1.007825032230
         H            0.963581618814     0.926746872944    -1.339799788371     1.007825032230
         H            0.706003618814     1.714237872944     0.237718211629     1.007825032230
         H            2.900652618814    -0.769704127056    -1.585225788371     1.007825032230
         H            2.219372618814    -1.783920127056    -0.307475788371     1.007825032230
         H            3.879341618814    -1.185401127056    -0.168229788371     1.007825032230
         H            3.449618618814     1.730332872944    -1.080839788371     1.007825032230
         H            3.059774618814     2.393368872944     0.518161211629     1.007825032230
         H            4.369983618814     1.215462872944     0.340366211629     1.007825032230
         H           -2.846875381186    -0.783351127056    -0.948202788371     1.007825032230
         H           -2.935962381186    -0.625589127056     0.825902211629     1.007825032230
         H           -3.815047381186     1.701079872944     0.585768211629     1.007825032230
         H           -3.721946381186     1.561344872944    -1.182784788371     1.007825032230
         H           -4.867533381186     0.556463872944    -0.272277788371     1.007825032230

  Basis Set: AUG-CC-PVTZ
    Blend: AUG-CC-PVTZ
  Basis Set: (AUG-CC-PVTZ AUX)
    Blend: AUG-CC-PVTZ-JKFIT
	 Reference Energy          =    -857.6296857058740670 [Eh]
	 Singles Energy            =      -0.0000000000000000 [Eh]
	 Same-Spin Energy          =      -0.5240824068041211 [Eh]
	 Opposite-Spin Energy      =      -1.6778847805408228 [Eh]
	 Correlation Energy        =      -2.2019671873449438 [Eh]
	 Total Energy              =    -859.8316528932190295 [Eh]

	 ================> DF-SCS-MP2 Energies <==================
	-----------------------------------------------------------
	 SCS Same-Spin Scale       =       0.3333333333333333 [-]
	 SCS Opposite-Spin Scale   =       1.2000000000000000 [-]
	 SCS Same-Spin Energy      =      -0.1746941356013737 [Eh]
	 SCS Opposite-Spin Energy  =      -2.0134617366489871 [Eh]
	 SCS Correlation Energy    =      -2.1881558722503609 [Eh]
	 SCS Total Energy          =    -859.8178415781244439 [Eh]
	-----------------------------------------------------------

  Dipole Moment: [D]
     X:    -0.0473      Y:     2.6392      Z:    -0.7985     Total:     2.7577

*** Psi4 exiting successfully. Buy a developer a beer!
