                               Psi4 1.4a3.dev225

  ==> Input File <==

--------------------------------------------------------------------------
#psi4
#
memory 32 gb

molecule  {
0 1
  S       -0.2946600    -0.4360860     0.1655790
  O       -1.5657890     0.5673500    -0.1009940
  O       -0.3508230    -1.5212030    -0.8163730
  O       -0.2159750    -0.7550950     1.5921100
  C        2.3621670     0.3010360     0.2220870
  C        0.9741440     0.7483390    -0.2426020
  C        2.8380310    -0.9649040    -0.4891310
  C        3.3410260     1.4538450    -0.0023010
  C       -2.8589370    -0.1133030    -0.1019100
  C       -3.9443889     0.9002550    -0.3771549
  H        2.2983390     0.1006560     1.2981690
  H        0.9320730     0.8904060    -1.3271310
  H        0.6744950     1.6778970     0.2503870
  H        2.8691440    -0.8060450    -1.5725570
  H        2.1878640    -1.8202610    -0.2948070
  H        3.8478330    -1.2217420    -0.1555610
  H        3.4181100     1.6939920    -1.0681710
  H        3.0282660     2.3570280     0.5308300
  H        4.3384750     1.1791220     0.3530350
  H       -2.8783840    -0.8196920    -0.9355340
  H       -2.9674710    -0.6619300     0.8385710
  H       -3.8465560     1.6647390     0.5984370
  H       -3.7534550     1.5250040    -1.1701160
  H       -4.8990420     0.5201230    -0.2596090
units angstrom
no_reorient  #important for SAPT in psi4, default
symmetry c1  #important for SAPT in psi4, default
}

set PROPERTIES_ORIGIN ["COM"]
properties('MP2/aug-cc-pvtz', properties = ['dipole'])
--------------------------------------------------------------------------

    Molecular point group: c1
  Charge       = 0
  Multiplicity = 1
  Basis Set: AUG-CC-PVTZ
    Blend: AUG-CC-PVTZ
  Basis Set: (AUG-CC-PVTZ AUX)
    Blend: AUG-CC-PVTZ-JKFIT

    Orbital Energies [Eh]
    ---------------------

    Doubly Occupied:

       1A    -92.214879     2A    -20.616638     3A    -20.554255
       4A    -20.553950     5A    -11.303330     6A    -11.278759
       7A    -11.251910     8A    -11.237176     9A    -11.229817
      10A    -11.218896    11A     -9.179073    12A     -6.864545
      13A     -6.863077    14A     -6.862895    15A     -1.481677
      16A     -1.375615    17A     -1.337866    18A     -1.121367
      19A     -1.053043    20A     -0.998226    21A     -0.942632
      22A     -0.879785    23A     -0.831175    24A     -0.788527
      25A     -0.726584    26A     -0.693173    27A     -0.690626
      28A     -0.658574    29A     -0.634087    30A     -0.617405
      31A     -0.616401    32A     -0.591045    33A     -0.582631
      34A     -0.561685    35A     -0.551874    36A     -0.543132
      37A     -0.532435    38A     -0.509410    39A     -0.501301
      40A     -0.491400    41A     -0.487208    42A     -0.483745
      43A     -0.470978    44A     -0.459598    45A     -0.454816

  @DF-RHF Final Energy:  -857.60353737668402

   => Energetics <=

    Nuclear Repulsion Energy =            722.1416749681908414
    One-Electron Energy =               -2611.6959840605109093
    Two-Electron Energy =                1031.9507717156361650
    Total Energy =                       -857.6035373766840166
  Basis Set: (AUG-CC-PVTZ AUX)
    Blend: AUG-CC-PVTZ-RI
    Molecular point group: c1

    Geometry (in Angstrom), charge = 0, multiplicity = 1:

       Center              X                  Y                   Z               Mass
    ------------   -----------------  -----------------  -----------------  -----------------
         S           -0.260359482504    -0.393660784891     0.158007582064    31.972071174400
         O           -1.531488482504     0.609775215109    -0.108565417936    15.994914619570
         O           -0.316522482504    -1.478777784891    -0.823944417936    15.994914619570
         O           -0.181674482504    -0.712669784891     1.584538582064    15.994914619570
         C            2.396467517496     0.343461215109     0.214515582064    12.000000000000
         C            1.008444517496     0.790764215109    -0.250173417936    12.000000000000
         C            2.872331517496    -0.922478784891    -0.496702417936    12.000000000000
         C            3.375326517496     1.496270215109    -0.009872417936    12.000000000000
         C           -2.824636482504    -0.070877784891    -0.109481417936    12.000000000000
         C           -3.910088382504     0.942680215109    -0.384726317936    12.000000000000
         H            2.332639517496     0.143081215109     1.290597582064     1.007825032230
         H            0.966373517496     0.932831215109    -1.334702417936     1.007825032230
         H            0.708795517496     1.720322215109     0.242815582064     1.007825032230
         H            2.903444517496    -0.763619784891    -1.580128417936     1.007825032230
         H            2.222164517496    -1.777835784891    -0.302378417936     1.007825032230
         H            3.882133517496    -1.179316784891    -0.163132417936     1.007825032230
         H            3.452410517496     1.736417215109    -1.075742417936     1.007825032230
         H            3.062566517496     2.399453215109     0.523258582064     1.007825032230
         H            4.372775517496     1.221547215109     0.345463582064     1.007825032230
         H           -2.844083482504    -0.777266784891    -0.943105417936     1.007825032230
         H           -2.933170482504    -0.619504784891     0.830999582064     1.007825032230
         H           -3.812255482504     1.707164215109     0.590865582064     1.007825032230
         H           -3.719154482504     1.567429215109    -1.177687417936     1.007825032230
         H           -4.864741482504     0.562548215109    -0.267180417936     1.007825032230

  Basis Set: AUG-CC-PVTZ
    Blend: AUG-CC-PVTZ
  Basis Set: (AUG-CC-PVTZ AUX)
    Blend: AUG-CC-PVTZ-JKFIT
	 Reference Energy          =    -857.6035373766840166 [Eh]
	 Singles Energy            =      -0.0000000000000000 [Eh]
	 Same-Spin Energy          =      -0.5255534151969941 [Eh]
	 Opposite-Spin Energy      =      -1.6818175700474582 [Eh]
	 Correlation Energy        =      -2.2073709852444523 [Eh]
	 Total Energy              =    -859.8109083619284547 [Eh]

	 ================> DF-SCS-MP2 Energies <==================
	-----------------------------------------------------------
	 SCS Same-Spin Scale       =       0.3333333333333333 [-]
	 SCS Opposite-Spin Scale   =       1.2000000000000000 [-]
	 SCS Same-Spin Energy      =      -0.1751844717323313 [Eh]
	 SCS Opposite-Spin Energy  =      -2.0181810840569496 [Eh]
	 SCS Correlation Energy    =      -2.1933655557892808 [Eh]
	 SCS Total Energy          =    -859.7969029324732446 [Eh]
	-----------------------------------------------------------

  Dipole Moment: [D]
     X:    -0.0198      Y:     2.6483      Z:    -1.1034     Total:     2.8690

*** Psi4 exiting successfully. Buy a developer a beer!
