                               Psi4 1.4a3.dev225

  ==> Input File <==

--------------------------------------------------------------------------
#psi4
#
memory 32 gb

molecule  {
0 1
  S       -0.2946600    -0.4360860     0.1655790
  O       -1.5657890     0.5673500    -0.1009940
  O       -0.3508230    -1.5212030    -0.8163730
  O       -0.2159750    -0.7550950     1.5921100
  C        2.3440244     0.3001219     0.2723278
  C        0.9741440     0.7483390    -0.2426020
  C        2.8380310    -0.9649040    -0.4891310
  C        3.3410260     1.4538450    -0.0023010
  C       -2.8589370    -0.1133030    -0.1019100
  C       -3.9021700     0.9699320    -0.2416680
  H        2.2983390     0.1006560     1.2981690
  H        0.9320730     0.8904060    -1.3271310
  H        0.6744950     1.6778970     0.2503870
  H        2.8691440    -0.8060450    -1.5725570
  H        2.1878640    -1.8202610    -0.2948070
  H        3.8478330    -1.2217420    -0.1555610
  H        3.4181100     1.6939920    -1.0681710
  H        3.0282660     2.3570280     0.5308300
  H        4.3384750     1.1791220     0.3530350
  H       -2.8783840    -0.8196920    -0.9355340
  H       -2.9674710    -0.6619300     0.8385710
  H       -3.8465560     1.6647390     0.5984370
  H       -3.7534550     1.5250040    -1.1701160
  H       -4.8990420     0.5201230    -0.2596090
units angstrom
no_reorient  #important for SAPT in psi4, default
symmetry c1  #important for SAPT in psi4, default
}

set PROPERTIES_ORIGIN ["COM"]
properties('MP2/aug-cc-pvtz', properties = ['dipole'])
--------------------------------------------------------------------------

    Molecular point group: c1
  Charge       = 0
  Multiplicity = 1
  Basis Set: AUG-CC-PVTZ
    Blend: AUG-CC-PVTZ
  Basis Set: (AUG-CC-PVTZ AUX)
    Blend: AUG-CC-PVTZ-JKFIT

    Orbital Energies [Eh]
    ---------------------

    Doubly Occupied:

       1A    -92.213296     2A    -20.614518     3A    -20.553650
       4A    -20.553527     5A    -11.301654     6A    -11.278445
       7A    -11.250031     8A    -11.232887     9A    -11.230138
      10A    -11.219266    11A     -9.177626    12A     -6.863083
      13A     -6.861607    14A     -6.861458    15A     -1.480887
      16A     -1.374895    17A     -1.337418    18A     -1.118548
      19A     -1.050704    20A     -0.994620    21A     -0.937974
      22A     -0.876907    23A     -0.831475    24A     -0.795770
      25A     -0.724959    26A     -0.692795    27A     -0.690696
      28A     -0.655728    29A     -0.634897    30A     -0.613245
      31A     -0.606213    32A     -0.586263    33A     -0.567207
      34A     -0.558791    35A     -0.554424    36A     -0.542716
      37A     -0.536695    38A     -0.508367    39A     -0.503832
      40A     -0.498899    41A     -0.492957    42A     -0.485996
      43A     -0.480633    44A     -0.463241    45A     -0.450351

  @DF-RHF Final Energy:  -857.62380208528123

   => Energetics <=

    Nuclear Repulsion Energy =            722.4767897499856417
    One-Electron Energy =               -2612.4826074503389464
    Two-Electron Energy =                1032.3820156150723051
    Total Energy =                       -857.6238020852811132
  Basis Set: (AUG-CC-PVTZ AUX)
    Blend: AUG-CC-PVTZ-RI
    Molecular point group: c1

    Geometry (in Angstrom), charge = 0, multiplicity = 1:

       Center              X                  Y                   Z               Mass
    ------------   -----------------  -----------------  -----------------  -----------------
         S           -0.262099242384    -0.398629610442     0.144586848772    31.972071174400
         O           -1.533228242384     0.604806389558    -0.121986151228    15.994914619570
         O           -0.318262242384    -1.483746610442    -0.837365151228    15.994914619570
         O           -0.183414242384    -0.717638610442     1.571117848772    15.994914619570
         C            2.376585157616     0.337578289558     0.251335648772    12.000000000000
         C            1.006704757616     0.785795389558    -0.263594151228    12.000000000000
         C            2.870591757616    -0.927447610442    -0.510123151228    12.000000000000
         C            3.373586757616     1.491301389558    -0.023293151228    12.000000000000
         C           -2.826376242384    -0.075846610442    -0.122902151228    12.000000000000
         C           -3.869609242384     1.007388389558    -0.262660151228    12.000000000000
         H            2.330899757616     0.138112389558     1.277176848772     1.007825032230
         H            0.964633757616     0.927862389558    -1.348123151228     1.007825032230
         H            0.707055757616     1.715353389558     0.229394848772     1.007825032230
         H            2.901704757616    -0.768588610442    -1.593549151228     1.007825032230
         H            2.220424757616    -1.782804610442    -0.315799151228     1.007825032230
         H            3.880393757616    -1.184285610442    -0.176553151228     1.007825032230
         H            3.450670757616     1.731448389558    -1.089163151228     1.007825032230
         H            3.060826757616     2.394484389558     0.509837848772     1.007825032230
         H            4.371035757616     1.216578389558     0.332042848772     1.007825032230
         H           -2.845823242384    -0.782235610442    -0.956526151228     1.007825032230
         H           -2.934910242384    -0.624473610442     0.817578848772     1.007825032230
         H           -3.813995242384     1.702195389558     0.577444848772     1.007825032230
         H           -3.720894242384     1.562460389558    -1.191108151228     1.007825032230
         H           -4.866481242384     0.557579389558    -0.280601151228     1.007825032230

  Basis Set: AUG-CC-PVTZ
    Blend: AUG-CC-PVTZ
  Basis Set: (AUG-CC-PVTZ AUX)
    Blend: AUG-CC-PVTZ-JKFIT
	 Reference Energy          =    -857.6238020852812269 [Eh]
	 Singles Energy            =      -0.0000000000000000 [Eh]
	 Same-Spin Energy          =      -0.5250601953585080 [Eh]
	 Opposite-Spin Energy      =      -1.6806872205209515 [Eh]
	 Correlation Energy        =      -2.2057474158794594 [Eh]
	 Total Energy              =    -859.8295495011607272 [Eh]

	 ================> DF-SCS-MP2 Energies <==================
	-----------------------------------------------------------
	 SCS Same-Spin Scale       =       0.3333333333333333 [-]
	 SCS Opposite-Spin Scale   =       1.2000000000000000 [-]
	 SCS Same-Spin Energy      =      -0.1750200651195027 [Eh]
	 SCS Opposite-Spin Energy  =      -2.0168246646251418 [Eh]
	 SCS Correlation Energy    =      -2.1918447297446444 [Eh]
	 SCS Total Energy          =    -859.8156468150258434 [Eh]
	-----------------------------------------------------------

  Dipole Moment: [D]
     X:    -0.0601      Y:     2.7196      Z:    -1.0394     Total:     2.9120

*** Psi4 exiting successfully. Buy a developer a beer!
