                               Psi4 1.4a3.dev225

  ==> Input File <==

--------------------------------------------------------------------------
#psi4
#
memory 32 gb

molecule  {
0 1
  S       -0.2946600    -0.4360860     0.1655790
  O       -1.5657890     0.5673500    -0.1009940
  O       -0.2357702    -1.4505942    -0.8890148
  O       -0.2159750    -0.7550950     1.5921100
  C        2.3621670     0.3010360     0.2220870
  C        0.9741440     0.7483390    -0.2426020
  C        2.8380310    -0.9649040    -0.4891310
  C        3.3410260     1.4538450    -0.0023010
  C       -2.8589370    -0.1133030    -0.1019100
  C       -3.9021700     0.9699320    -0.2416680
  H        2.2983390     0.1006560     1.2981690
  H        0.9320730     0.8904060    -1.3271310
  H        0.6744950     1.6778970     0.2503870
  H        2.8691440    -0.8060450    -1.5725570
  H        2.1878640    -1.8202610    -0.2948070
  H        3.8478330    -1.2217420    -0.1555610
  H        3.4181100     1.6939920    -1.0681710
  H        3.0282660     2.3570280     0.5308300
  H        4.3384750     1.1791220     0.3530350
  H       -2.8783840    -0.8196920    -0.9355340
  H       -2.9674710    -0.6619300     0.8385710
  H       -3.8465560     1.6647390     0.5984370
  H       -3.7534550     1.5250040    -1.1701160
  H       -4.8990420     0.5201230    -0.2596090
units angstrom
no_reorient  #important for SAPT in psi4, default
symmetry c1  #important for SAPT in psi4, default
}

set PROPERTIES_ORIGIN ["COM"]
properties('MP2/aug-cc-pvtz', properties = ['dipole'])
--------------------------------------------------------------------------

    Molecular point group: c1
  Charge       = 0
  Multiplicity = 1
  Basis Set: AUG-CC-PVTZ
    Blend: AUG-CC-PVTZ
  Basis Set: (AUG-CC-PVTZ AUX)
    Blend: AUG-CC-PVTZ-JKFIT

    Orbital Energies [Eh]
    ---------------------

    Doubly Occupied:

       1A    -92.214793     2A    -20.618714     3A    -20.560119
       4A    -20.555234     5A    -11.305285     6A    -11.270426
       7A    -11.247814     8A    -11.235167     9A    -11.226562
      10A    -11.214809    11A     -9.178955    12A     -6.864388
      13A     -6.863051    14A     -6.862728    15A     -1.482717
      16A     -1.378417    17A     -1.343398    18A     -1.115851
      19A     -1.052837    20A     -0.992756    21A     -0.938874
      22A     -0.877944    23A     -0.832728    24A     -0.785821
      25A     -0.725615    26A     -0.695502    27A     -0.689513
      28A     -0.656974    29A     -0.635352    30A     -0.613580
      31A     -0.607416    32A     -0.584205    33A     -0.568841
      34A     -0.560605    35A     -0.554086    36A     -0.542035
      37A     -0.537873    38A     -0.508671    39A     -0.502304
      40A     -0.498543    41A     -0.489602    42A     -0.486469
      43A     -0.480144    44A     -0.466809    45A     -0.448332

  @DF-RHF Final Energy:  -857.62241587581298

   => Energetics <=

    Nuclear Repulsion Energy =            723.0915572794391437
    One-Electron Energy =               -2613.6842342432178157
    Two-Electron Energy =                1032.9702610879655822
    Total Energy =                       -857.6224158758129761
  Basis Set: (AUG-CC-PVTZ AUX)
    Blend: AUG-CC-PVTZ-RI
    Molecular point group: c1

    Geometry (in Angstrom), charge = 0, multiplicity = 1:

       Center              X                  Y                   Z               Mass
    ------------   -----------------  -----------------  -----------------  -----------------
         S           -0.274491703113    -0.405496449034     0.155213859146    31.972071174400
         O           -1.545620703113     0.597939550966    -0.111359140854    15.994914619570
         O           -0.215601903113    -1.420004649034    -0.899379940854    15.994914619570
         O           -0.195806703113    -0.724505449034     1.581744859146    15.994914619570
         C            2.382335296887     0.331625550966     0.211721859146    12.000000000000
         C            0.994312296887     0.778928550966    -0.252967140854    12.000000000000
         C            2.858199296887    -0.934314449034    -0.499496140854    12.000000000000
         C            3.361194296887     1.484434550966    -0.012666140854    12.000000000000
         C           -2.838768703113    -0.082713449034    -0.112275140854    12.000000000000
         C           -3.882001703113     1.000521550966    -0.252033140854    12.000000000000
         H            2.318507296887     0.131245550966     1.287803859146     1.007825032230
         H            0.952241296887     0.920995550966    -1.337496140854     1.007825032230
         H            0.694663296887     1.708486550966     0.240021859146     1.007825032230
         H            2.889312296887    -0.775455449034    -1.582922140854     1.007825032230
         H            2.208032296887    -1.789671449034    -0.305172140854     1.007825032230
         H            3.868001296887    -1.191152449034    -0.165926140854     1.007825032230
         H            3.438278296887     1.724581550966    -1.078536140854     1.007825032230
         H            3.048434296887     2.387617550966     0.520464859146     1.007825032230
         H            4.358643296887     1.209711550966     0.342669859146     1.007825032230
         H           -2.858215703113    -0.789102449034    -0.945899140854     1.007825032230
         H           -2.947302703113    -0.631340449034     0.828205859146     1.007825032230
         H           -3.826387703113     1.695328550966     0.588071859146     1.007825032230
         H           -3.733286703113     1.555593550966    -1.180481140854     1.007825032230
         H           -4.878873703113     0.550712550966    -0.269974140854     1.007825032230

  Basis Set: AUG-CC-PVTZ
    Blend: AUG-CC-PVTZ
  Basis Set: (AUG-CC-PVTZ AUX)
    Blend: AUG-CC-PVTZ-JKFIT
	 Reference Energy          =    -857.6224158758129761 [Eh]
	 Singles Energy            =      -0.0000000000000000 [Eh]
	 Same-Spin Energy          =      -0.5257375369058949 [Eh]
	 Opposite-Spin Energy      =      -1.6818635961738484 [Eh]
	 Correlation Energy        =      -2.2076011330797431 [Eh]
	 Total Energy              =    -859.8300170088926961 [Eh]

	 ================> DF-SCS-MP2 Energies <==================
	-----------------------------------------------------------
	 SCS Same-Spin Scale       =       0.3333333333333333 [-]
	 SCS Opposite-Spin Scale   =       1.2000000000000000 [-]
	 SCS Same-Spin Energy      =      -0.1752458456352983 [Eh]
	 SCS Opposite-Spin Energy  =      -2.0182363154086178 [Eh]
	 SCS Correlation Energy    =      -2.1934821610439159 [Eh]
	 SCS Total Energy          =    -859.8158980368568791 [Eh]
	-----------------------------------------------------------

  Dipole Moment: [D]
     X:    -0.4787      Y:     2.5140      Z:    -0.8743     Total:     2.7044

*** Psi4 exiting successfully. Buy a developer a beer!
