                               Psi4 1.4a3.dev225

  ==> Input File <==

--------------------------------------------------------------------------
#psi4
#
memory 32 gb

molecule  {
0 1
  S       -0.2946600    -0.4360860     0.1655790
  O       -1.5657890     0.5673500    -0.1009940
  O       -0.3508230    -1.5212030    -0.8163730
  O       -0.2159750    -0.7550950     1.5921100
  C        2.3621670     0.3010360     0.2220870
  C        0.9741440     0.7483390    -0.2426020
  C        2.8380310    -0.9649040    -0.4891310
  C        3.3410260     1.4538450    -0.0023010
  C       -2.8589370    -0.1133030    -0.1019100
  C       -3.9021700     0.9699320    -0.2416680
  H        2.2983390     0.1006560     1.2981690
  H        0.9320730     0.8904060    -1.3271310
  H        0.6744950     1.6778970     0.2503870
  H        2.9065857    -0.8137761    -1.5719406
  H        2.1878640    -1.8202610    -0.2948070
  H        3.8478330    -1.2217420    -0.1555610
  H        3.4181100     1.6939920    -1.0681710
  H        3.0282660     2.3570280     0.5308300
  H        4.3384750     1.1791220     0.3530350
  H       -2.8783840    -0.8196920    -0.9355340
  H       -2.9674710    -0.6619300     0.8385710
  H       -3.8465560     1.6647390     0.5984370
  H       -3.7534550     1.5250040    -1.1701160
  H       -4.8990420     0.5201230    -0.2596090
units angstrom
no_reorient  #important for SAPT in psi4, default
symmetry c1  #important for SAPT in psi4, default
}

set PROPERTIES_ORIGIN ["COM"]
properties('MP2/aug-cc-pvtz', properties = ['dipole'])
--------------------------------------------------------------------------

    Molecular point group: c1
  Charge       = 0
  Multiplicity = 1
  Basis Set: AUG-CC-PVTZ
    Blend: AUG-CC-PVTZ
  Basis Set: (AUG-CC-PVTZ AUX)
    Blend: AUG-CC-PVTZ-JKFIT

    Orbital Energies [Eh]
    ---------------------

    Doubly Occupied:

       1A    -92.213800     2A    -20.614873     3A    -20.553633
       4A    -20.553543     5A    -11.301892     6A    -11.278073
       7A    -11.251763     8A    -11.233015     9A    -11.229583
      10A    -11.218528    11A     -9.178050    12A     -6.863505
      13A     -6.862060    14A     -6.861886    15A     -1.481010
      16A     -1.375058    17A     -1.337396    18A     -1.120851
      19A     -1.051503    20A     -0.996756    21A     -0.942302
      22A     -0.877076    23A     -0.830832    24A     -0.788298
      25A     -0.725202    26A     -0.692858    27A     -0.690523
      28A     -0.656798    29A     -0.634777    30A     -0.615908
      31A     -0.606640    32A     -0.587415    33A     -0.567180
      34A     -0.559032    35A     -0.555311    36A     -0.541994
      37A     -0.537211    38A     -0.510344    39A     -0.500013
      40A     -0.496472    41A     -0.490342    42A     -0.485387
      43A     -0.483283    44A     -0.463315    45A     -0.453649

  @DF-RHF Final Energy:  -857.62641308360435

   => Energetics <=

    Nuclear Repulsion Energy =            722.5006726392680321
    One-Electron Energy =               -2612.5162945164797748
    Two-Electron Energy =                1032.3892087936073949
    Total Energy =                       -857.6264130836043478
  Basis Set: (AUG-CC-PVTZ AUX)
    Blend: AUG-CC-PVTZ-RI
    Molecular point group: c1

    Geometry (in Angstrom), charge = 0, multiplicity = 1:

       Center              X                  Y                   Z               Mass
    ------------   -----------------  -----------------  -----------------  -----------------
         S           -0.263637458035    -0.398648744984     0.148213521607    31.972071174400
         O           -1.534766458035     0.604787255016    -0.118359478393    15.994914619570
         O           -0.319800458035    -1.483765744984    -0.833738478393    15.994914619570
         O           -0.184952458035    -0.717657744984     1.574744521607    15.994914619570
         C            2.393189541965     0.338473255016     0.204721521607    12.000000000000
         C            1.005166541965     0.785776255016    -0.259967478393    12.000000000000
         C            2.869053541965    -0.927466744984    -0.506496478393    12.000000000000
         C            3.372048541965     1.491282255016    -0.019666478393    12.000000000000
         C           -2.827914458035    -0.075865744984    -0.119275478393    12.000000000000
         C           -3.871147458035     1.007369255016    -0.259033478393    12.000000000000
         H            2.329361541965     0.138093255016     1.280803521607     1.007825032230
         H            0.963095541965     0.927843255016    -1.344496478393     1.007825032230
         H            0.705517541965     1.715334255016     0.233021521607     1.007825032230
         H            2.937608241965    -0.776338844984    -1.589306078393     1.007825032230
         H            2.218886541965    -1.782823744984    -0.312172478393     1.007825032230
         H            3.878855541965    -1.184304744984    -0.172926478393     1.007825032230
         H            3.449132541965     1.731429255016    -1.085536478393     1.007825032230
         H            3.059288541965     2.394465255016     0.513464521607     1.007825032230
         H            4.369497541965     1.216559255016     0.335669521607     1.007825032230
         H           -2.847361458035    -0.782254744984    -0.952899478393     1.007825032230
         H           -2.936448458035    -0.624492744984     0.821205521607     1.007825032230
         H           -3.815533458035     1.702176255016     0.581071521607     1.007825032230
         H           -3.722432458035     1.562441255016    -1.187481478393     1.007825032230
         H           -4.868019458035     0.557560255016    -0.276974478393     1.007825032230

  Basis Set: AUG-CC-PVTZ
    Blend: AUG-CC-PVTZ
  Basis Set: (AUG-CC-PVTZ AUX)
    Blend: AUG-CC-PVTZ-JKFIT
	 Reference Energy          =    -857.6264130836043478 [Eh]
	 Singles Energy            =      -0.0000000000000000 [Eh]
	 Same-Spin Energy          =      -0.5252740132399244 [Eh]
	 Opposite-Spin Energy      =      -1.6807719993011314 [Eh]
	 Correlation Energy        =      -2.2060460125410559 [Eh]
	 Total Energy              =    -859.8324590961453850 [Eh]

	 ================> DF-SCS-MP2 Energies <==================
	-----------------------------------------------------------
	 SCS Same-Spin Scale       =       0.3333333333333333 [-]
	 SCS Opposite-Spin Scale   =       1.2000000000000000 [-]
	 SCS Same-Spin Energy      =      -0.1750913377466415 [Eh]
	 SCS Opposite-Spin Energy  =      -2.0169263991613575 [Eh]
	 SCS Correlation Energy    =      -2.1920177369079989 [Eh]
	 SCS Total Energy          =    -859.8184308205123898 [Eh]
	-----------------------------------------------------------

  Dipole Moment: [D]
     X:    -0.0548      Y:     2.7110      Z:    -1.0494     Total:     2.9075

*** Psi4 exiting successfully. Buy a developer a beer!
