                               Psi4 1.4a3.dev225

  ==> Input File <==

--------------------------------------------------------------------------
#psi4
#
memory 32 gb

molecule  {
0 1
  S       -0.2946600    -0.4360860     0.1655790
  O       -1.5657890     0.5673500    -0.1009940
  O       -0.3508230    -1.5212030    -0.8163730
  O       -0.2159750    -0.7550950     1.5921100
  C        2.3621670     0.3010360     0.2220870
  C        0.9880033     0.8699912    -0.1392824
  C        2.8380310    -0.9649040    -0.4891310
  C        3.3410260     1.4538450    -0.0023010
  C       -2.8589370    -0.1133030    -0.1019100
  C       -3.9021700     0.9699320    -0.2416680
  H        2.2983390     0.1006560     1.2981690
  H        0.9320730     0.8904060    -1.3271310
  H        0.6744950     1.6778970     0.2503870
  H        2.8691440    -0.8060450    -1.5725570
  H        2.1878640    -1.8202610    -0.2948070
  H        3.8478330    -1.2217420    -0.1555610
  H        3.4181100     1.6939920    -1.0681710
  H        3.0282660     2.3570280     0.5308300
  H        4.3384750     1.1791220     0.3530350
  H       -2.8783840    -0.8196920    -0.9355340
  H       -2.9674710    -0.6619300     0.8385710
  H       -3.8465560     1.6647390     0.5984370
  H       -3.7534550     1.5250040    -1.1701160
  H       -4.8990420     0.5201230    -0.2596090
units angstrom
no_reorient  #important for SAPT in psi4, default
symmetry c1  #important for SAPT in psi4, default
}

set PROPERTIES_ORIGIN ["COM"]
properties('MP2/aug-cc-pvtz', properties = ['dipole'])
--------------------------------------------------------------------------

    Molecular point group: c1
  Charge       = 0
  Multiplicity = 1
  Basis Set: AUG-CC-PVTZ
    Blend: AUG-CC-PVTZ
  Basis Set: (AUG-CC-PVTZ AUX)
    Blend: AUG-CC-PVTZ-JKFIT

    Orbital Energies [Eh]
    ---------------------

    Doubly Occupied:

       1A    -92.211004     2A    -20.612932     3A    -20.559124
       4A    -20.549149     5A    -11.300657     6A    -11.281704
       7A    -11.252264     8A    -11.232263     9A    -11.228790
      10A    -11.222855    11A     -9.175086    12A     -6.860543
      13A     -6.859004    14A     -6.858684    15A     -1.478749
      16A     -1.373707    17A     -1.336986    18A     -1.120419
      19A     -1.049596    20A     -0.994472    21A     -0.944081
      22A     -0.877929    23A     -0.829435    24A     -0.794376
      25A     -0.724823    26A     -0.693947    27A     -0.683447
      28A     -0.673955    29A     -0.636471    30A     -0.618406
      31A     -0.605152    32A     -0.577161    33A     -0.565981
      34A     -0.559422    35A     -0.554514    36A     -0.544850
      37A     -0.537146    38A     -0.517933    39A     -0.502619
      40A     -0.497880    41A     -0.493999    42A     -0.482598
      43A     -0.473335    44A     -0.462937    45A     -0.440771

  @DF-RHF Final Energy:  -857.59501776833167

   => Energetics <=

    Nuclear Repulsion Energy =            720.9543960095658122
    One-Electron Energy =               -2609.3965221337994080
    Two-Electron Energy =                1030.8471083559020371
    Total Energy =                       -857.5950177683316724
  Basis Set: (AUG-CC-PVTZ AUX)
    Blend: AUG-CC-PVTZ-RI
    Molecular point group: c1

    Geometry (in Angstrom), charge = 0, multiplicity = 1:

       Center              X                  Y                   Z               Mass
    ------------   -----------------  -----------------  -----------------  -----------------
         S           -0.264411708239    -0.407486284072     0.140751360483    31.972071174400
         O           -1.535540708239     0.595949715928    -0.125821639517    15.994914619570
         O           -0.320574708239    -1.492603284072    -0.841200639517    15.994914619570
         O           -0.185726708239    -0.726495284072     1.567282360483    15.994914619570
         C            2.392415291761     0.329635715928     0.197259360483    12.000000000000
         C            1.018251591761     0.898590915928    -0.164110039517    12.000000000000
         C            2.868279291761    -0.936304284072    -0.513958639517    12.000000000000
         C            3.371274291761     1.482444715928    -0.027128639517    12.000000000000
         C           -2.828688708239    -0.084703284072    -0.126737639517    12.000000000000
         C           -3.871921708239     0.998531715928    -0.266495639517    12.000000000000
         H            2.328587291761     0.129255715928     1.273341360483     1.007825032230
         H            0.962321291761     0.919005715928    -1.351958639517     1.007825032230
         H            0.704743291761     1.706496715928     0.225559360483     1.007825032230
         H            2.899392291761    -0.777445284072    -1.597384639517     1.007825032230
         H            2.218112291761    -1.791661284072    -0.319634639517     1.007825032230
         H            3.878081291761    -1.193142284072    -0.180388639517     1.007825032230
         H            3.448358291761     1.722591715928    -1.092998639517     1.007825032230
         H            3.058514291761     2.385627715928     0.506002360483     1.007825032230
         H            4.368723291761     1.207721715928     0.328207360483     1.007825032230
         H           -2.848135708239    -0.791092284072    -0.960361639517     1.007825032230
         H           -2.937222708239    -0.633330284072     0.813743360483     1.007825032230
         H           -3.816307708239     1.693338715928     0.573609360483     1.007825032230
         H           -3.723206708239     1.553603715928    -1.194943639517     1.007825032230
         H           -4.868793708239     0.548722715928    -0.284436639517     1.007825032230

  Basis Set: AUG-CC-PVTZ
    Blend: AUG-CC-PVTZ
  Basis Set: (AUG-CC-PVTZ AUX)
    Blend: AUG-CC-PVTZ-JKFIT
	 Reference Energy          =    -857.5950177683316724 [Eh]
	 Singles Energy            =      -0.0000000000000000 [Eh]
	 Same-Spin Energy          =      -0.5257430539526782 [Eh]
	 Opposite-Spin Energy      =      -1.6825935343954705 [Eh]
	 Correlation Energy        =      -2.2083365883481489 [Eh]
	 Total Energy              =    -859.8033543566798471 [Eh]

	 ================> DF-SCS-MP2 Energies <==================
	-----------------------------------------------------------
	 SCS Same-Spin Scale       =       0.3333333333333333 [-]
	 SCS Opposite-Spin Scale   =       1.2000000000000000 [-]
	 SCS Same-Spin Energy      =      -0.1752476846508927 [Eh]
	 SCS Opposite-Spin Energy  =      -2.0191122412745646 [Eh]
	 SCS Correlation Energy    =      -2.1943599259254571 [Eh]
	 SCS Total Energy          =    -859.7893776942571549 [Eh]
	-----------------------------------------------------------

  Dipole Moment: [D]
     X:    -0.0434      Y:     2.5907      Z:    -1.0511     Total:     2.7962

*** Psi4 exiting successfully. Buy a developer a beer!
