                               Psi4 1.4a3.dev225

  ==> Input File <==

--------------------------------------------------------------------------
#psi4
#
memory 32 gb

molecule  {
0 1
  S       -0.2946600    -0.4360860     0.1655790
  O       -1.5657890     0.5673500    -0.1009940
  O       -0.3508230    -1.5212030    -0.8163730
  O       -0.2159750    -0.7550950     1.5921100
  C        2.3621670     0.3010360     0.2220870
  C        0.9741440     0.7483390    -0.2426020
  C        2.8380310    -0.9649040    -0.4891310
  C        3.3410260     1.4538450    -0.0023010
  C       -2.8589370    -0.1133030    -0.1019100
  C       -3.9021700     0.9699320    -0.2416680
  H        2.2983390     0.1006560     1.2981690
  H        0.9320730     0.8904060    -1.3271310
  H        0.6744950     1.6778970     0.2503870
  H        2.8697120    -0.8031447    -1.5923374
  H        2.1878640    -1.8202610    -0.2948070
  H        3.8478330    -1.2217420    -0.1555610
  H        3.4181100     1.6939920    -1.0681710
  H        3.0282660     2.3570280     0.5308300
  H        4.3384750     1.1791220     0.3530350
  H       -2.8783840    -0.8196920    -0.9355340
  H       -2.9674710    -0.6619300     0.8385710
  H       -3.8465560     1.6647390     0.5984370
  H       -3.7534550     1.5250040    -1.1701160
  H       -4.8990420     0.5201230    -0.2596090
units angstrom
no_reorient  #important for SAPT in psi4, default
symmetry c1  #important for SAPT in psi4, default
}

set PROPERTIES_ORIGIN ["COM"]
properties('MP2/aug-cc-pvtz', properties = ['dipole'])
--------------------------------------------------------------------------

    Molecular point group: c1
  Charge       = 0
  Multiplicity = 1
  Basis Set: AUG-CC-PVTZ
    Blend: AUG-CC-PVTZ
  Basis Set: (AUG-CC-PVTZ AUX)
    Blend: AUG-CC-PVTZ-JKFIT

    Orbital Energies [Eh]
    ---------------------

    Doubly Occupied:

       1A    -92.213860     2A    -20.614921     3A    -20.553698
       4A    -20.553587     5A    -11.301929     6A    -11.278157
       7A    -11.251746     8A    -11.233043     9A    -11.229561
      10A    -11.221106    11A     -9.178108    12A     -6.863564
      13A     -6.862119    14A     -6.861944    15A     -1.481063
      16A     -1.375107    17A     -1.337452    18A     -1.120862
      19A     -1.051501    20A     -0.996571    21A     -0.941293
      22A     -0.876956    23A     -0.830701    24A     -0.787483
      25A     -0.725217    26A     -0.692883    27A     -0.690643
      28A     -0.656834    29A     -0.635022    30A     -0.616242
      31A     -0.606725    32A     -0.586057    33A     -0.567222
      34A     -0.558792    35A     -0.554188    36A     -0.542080
      37A     -0.537413    38A     -0.510126    39A     -0.500038
      40A     -0.496839    41A     -0.490656    42A     -0.485449
      43A     -0.481846    44A     -0.463355    45A     -0.453726

  @DF-RHF Final Energy:  -857.62601911567890

   => Energetics <=

    Nuclear Repulsion Energy =            722.4854041437324668
    One-Electron Energy =               -2612.4874826756149560
    Two-Electron Energy =                1032.3760594162035886
    Total Energy =                       -857.6260191156789006
  Basis Set: (AUG-CC-PVTZ AUX)
    Blend: AUG-CC-PVTZ-RI
    Molecular point group: c1

    Geometry (in Angstrom), charge = 0, multiplicity = 1:

       Center              X                  Y                   Z               Mass
    ------------   -----------------  -----------------  -----------------  -----------------
         S           -0.263413678597    -0.398713264919     0.148337305888    31.972071174400
         O           -1.534542678597     0.604722735081    -0.118235694112    15.994914619570
         O           -0.319576678597    -1.483830264919    -0.833614694112    15.994914619570
         O           -0.184728678597    -0.717722264919     1.574868305888    15.994914619570
         C            2.393413321403     0.338408735081     0.204845305888    12.000000000000
         C            1.005390321403     0.785711735081    -0.259843694112    12.000000000000
         C            2.869277321403    -0.927531264919    -0.506372694112    12.000000000000
         C            3.372272321403     1.491217735081    -0.019542694112    12.000000000000
         C           -2.827690678597    -0.075930264919    -0.119151694112    12.000000000000
         C           -3.870923678597     1.007304735081    -0.258909694112    12.000000000000
         H            2.329585321403     0.138028735081     1.280927305888     1.007825032230
         H            0.963319321403     0.927778735081    -1.344372694112     1.007825032230
         H            0.705741321403     1.715269735081     0.233145305888     1.007825032230
         H            2.900958321403    -0.765771964919    -1.609579094112     1.007825032230
         H            2.219110321403    -1.782888264919    -0.312048694112     1.007825032230
         H            3.879079321403    -1.184369264919    -0.172802694112     1.007825032230
         H            3.449356321403     1.731364735081    -1.085412694112     1.007825032230
         H            3.059512321403     2.394400735081     0.513588305888     1.007825032230
         H            4.369721321403     1.216494735081     0.335793305888     1.007825032230
         H           -2.847137678597    -0.782319264919    -0.952775694112     1.007825032230
         H           -2.936224678597    -0.624557264919     0.821329305888     1.007825032230
         H           -3.815309678597     1.702111735081     0.581195305888     1.007825032230
         H           -3.722208678597     1.562376735081    -1.187357694112     1.007825032230
         H           -4.867795678597     0.557495735081    -0.276850694112     1.007825032230

  Basis Set: AUG-CC-PVTZ
    Blend: AUG-CC-PVTZ
  Basis Set: (AUG-CC-PVTZ AUX)
    Blend: AUG-CC-PVTZ-JKFIT
	 Reference Energy          =    -857.6260191156789006 [Eh]
	 Singles Energy            =      -0.0000000000000000 [Eh]
	 Same-Spin Energy          =      -0.5252897950493828 [Eh]
	 Opposite-Spin Energy      =      -1.6809238230309240 [Eh]
	 Correlation Energy        =      -2.2062136180803069 [Eh]
	 Total Energy              =    -859.8322327337591560 [Eh]

	 ================> DF-SCS-MP2 Energies <==================
	-----------------------------------------------------------
	 SCS Same-Spin Scale       =       0.3333333333333333 [-]
	 SCS Opposite-Spin Scale   =       1.2000000000000000 [-]
	 SCS Same-Spin Energy      =      -0.1750965983497942 [Eh]
	 SCS Opposite-Spin Energy  =      -2.0171085876371087 [Eh]
	 SCS Correlation Energy    =      -2.1922051859869027 [Eh]
	 SCS Total Energy          =    -859.8182243016658504 [Eh]
	-----------------------------------------------------------

  Dipole Moment: [D]
     X:    -0.0678      Y:     2.7092      Z:    -1.0330     Total:     2.9002

*** Psi4 exiting successfully. Buy a developer a beer!
