                               Psi4 1.4a3.dev225

  ==> Input File <==

--------------------------------------------------------------------------
#psi4
#
memory 32 gb

molecule  {
0 1
  S       -0.2946600    -0.4360860     0.1655790
  O       -1.5657890     0.5673500    -0.1009940
  O       -0.3508230    -1.5212030    -0.8163730
  O       -0.2159750    -0.7550950     1.5921100
  C        2.3621670     0.3010360     0.2220870
  C        0.9741440     0.7483390    -0.2426020
  C        2.8380310    -0.9649040    -0.4891310
  C        3.3410260     1.4538450    -0.0023010
  C       -2.8589370    -0.1133030    -0.1019100
  C       -3.9021700     0.9699320    -0.2416680
  H        2.2983390     0.1006560     1.2981690
  H        0.9320730     0.8904060    -1.3271310
  H        0.6471056     1.7628633     0.2954487
  H        2.8691440    -0.8060450    -1.5725570
  H        2.1878640    -1.8202610    -0.2948070
  H        3.8478330    -1.2217420    -0.1555610
  H        3.4181100     1.6939920    -1.0681710
  H        3.0282660     2.3570280     0.5308300
  H        4.3384750     1.1791220     0.3530350
  H       -2.8783840    -0.8196920    -0.9355340
  H       -2.9674710    -0.6619300     0.8385710
  H       -3.8465560     1.6647390     0.5984370
  H       -3.7534550     1.5250040    -1.1701160
  H       -4.8990420     0.5201230    -0.2596090
units angstrom
no_reorient  #important for SAPT in psi4, default
symmetry c1  #important for SAPT in psi4, default
}

set PROPERTIES_ORIGIN ["COM"]
properties('MP2/aug-cc-pvtz', properties = ['dipole'])
--------------------------------------------------------------------------

    Molecular point group: c1
  Charge       = 0
  Multiplicity = 1
  Basis Set: AUG-CC-PVTZ
    Blend: AUG-CC-PVTZ
  Basis Set: (AUG-CC-PVTZ AUX)
    Blend: AUG-CC-PVTZ-JKFIT

    Orbital Energies [Eh]
    ---------------------

    Doubly Occupied:

       1A    -92.214274     2A    -20.614598     3A    -20.554275
       4A    -20.553441     5A    -11.301705     6A    -11.288274
       7A    -11.252000     8A    -11.232913     9A    -11.229351
      10A    -11.219265    11A     -9.178443    12A     -6.863907
      13A     -6.862467    14A     -6.862288    15A     -1.481009
      16A     -1.374965    17A     -1.337601    18A     -1.118727
      19A     -1.051177    20A     -0.993140    21A     -0.942287
      22A     -0.875919    23A     -0.830404    24A     -0.786031
      25A     -0.723686    26A     -0.691858    27A     -0.690639
      28A     -0.649427    29A     -0.632153    30A     -0.615105
      31A     -0.606662    32A     -0.585271    33A     -0.565928
      34A     -0.557390    35A     -0.554183    36A     -0.543342
      37A     -0.537003    38A     -0.508609    39A     -0.499969
      40A     -0.496727    41A     -0.489696    42A     -0.484752
      43A     -0.482514    44A     -0.463067    45A     -0.453273

  @DF-RHF Final Energy:  -857.61948470930383

   => Energetics <=

    Nuclear Repulsion Energy =            722.0420113350039628
    One-Electron Energy =               -2611.6235668872996030
    Two-Electron Energy =                1031.9620708429918068
    Total Energy =                       -857.6194847093038334
  Basis Set: (AUG-CC-PVTZ AUX)
    Blend: AUG-CC-PVTZ-RI
    Molecular point group: c1

    Geometry (in Angstrom), charge = 0, multiplicity = 1:

       Center              X                  Y                   Z               Mass
    ------------   -----------------  -----------------  -----------------  -----------------
         S           -0.263244010480    -0.399211307788     0.147943791577    31.972071174400
         O           -1.534373010480     0.604224692212    -0.118629208423    15.994914619570
         O           -0.319407010480    -1.484328307788    -0.834008208423    15.994914619570
         O           -0.184559010480    -0.718220307788     1.574474791577    15.994914619570
         C            2.393582989520     0.337910692212     0.204451791577    12.000000000000
         C            1.005559989520     0.785213692212    -0.260237208423    12.000000000000
         C            2.869446989520    -0.928029307788    -0.506766208423    12.000000000000
         C            3.372441989520     1.490719692212    -0.019936208423    12.000000000000
         C           -2.827521010480    -0.076428307788    -0.119545208423    12.000000000000
         C           -3.870754010480     1.006806692212    -0.259303208423    12.000000000000
         H            2.329754989520     0.137530692212     1.280533791577     1.007825032230
         H            0.963488989520     0.927280692212    -1.344766208423     1.007825032230
         H            0.678521589520     1.799737992212     0.277813491577     1.007825032230
         H            2.900559989520    -0.769170307788    -1.590192208423     1.007825032230
         H            2.219279989520    -1.783386307788    -0.312442208423     1.007825032230
         H            3.879248989520    -1.184867307788    -0.173196208423     1.007825032230
         H            3.449525989520     1.730866692212    -1.085806208423     1.007825032230
         H            3.059681989520     2.393902692212     0.513194791577     1.007825032230
         H            4.369890989520     1.215996692212     0.335399791577     1.007825032230
         H           -2.846968010480    -0.782817307788    -0.953169208423     1.007825032230
         H           -2.936055010480    -0.625055307788     0.820935791577     1.007825032230
         H           -3.815140010480     1.701613692212     0.580801791577     1.007825032230
         H           -3.722039010480     1.561878692212    -1.187751208423     1.007825032230
         H           -4.867626010480     0.556997692212    -0.277244208423     1.007825032230

  Basis Set: AUG-CC-PVTZ
    Blend: AUG-CC-PVTZ
  Basis Set: (AUG-CC-PVTZ AUX)
    Blend: AUG-CC-PVTZ-JKFIT
	 Reference Energy          =    -857.6194847093038334 [Eh]
	 Singles Energy            =      -0.0000000000000000 [Eh]
	 Same-Spin Energy          =      -0.5255447614968523 [Eh]
	 Opposite-Spin Energy      =      -1.6817819225996569 [Eh]
	 Correlation Energy        =      -2.2073266840965093 [Eh]
	 Total Energy              =    -859.8268113934003622 [Eh]

	 ================> DF-SCS-MP2 Energies <==================
	-----------------------------------------------------------
	 SCS Same-Spin Scale       =       0.3333333333333333 [-]
	 SCS Opposite-Spin Scale   =       1.2000000000000000 [-]
	 SCS Same-Spin Energy      =      -0.1751815871656174 [Eh]
	 SCS Opposite-Spin Energy  =      -2.0181383071195880 [Eh]
	 SCS Correlation Energy    =      -2.1933198942852052 [Eh]
	 SCS Total Energy          =    -859.8128046035890293 [Eh]
	-----------------------------------------------------------

  Dipole Moment: [D]
     X:    -0.0532      Y:     2.6906      Z:    -1.0453     Total:     2.8870

*** Psi4 exiting successfully. Buy a developer a beer!
