                               Psi4 1.4a3.dev225

  ==> Input File <==

--------------------------------------------------------------------------
#psi4
#
memory 32 gb

molecule  {
0 1
  S       -0.2946600    -0.4360860     0.1655790
  O       -1.5657890     0.5673500    -0.1009940
  O       -0.3508230    -1.5212030    -0.8163730
  O       -0.2159750    -0.7550950     1.5921100
  C        2.3621670     0.3010360     0.2220870
  C        0.9741440     0.7483390    -0.2426020
  C        2.8380310    -0.9649040    -0.4891310
  C        3.3410260     1.4538450    -0.0023010
  C       -2.8589370    -0.1133030    -0.1019100
  C       -3.9021700     0.9699320    -0.2416680
  H        2.2983390     0.1006560     1.2981690
  H        0.9320730     0.8904060    -1.3271310
  H        0.6744950     1.6778970     0.2503870
  H        2.8691440    -0.8060450    -1.5725570
  H        2.1878640    -1.8202610    -0.2948070
  H        3.8478330    -1.2217420    -0.1555610
  H        3.4181100     1.6939920    -1.0681710
  H        3.0282660     2.3570280     0.5308300
  H        4.3384750     1.1791220     0.3530350
  H       -2.8783840    -0.8196920    -0.9355340
  H       -2.9674710    -0.6619300     0.8385710
  H       -3.8465560     1.6647390     0.5984370
  H       -3.7534550     1.5250040    -1.1701160
  H       -5.0813184     0.4378762    -0.2628895
units angstrom
no_reorient  #important for SAPT in psi4, default
symmetry c1  #important for SAPT in psi4, default
}

set PROPERTIES_ORIGIN ["COM"]
properties('MP2/aug-cc-pvtz', properties = ['dipole'])
--------------------------------------------------------------------------

    Molecular point group: c1
  Charge       = 0
  Multiplicity = 1
  Basis Set: AUG-CC-PVTZ
    Blend: AUG-CC-PVTZ
  Basis Set: (AUG-CC-PVTZ AUX)
    Blend: AUG-CC-PVTZ-JKFIT

    Orbital Energies [Eh]
    ---------------------

    Doubly Occupied:

       1A    -92.215042     2A    -20.616562     3A    -20.554673
       4A    -20.554545     5A    -11.303967     6A    -11.279020
       7A    -11.255879     8A    -11.252140     9A    -11.230058
      10A    -11.219144    11A     -9.179275    12A     -6.864742
      13A     -6.863276    14A     -6.863101    15A     -1.482293
      16A     -1.376597    17A     -1.338379    18A     -1.121644
      19A     -1.048434    20A     -0.994825    21A     -0.942880
      22A     -0.869947    23A     -0.830908    24A     -0.788547
      25A     -0.724359    26A     -0.694330    27A     -0.691649
      28A     -0.657904    29A     -0.636017    30A     -0.616835
      31A     -0.606428    32A     -0.586329    33A     -0.564676
      34A     -0.560186    35A     -0.547477    36A     -0.542001
      37A     -0.518166    38A     -0.510648    39A     -0.500341
      40A     -0.497251    41A     -0.491011    42A     -0.486002
      43A     -0.483203    44A     -0.464352    45A     -0.453507

  @DF-RHF Final Energy:  -857.60650316943997

   => Energetics <=

    Nuclear Repulsion Energy =            721.7298694531514229
    One-Electron Energy =               -2610.9156500654962656
    Two-Electron Energy =                1031.5792774429048677
    Total Energy =                       -857.6065031694399750
  Basis Set: (AUG-CC-PVTZ AUX)
    Blend: AUG-CC-PVTZ-RI
    Molecular point group: c1

    Geometry (in Angstrom), charge = 0, multiplicity = 1:

       Center              X                  Y                   Z               Mass
    ------------   -----------------  -----------------  -----------------  -----------------
         S           -0.262304030880    -0.398196523443     0.148237171149    31.972071174400
         O           -1.533433030880     0.605239476557    -0.118335828851    15.994914619570
         O           -0.318467030880    -1.483313523443    -0.833714828851    15.994914619570
         O           -0.183619030880    -0.717205523443     1.574768171149    15.994914619570
         C            2.394522969120     0.338925476557     0.204745171149    12.000000000000
         C            1.006499969120     0.786228476557    -0.259943828851    12.000000000000
         C            2.870386969120    -0.927014523443    -0.506472828851    12.000000000000
         C            3.373381969120     1.491734476557    -0.019642828851    12.000000000000
         C           -2.826581030880    -0.075413523443    -0.119251828851    12.000000000000
         C           -3.869814030880     1.007821476557    -0.259009828851    12.000000000000
         H            2.330694969120     0.138545476557     1.280827171149     1.007825032230
         H            0.964428969120     0.928295476557    -1.344472828851     1.007825032230
         H            0.706850969120     1.715786476557     0.233045171149     1.007825032230
         H            2.901499969120    -0.768155523443    -1.589898828851     1.007825032230
         H            2.220219969120    -1.782371523443    -0.312148828851     1.007825032230
         H            3.880188969120    -1.183852523443    -0.172902828851     1.007825032230
         H            3.450465969120     1.731881476557    -1.085512828851     1.007825032230
         H            3.060621969120     2.394917476557     0.513488171149     1.007825032230
         H            4.370830969120     1.217011476557     0.335693171149     1.007825032230
         H           -2.846028030880    -0.781802523443    -0.952875828851     1.007825032230
         H           -2.935115030880    -0.624040523443     0.821229171149     1.007825032230
         H           -3.814200030880     1.702628476557     0.581095171149     1.007825032230
         H           -3.721099030880     1.562893476557    -1.187457828851     1.007825032230
         H           -5.048962430880     0.475765676557    -0.280231328851     1.007825032230

  Basis Set: AUG-CC-PVTZ
    Blend: AUG-CC-PVTZ
  Basis Set: (AUG-CC-PVTZ AUX)
    Blend: AUG-CC-PVTZ-JKFIT
	 Reference Energy          =    -857.6065031694399750 [Eh]
	 Singles Energy            =      -0.0000000000000000 [Eh]
	 Same-Spin Energy          =      -0.5251946960840452 [Eh]
	 Opposite-Spin Energy      =      -1.6822526793833319 [Eh]
	 Correlation Energy        =      -2.2074473754673773 [Eh]
	 Total Energy              =    -859.8139505449073567 [Eh]

	 ================> DF-SCS-MP2 Energies <==================
	-----------------------------------------------------------
	 SCS Same-Spin Scale       =       0.3333333333333333 [-]
	 SCS Opposite-Spin Scale   =       1.2000000000000000 [-]
	 SCS Same-Spin Energy      =      -0.1750648986946817 [Eh]
	 SCS Opposite-Spin Energy  =      -2.0187032152599982 [Eh]
	 SCS Correlation Energy    =      -2.1937681139546799 [Eh]
	 SCS Total Energy          =    -859.8002712833946362 [Eh]
	-----------------------------------------------------------

  Dipole Moment: [D]
     X:     0.0752      Y:     2.7305      Z:    -1.0382     Total:     2.9222

*** Psi4 exiting successfully. Buy a developer a beer!
