                               Psi4 1.4a3.dev225

  ==> Input File <==

--------------------------------------------------------------------------
#psi4
#
memory 32 gb

molecule  {
0 1
  S       -0.2946600    -0.4360860     0.1655790
  O       -1.5657890     0.5673500    -0.1009940
  O       -0.3508230    -1.5212030    -0.8163730
  O       -0.2159750    -0.7550950     1.5921100
  C        2.3621670     0.3010360     0.2220870
  C        0.9741440     0.7483390    -0.2426020
  C        2.8380310    -0.9649040    -0.4891310
  C        3.3410260     1.4538450    -0.0023010
  C       -2.8589370    -0.1133030    -0.1019100
  C       -3.9021700     0.9699320    -0.2416680
  H        2.2983390     0.1006560     1.2981690
  H        0.9320730     0.8904060    -1.3271310
  H        0.6744950     1.6778970     0.2503870
  H        2.7941925    -0.7911725    -1.5698306
  H        2.1878640    -1.8202610    -0.2948070
  H        3.8478330    -1.2217420    -0.1555610
  H        3.4181100     1.6939920    -1.0681710
  H        3.0282660     2.3570280     0.5308300
  H        4.3384750     1.1791220     0.3530350
  H       -2.8783840    -0.8196920    -0.9355340
  H       -2.9674710    -0.6619300     0.8385710
  H       -3.8465560     1.6647390     0.5984370
  H       -3.7534550     1.5250040    -1.1701160
  H       -4.8990420     0.5201230    -0.2596090
units angstrom
no_reorient  #important for SAPT in psi4, default
symmetry c1  #important for SAPT in psi4, default
}

set PROPERTIES_ORIGIN ["COM"]
properties('MP2/aug-cc-pvtz', properties = ['dipole'])
--------------------------------------------------------------------------

    Molecular point group: c1
  Charge       = 0
  Multiplicity = 1
  Basis Set: AUG-CC-PVTZ
    Blend: AUG-CC-PVTZ
  Basis Set: (AUG-CC-PVTZ AUX)
    Blend: AUG-CC-PVTZ-JKFIT

    Orbital Energies [Eh]
    ---------------------

    Doubly Occupied:

       1A    -92.213917     2A    -20.614970     3A    -20.553809
       4A    -20.553554     5A    -11.301970     6A    -11.278251
       7A    -11.250977     8A    -11.233078     9A    -11.229433
      10A    -11.218812    11A     -9.178162    12A     -6.863617
      13A     -6.862173    14A     -6.861998    15A     -1.481107
      16A     -1.375148    17A     -1.337496    18A     -1.121166
      19A     -1.051589    20A     -0.996711    21A     -0.942532
      22A     -0.876957    23A     -0.830686    24A     -0.787557
      25A     -0.725246    26A     -0.692909    27A     -0.691043
      28A     -0.656850    29A     -0.635728    30A     -0.616814
      31A     -0.606971    32A     -0.585406    33A     -0.567318
      34A     -0.558707    35A     -0.553213    36A     -0.547004
      37A     -0.537528    38A     -0.509511    39A     -0.500038
      40A     -0.497704    41A     -0.490868    42A     -0.485465
      43A     -0.480379    44A     -0.463376    45A     -0.453690

  @DF-RHF Final Energy:  -857.62586030070861

   => Energetics <=

    Nuclear Repulsion Energy =            722.7335250512296625
    One-Electron Energy =               -2612.9758947101126978
    Two-Electron Energy =                1032.6165093581744259
    Total Energy =                       -857.6258603007086094
  Basis Set: (AUG-CC-PVTZ AUX)
    Blend: AUG-CC-PVTZ-RI
    Molecular point group: c1

    Geometry (in Angstrom), charge = 0, multiplicity = 1:

       Center              X                  Y                   Z               Mass
    ------------   -----------------  -----------------  -----------------  -----------------
         S           -0.262955365185    -0.398785921913     0.148200716421    31.972071174400
         O           -1.534084365185     0.604650078087    -0.118372283579    15.994914619570
         O           -0.319118365185    -1.483902921913    -0.833751283579    15.994914619570
         O           -0.184270365185    -0.717794921913     1.574731716421    15.994914619570
         C            2.393871634815     0.338336078087     0.204708716421    12.000000000000
         C            1.005848634815     0.785639078087    -0.259980283579    12.000000000000
         C            2.869735634815    -0.927603921913    -0.506509283579    12.000000000000
         C            3.372730634815     1.491145078087    -0.019679283579    12.000000000000
         C           -2.827232365185    -0.076002921913    -0.119288283579    12.000000000000
         C           -3.870465365185     1.007232078087    -0.259046283579    12.000000000000
         H            2.330043634815     0.137956078087     1.280790716421     1.007825032230
         H            0.963777634815     0.927706078087    -1.344509283579     1.007825032230
         H            0.706199634815     1.715197078087     0.233008716421     1.007825032230
         H            2.825897134815    -0.753872421913    -1.587208883579     1.007825032230
         H            2.219568634815    -1.782960921913    -0.312185283579     1.007825032230
         H            3.879537634815    -1.184441921913    -0.172939283579     1.007825032230
         H            3.449814634815     1.731292078087    -1.085549283579     1.007825032230
         H            3.059970634815     2.394328078087     0.513451716421     1.007825032230
         H            4.370179634815     1.216422078087     0.335656716421     1.007825032230
         H           -2.846679365185    -0.782391921913    -0.952912283579     1.007825032230
         H           -2.935766365185    -0.624629921913     0.821192716421     1.007825032230
         H           -3.814851365185     1.702039078087     0.581058716421     1.007825032230
         H           -3.721750365185     1.562304078087    -1.187494283579     1.007825032230
         H           -4.867337365185     0.557423078087    -0.276987283579     1.007825032230

  Basis Set: AUG-CC-PVTZ
    Blend: AUG-CC-PVTZ
  Basis Set: (AUG-CC-PVTZ AUX)
    Blend: AUG-CC-PVTZ-JKFIT
	 Reference Energy          =    -857.6258603007086094 [Eh]
	 Singles Energy            =      -0.0000000000000000 [Eh]
	 Same-Spin Energy          =      -0.5253652376805900 [Eh]
	 Opposite-Spin Energy      =      -1.6809179019318115 [Eh]
	 Correlation Energy        =      -2.2062831396124016 [Eh]
	 Total Energy              =    -859.8321434403210333 [Eh]

	 ================> DF-SCS-MP2 Energies <==================
	-----------------------------------------------------------
	 SCS Same-Spin Scale       =       0.3333333333333333 [-]
	 SCS Opposite-Spin Scale   =       1.2000000000000000 [-]
	 SCS Same-Spin Energy      =      -0.1751217458935300 [Eh]
	 SCS Opposite-Spin Energy  =      -2.0171014823181737 [Eh]
	 SCS Correlation Energy    =      -2.1922232282117036 [Eh]
	 SCS Total Energy          =    -859.8180835289202832 [Eh]
	-----------------------------------------------------------

  Dipole Moment: [D]
     X:    -0.0869      Y:     2.7050      Z:    -1.0319     Total:     2.8964

*** Psi4 exiting successfully. Buy a developer a beer!
