                               Psi4 1.4a3.dev225

  ==> Input File <==

--------------------------------------------------------------------------
#psi4
#
memory 32 gb

molecule  {
0 1
  S       -0.2946600    -0.4360860     0.1655790
  O       -1.5270647     0.5367808    -0.0928730
  O       -0.3508230    -1.5212030    -0.8163730
  O       -0.2159750    -0.7550950     1.5921100
  C        2.3621670     0.3010360     0.2220870
  C        0.9741440     0.7483390    -0.2426020
  C        2.8380310    -0.9649040    -0.4891310
  C        3.3410260     1.4538450    -0.0023010
  C       -2.8589370    -0.1133030    -0.1019100
  C       -3.9021700     0.9699320    -0.2416680
  H        2.2983390     0.1006560     1.2981690
  H        0.9320730     0.8904060    -1.3271310
  H        0.6744950     1.6778970     0.2503870
  H        2.8691440    -0.8060450    -1.5725570
  H        2.1878640    -1.8202610    -0.2948070
  H        3.8478330    -1.2217420    -0.1555610
  H        3.4181100     1.6939920    -1.0681710
  H        3.0282660     2.3570280     0.5308300
  H        4.3384750     1.1791220     0.3530350
  H       -2.8783840    -0.8196920    -0.9355340
  H       -2.9674710    -0.6619300     0.8385710
  H       -3.8465560     1.6647390     0.5984370
  H       -3.7534550     1.5250040    -1.1701160
  H       -4.8990420     0.5201230    -0.2596090
units angstrom
no_reorient  #important for SAPT in psi4, default
symmetry c1  #important for SAPT in psi4, default
}

set PROPERTIES_ORIGIN ["COM"]
properties('MP2/aug-cc-pvtz', properties = ['dipole'])
--------------------------------------------------------------------------

    Molecular point group: c1
  Charge       = 0
  Multiplicity = 1
  Basis Set: AUG-CC-PVTZ
    Blend: AUG-CC-PVTZ
  Basis Set: (AUG-CC-PVTZ AUX)
    Blend: AUG-CC-PVTZ-JKFIT

    Orbital Energies [Eh]
    ---------------------

    Doubly Occupied:

       1A    -92.210140     2A    -20.615946     3A    -20.548368
       4A    -20.548211     5A    -11.308812     6A    -11.274819
       7A    -11.249114     8A    -11.237629     9A    -11.227830
      10A    -11.216749    11A     -9.174534    12A     -6.860173
      13A     -6.858639    14A     -6.858416    15A     -1.489004
      16A     -1.375340    17A     -1.333599    18A     -1.118718
      19A     -1.057395    20A     -0.995576    21A     -0.940527
      22A     -0.882388    23A     -0.828888    24A     -0.787118
      25A     -0.725782    26A     -0.696425    27A     -0.691134
      28A     -0.655341    29A     -0.634151    30A     -0.615462
      31A     -0.605534    32A     -0.584984    33A     -0.570217
      34A     -0.561041    35A     -0.554690    36A     -0.542207
      37A     -0.538371    38A     -0.507978    39A     -0.503533
      40A     -0.498995    41A     -0.488240    42A     -0.483495
      43A     -0.480358    44A     -0.460168    45A     -0.451714

  @DF-RHF Final Energy:  -857.62953277486497

   => Energetics <=

    Nuclear Repulsion Energy =            724.1749946278190464
    One-Electron Energy =               -2615.9135556341907431
    Two-Electron Energy =                1034.1090282315064997
    Total Energy =                       -857.6295327748650834
  Basis Set: (AUG-CC-PVTZ AUX)
    Blend: AUG-CC-PVTZ-RI
    Molecular point group: c1

    Geometry (in Angstrom), charge = 0, multiplicity = 1:

       Center              X                  Y                   Z               Mass
    ------------   -----------------  -----------------  -----------------  -----------------
         S           -0.267140016714    -0.395751348233     0.147435076930    31.972071174400
         O           -1.499544716714     0.577115451767    -0.111016923070    15.994914619570
         O           -0.323303016714    -1.480868348233    -0.834516923070    15.994914619570
         O           -0.188455016714    -0.714760348233     1.573966076930    15.994914619570
         C            2.389686983286     0.341370651767     0.203943076930    12.000000000000
         C            1.001663983286     0.788673651767    -0.260745923070    12.000000000000
         C            2.865550983286    -0.924569348233    -0.507274923070    12.000000000000
         C            3.368545983286     1.494179651767    -0.020444923070    12.000000000000
         C           -2.831417016714    -0.072968348233    -0.120053923070    12.000000000000
         C           -3.874650016714     1.010266651767    -0.259811923070    12.000000000000
         H            2.325858983286     0.140990651767     1.280025076930     1.007825032230
         H            0.959592983286     0.930740651767    -1.345274923070     1.007825032230
         H            0.702014983286     1.718231651767     0.232243076930     1.007825032230
         H            2.896663983286    -0.765710348233    -1.590700923070     1.007825032230
         H            2.215383983286    -1.779926348233    -0.312950923070     1.007825032230
         H            3.875352983286    -1.181407348233    -0.173704923070     1.007825032230
         H            3.445629983286     1.734326651767    -1.086314923070     1.007825032230
         H            3.055785983286     2.397362651767     0.512686076930     1.007825032230
         H            4.365994983286     1.219456651767     0.334891076930     1.007825032230
         H           -2.850864016714    -0.779357348233    -0.953677923070     1.007825032230
         H           -2.939951016714    -0.621595348233     0.820427076930     1.007825032230
         H           -3.819036016714     1.705073651767     0.580293076930     1.007825032230
         H           -3.725935016714     1.565338651767    -1.188259923070     1.007825032230
         H           -4.871522016713     0.560457651767    -0.277752923070     1.007825032230

  Basis Set: AUG-CC-PVTZ
    Blend: AUG-CC-PVTZ
  Basis Set: (AUG-CC-PVTZ AUX)
    Blend: AUG-CC-PVTZ-JKFIT
	 Reference Energy          =    -857.6295327748649697 [Eh]
	 Singles Energy            =      -0.0000000000000000 [Eh]
	 Same-Spin Energy          =      -0.5243595216489229 [Eh]
	 Opposite-Spin Energy      =      -1.6784540436218169 [Eh]
	 Correlation Energy        =      -2.2028135652707399 [Eh]
	 Total Energy              =    -859.8323463401357003 [Eh]

	 ================> DF-SCS-MP2 Energies <==================
	-----------------------------------------------------------
	 SCS Same-Spin Scale       =       0.3333333333333333 [-]
	 SCS Opposite-Spin Scale   =       1.2000000000000000 [-]
	 SCS Same-Spin Energy      =      -0.1747865072163076 [Eh]
	 SCS Opposite-Spin Energy  =      -2.0141448523461802 [Eh]
	 SCS Correlation Energy    =      -2.1889313595624880 [Eh]
	 SCS Total Energy          =    -859.8184641344274723 [Eh]
	-----------------------------------------------------------

  Dipole Moment: [D]
     X:    -0.5008      Y:     2.8477      Z:    -1.0929     Total:     3.0910

*** Psi4 exiting successfully. Buy a developer a beer!
