                               Psi4 1.4a3.dev225

  ==> Input File <==

--------------------------------------------------------------------------
#psi4
#
memory 32 gb

molecule  {
0 1
  S       -0.2946600    -0.4360860     0.1655790
  O       -1.5657890     0.5673500    -0.1009940
  O       -0.3508230    -1.5212030    -0.8163730
  O       -0.2170500    -0.7507366     1.5726203
  C        2.3621670     0.3010360     0.2220870
  C        0.9741440     0.7483390    -0.2426020
  C        2.8380310    -0.9649040    -0.4891310
  C        3.3410260     1.4538450    -0.0023010
  C       -2.8589370    -0.1133030    -0.1019100
  C       -3.9021700     0.9699320    -0.2416680
  H        2.2983390     0.1006560     1.2981690
  H        0.9320730     0.8904060    -1.3271310
  H        0.6744950     1.6778970     0.2503870
  H        2.8691440    -0.8060450    -1.5725570
  H        2.1878640    -1.8202610    -0.2948070
  H        3.8478330    -1.2217420    -0.1555610
  H        3.4181100     1.6939920    -1.0681710
  H        3.0282660     2.3570280     0.5308300
  H        4.3384750     1.1791220     0.3530350
  H       -2.8783840    -0.8196920    -0.9355340
  H       -2.9674710    -0.6619300     0.8385710
  H       -3.8465560     1.6647390     0.5984370
  H       -3.7534550     1.5250040    -1.1701160
  H       -4.8990420     0.5201230    -0.2596090
units angstrom
no_reorient  #important for SAPT in psi4, default
symmetry c1  #important for SAPT in psi4, default
}

set PROPERTIES_ORIGIN ["COM"]
properties('MP2/aug-cc-pvtz', properties = ['dipole'])
--------------------------------------------------------------------------

    Molecular point group: c1
  Charge       = 0
  Multiplicity = 1
  Basis Set: AUG-CC-PVTZ
    Blend: AUG-CC-PVTZ
  Basis Set: (AUG-CC-PVTZ AUX)
    Blend: AUG-CC-PVTZ-JKFIT

    Orbital Energies [Eh]
    ---------------------

    Doubly Occupied:

       1A    -92.211895     2A    -20.613387     3A    -20.554053
       4A    -20.551963     5A    -11.301427     6A    -11.276902
       7A    -11.251245     8A    -11.232671     9A    -11.229293
      10A    -11.218407    11A     -9.176515    12A     -6.861963
      13A     -6.860576    14A     -6.860434    15A     -1.485134
      16A     -1.377262    17A     -1.341627    18A     -1.120433
      19A     -1.050906    20A     -0.996047    21A     -0.942114
      22A     -0.876340    23A     -0.829805    24A     -0.787471
      25A     -0.726107    26A     -0.692609    27A     -0.691750
      28A     -0.656941    29A     -0.636071    30A     -0.616091
      31A     -0.606951    32A     -0.586974    33A     -0.567927
      34A     -0.559411    35A     -0.554361    36A     -0.543533
      37A     -0.537607    38A     -0.509824    39A     -0.500565
      40A     -0.497253    41A     -0.490224    42A     -0.487215
      43A     -0.482731    44A     -0.464012    45A     -0.453231

  @DF-RHF Final Energy:  -857.62847747224964

   => Energetics <=

    Nuclear Repulsion Energy =            723.5824792855903524
    One-Electron Energy =               -2614.6833945649755151
    Two-Electron Energy =                1033.4724378071355204
    Total Energy =                       -857.6284774722496422
  Basis Set: (AUG-CC-PVTZ AUX)
    Blend: AUG-CC-PVTZ-RI
    Molecular point group: c1

    Geometry (in Angstrom), charge = 0, multiplicity = 1:

       Center              X                  Y                   Z               Mass
    ------------   -----------------  -----------------  -----------------  -----------------
         S           -0.263306691383    -0.399115448954     0.150094440178    31.972071174400
         O           -1.534435691383     0.604320551046    -0.116478559822    15.994914619570
         O           -0.319469691383    -1.484232448954    -0.831857559822    15.994914619570
         O           -0.185696691383    -0.713766048954     1.557135740178    15.994914619570
         C            2.393520308617     0.338006551046     0.206602440178    12.000000000000
         C            1.005497308617     0.785309551046    -0.258086559822    12.000000000000
         C            2.869384308617    -0.927933448954    -0.504615559822    12.000000000000
         C            3.372379308617     1.490815551046    -0.017785559822    12.000000000000
         C           -2.827583691383    -0.076332448954    -0.117394559822    12.000000000000
         C           -3.870816691383     1.006902551046    -0.257152559822    12.000000000000
         H            2.329692308617     0.137626551046     1.282684440178     1.007825032230
         H            0.963426308617     0.927376551046    -1.342615559822     1.007825032230
         H            0.705848308617     1.714867551046     0.234902440178     1.007825032230
         H            2.900497308617    -0.769074448954    -1.588041559822     1.007825032230
         H            2.219217308617    -1.783290448954    -0.310291559822     1.007825032230
         H            3.879186308617    -1.184771448954    -0.171045559822     1.007825032230
         H            3.449463308617     1.730962551046    -1.083655559822     1.007825032230
         H            3.059619308617     2.393998551046     0.515345440178     1.007825032230
         H            4.369828308617     1.216092551046     0.337550440178     1.007825032230
         H           -2.847030691383    -0.782721448954    -0.951018559822     1.007825032230
         H           -2.936117691383    -0.624959448954     0.823086440178     1.007825032230
         H           -3.815202691383     1.701709551046     0.582952440178     1.007825032230
         H           -3.722101691383     1.561974551046    -1.185600559822     1.007825032230
         H           -4.867688691383     0.557093551046    -0.275093559822     1.007825032230

  Basis Set: AUG-CC-PVTZ
    Blend: AUG-CC-PVTZ
  Basis Set: (AUG-CC-PVTZ AUX)
    Blend: AUG-CC-PVTZ-JKFIT
	 Reference Energy          =    -857.6284774722496422 [Eh]
	 Singles Energy            =      -0.0000000000000000 [Eh]
	 Same-Spin Energy          =      -0.5248223927950630 [Eh]
	 Opposite-Spin Energy      =      -1.6796539060528788 [Eh]
	 Correlation Energy        =      -2.2044762988479416 [Eh]
	 Total Energy              =    -859.8329537710975501 [Eh]

	 ================> DF-SCS-MP2 Energies <==================
	-----------------------------------------------------------
	 SCS Same-Spin Scale       =       0.3333333333333333 [-]
	 SCS Opposite-Spin Scale   =       1.2000000000000000 [-]
	 SCS Same-Spin Energy      =      -0.1749407975983543 [Eh]
	 SCS Opposite-Spin Energy  =      -2.0155846872634546 [Eh]
	 SCS Correlation Energy    =      -2.1905254848618090 [Eh]
	 SCS Total Energy          =    -859.8190029571114792 [Eh]
	-----------------------------------------------------------

  Dipole Moment: [D]
     X:    -0.0584      Y:     2.6812      Z:    -0.9460     Total:     2.8438

*** Psi4 exiting successfully. Buy a developer a beer!
