                               Psi4 1.4a3.dev225

  ==> Input File <==

--------------------------------------------------------------------------
#psi4
#
memory 32 gb

molecule  {
0 1
  S       -0.2946600    -0.4360860     0.1655790
  O       -1.5657890     0.5673500    -0.1009940
  O       -0.3508230    -1.5212030    -0.8163730
  O       -0.2159750    -0.7550950     1.5921100
  C        2.3621670     0.3010360     0.2220870
  C        0.9934030     0.7534112    -0.2921751
  C        2.8380310    -0.9649040    -0.4891310
  C        3.3410260     1.4538450    -0.0023010
  C       -2.8589370    -0.1133030    -0.1019100
  C       -3.9021700     0.9699320    -0.2416680
  H        2.2983390     0.1006560     1.2981690
  H        0.9320730     0.8904060    -1.3271310
  H        0.6744950     1.6778970     0.2503870
  H        2.8691440    -0.8060450    -1.5725570
  H        2.1878640    -1.8202610    -0.2948070
  H        3.8478330    -1.2217420    -0.1555610
  H        3.4181100     1.6939920    -1.0681710
  H        3.0282660     2.3570280     0.5308300
  H        4.3384750     1.1791220     0.3530350
  H       -2.8783840    -0.8196920    -0.9355340
  H       -2.9674710    -0.6619300     0.8385710
  H       -3.8465560     1.6647390     0.5984370
  H       -3.7534550     1.5250040    -1.1701160
  H       -4.8990420     0.5201230    -0.2596090
units angstrom
no_reorient  #important for SAPT in psi4, default
symmetry c1  #important for SAPT in psi4, default
}

set PROPERTIES_ORIGIN ["COM"]
properties('MP2/aug-cc-pvtz', properties = ['dipole'])
--------------------------------------------------------------------------

    Molecular point group: c1
  Charge       = 0
  Multiplicity = 1
  Basis Set: AUG-CC-PVTZ
    Blend: AUG-CC-PVTZ
  Basis Set: (AUG-CC-PVTZ AUX)
    Blend: AUG-CC-PVTZ-JKFIT

    Orbital Energies [Eh]
    ---------------------

    Doubly Occupied:

       1A    -92.212750     2A    -20.614572     3A    -20.555063
       4A    -20.551697     5A    -11.301648     6A    -11.278697
       7A    -11.251519     8A    -11.232871     9A    -11.229254
      10A    -11.218226    11A     -9.176882    12A     -6.862302
      13A     -6.860855    14A     -6.860669    15A     -1.479966
      16A     -1.374619    17A     -1.336891    18A     -1.120718
      19A     -1.050621    20A     -0.994313    21A     -0.942323
      22A     -0.876986    23A     -0.829610    24A     -0.791166
      25A     -0.723435    26A     -0.692185    27A     -0.691869
      28A     -0.654104    29A     -0.634695    30A     -0.617595
      31A     -0.606418    32A     -0.592445    33A     -0.567157
      34A     -0.559027    35A     -0.554441    36A     -0.544007
      37A     -0.537046    38A     -0.507909    39A     -0.499898
      40A     -0.497609    41A     -0.489612    42A     -0.487096
      43A     -0.483177    44A     -0.462948    45A     -0.448542

  @DF-RHF Final Energy:  -857.62359397378157

   => Energetics <=

    Nuclear Repulsion Energy =            721.9803759844731985
    One-Electron Energy =               -2611.4970744893435040
    Two-Electron Energy =                1031.8931045310889658
    Total Energy =                       -857.6235939737814533
  Basis Set: (AUG-CC-PVTZ AUX)
    Blend: AUG-CC-PVTZ-RI
    Molecular point group: c1

    Geometry (in Angstrom), charge = 0, multiplicity = 1:

       Center              X                  Y                   Z               Mass
    ------------   -----------------  -----------------  -----------------  -----------------
         S           -0.264801892006    -0.399062182082     0.151799427890    31.972071174400
         O           -1.535930892006     0.604373817918    -0.114773572110    15.994914619570
         O           -0.320964892006    -1.484179182082    -0.830152572110    15.994914619570
         O           -0.186116892006    -0.718071182082     1.578330427890    15.994914619570
         C            2.392025107994     0.338059817918     0.208307427890    12.000000000000
         C            1.023261107994     0.790435017918    -0.305954672110    12.000000000000
         C            2.867889107994    -0.927880182082    -0.502910572110    12.000000000000
         C            3.370884107994     1.490868817918    -0.016080572110    12.000000000000
         C           -2.829078892006    -0.076279182082    -0.115689572110    12.000000000000
         C           -3.872311892006     1.006955817918    -0.255447572110    12.000000000000
         H            2.328197107994     0.137679817918     1.284389427890     1.007825032230
         H            0.961931107994     0.927429817918    -1.340910572110     1.007825032230
         H            0.704353107994     1.714920817918     0.236607427890     1.007825032230
         H            2.899002107994    -0.769021182082    -1.586336572110     1.007825032230
         H            2.217722107994    -1.783237182082    -0.308586572110     1.007825032230
         H            3.877691107994    -1.184718182082    -0.169340572110     1.007825032230
         H            3.447968107994     1.731015817918    -1.081950572110     1.007825032230
         H            3.058124107994     2.394051817918     0.517050427890     1.007825032230
         H            4.368333107994     1.216145817918     0.339255427890     1.007825032230
         H           -2.848525892006    -0.782668182082    -0.949313572110     1.007825032230
         H           -2.937612892006    -0.624906182082     0.824791427890     1.007825032230
         H           -3.816697892006     1.701762817918     0.584657427890     1.007825032230
         H           -3.723596892006     1.562027817918    -1.183895572110     1.007825032230
         H           -4.869183892006     0.557146817918    -0.273388572110     1.007825032230

  Basis Set: AUG-CC-PVTZ
    Blend: AUG-CC-PVTZ
  Basis Set: (AUG-CC-PVTZ AUX)
    Blend: AUG-CC-PVTZ-JKFIT
	 Reference Energy          =    -857.6235939737815670 [Eh]
	 Singles Energy            =      -0.0000000000000000 [Eh]
	 Same-Spin Energy          =      -0.5252469549278429 [Eh]
	 Opposite-Spin Energy      =      -1.6809818962905594 [Eh]
	 Correlation Energy        =      -2.2062288512184023 [Eh]
	 Total Energy              =    -859.8298228249999511 [Eh]

	 ================> DF-SCS-MP2 Energies <==================
	-----------------------------------------------------------
	 SCS Same-Spin Scale       =       0.3333333333333333 [-]
	 SCS Opposite-Spin Scale   =       1.2000000000000000 [-]
	 SCS Same-Spin Energy      =      -0.1750823183092809 [Eh]
	 SCS Opposite-Spin Energy  =      -2.0171782755486714 [Eh]
	 SCS Correlation Energy    =      -2.1922605938579522 [Eh]
	 SCS Total Energy          =    -859.8158545676394624 [Eh]
	-----------------------------------------------------------

  Dipole Moment: [D]
     X:    -0.0746      Y:     2.7022      Z:    -1.0290     Total:     2.8925

*** Psi4 exiting successfully. Buy a developer a beer!
