                               Psi4 1.4a3.dev225

  ==> Input File <==

--------------------------------------------------------------------------
#psi4
#
memory 32 gb

molecule  {
0 1
  S       -0.2946600    -0.4360860     0.1655790
  O       -1.5657890     0.5673500    -0.1009940
  O       -0.3508230    -1.5212030    -0.8163730
  O       -0.2159750    -0.7550950     1.5921100
  C        2.3621670     0.3010360     0.2220870
  C        0.9733110     0.7275503    -0.2593568
  C        2.8380310    -0.9649040    -0.4891310
  C        3.3410260     1.4538450    -0.0023010
  C       -2.8589370    -0.1133030    -0.1019100
  C       -3.9021700     0.9699320    -0.2416680
  H        2.2983390     0.1006560     1.2981690
  H        0.9320730     0.8904060    -1.3271310
  H        0.6744950     1.6778970     0.2503870
  H        2.8691440    -0.8060450    -1.5725570
  H        2.1878640    -1.8202610    -0.2948070
  H        3.8478330    -1.2217420    -0.1555610
  H        3.4181100     1.6939920    -1.0681710
  H        3.0282660     2.3570280     0.5308300
  H        4.3384750     1.1791220     0.3530350
  H       -2.8783840    -0.8196920    -0.9355340
  H       -2.9674710    -0.6619300     0.8385710
  H       -3.8465560     1.6647390     0.5984370
  H       -3.7534550     1.5250040    -1.1701160
  H       -4.8990420     0.5201230    -0.2596090
units angstrom
no_reorient  #important for SAPT in psi4, default
symmetry c1  #important for SAPT in psi4, default
}

set PROPERTIES_ORIGIN ["COM"]
properties('MP2/aug-cc-pvtz', properties = ['dipole'])
--------------------------------------------------------------------------

    Molecular point group: c1
  Charge       = 0
  Multiplicity = 1
  Basis Set: AUG-CC-PVTZ
    Blend: AUG-CC-PVTZ
  Basis Set: (AUG-CC-PVTZ AUX)
    Blend: AUG-CC-PVTZ-JKFIT

    Orbital Energies [Eh]
    ---------------------

    Doubly Occupied:

       1A    -92.214278     2A    -20.615212     3A    -20.554277
       4A    -20.552660     5A    -11.302091     6A    -11.278135
       7A    -11.251715     8A    -11.233138     9A    -11.229746
      10A    -11.218076    11A     -9.178549    12A     -6.864000
      13A     -6.862617    14A     -6.862380    15A     -1.481383
      16A     -1.375297    17A     -1.337442    18A     -1.121302
      19A     -1.051828    20A     -0.997526    21A     -0.942171
      22A     -0.876976    23A     -0.830993    24A     -0.788322
      25A     -0.726018    26A     -0.692788    27A     -0.691685
      28A     -0.654276    29A     -0.634221    30A     -0.616354
      31A     -0.606927    32A     -0.587767    33A     -0.567224
      34A     -0.558740    35A     -0.554694    36A     -0.543589
      37A     -0.537445    38A     -0.509038    39A     -0.500308
      40A     -0.496906    41A     -0.488777    42A     -0.485998
      43A     -0.482958    44A     -0.463177    45A     -0.454912

  @DF-RHF Final Energy:  -857.62571170029344

   => Energetics <=

    Nuclear Repulsion Energy =            722.8254854537129859
    One-Electron Energy =               -2613.1545582982926135
    Two-Electron Energy =                1032.7033611442859637
    Total Energy =                       -857.6257117002935502
  Basis Set: (AUG-CC-PVTZ AUX)
    Blend: AUG-CC-PVTZ-RI
    Molecular point group: c1

    Geometry (in Angstrom), charge = 0, multiplicity = 1:

       Center              X                  Y                   Z               Mass
    ------------   -----------------  -----------------  -----------------  -----------------
         S           -0.263350038711    -0.397193466529     0.149427968752    31.972071174400
         O           -1.534479038711     0.606242533471    -0.117145031248    15.994914619570
         O           -0.319513038711    -1.482310466529    -0.832524031248    15.994914619570
         O           -0.184665038711    -0.716202466529     1.575958968752    15.994914619570
         C            2.393476961289     0.339928533471     0.205935968752    12.000000000000
         C            1.004620961289     0.766442833471    -0.275507831248    12.000000000000
         C            2.869340961289    -0.926011466529    -0.505282031248    12.000000000000
         C            3.372335961289     1.492737533471    -0.018452031248    12.000000000000
         C           -2.827627038711    -0.074410466529    -0.118061031248    12.000000000000
         C           -3.870860038711     1.008824533471    -0.257819031248    12.000000000000
         H            2.329648961289     0.139548533471     1.282017968752     1.007825032230
         H            0.963382961289     0.929298533471    -1.343282031248     1.007825032230
         H            0.705804961289     1.716789533471     0.234235968752     1.007825032230
         H            2.900453961289    -0.767152466529    -1.588708031248     1.007825032230
         H            2.219173961289    -1.781368466529    -0.310958031248     1.007825032230
         H            3.879142961289    -1.182849466529    -0.171712031248     1.007825032230
         H            3.449419961289     1.732884533471    -1.084322031248     1.007825032230
         H            3.059575961289     2.395920533471     0.514678968752     1.007825032230
         H            4.369784961289     1.218014533471     0.336883968752     1.007825032230
         H           -2.847074038711    -0.780799466529    -0.951685031248     1.007825032230
         H           -2.936161038711    -0.623037466529     0.822419968752     1.007825032230
         H           -3.815246038711     1.703631533471     0.582285968752     1.007825032230
         H           -3.722145038711     1.563896533471    -1.186267031248     1.007825032230
         H           -4.867732038711     0.559015533471    -0.275760031248     1.007825032230

  Basis Set: AUG-CC-PVTZ
    Blend: AUG-CC-PVTZ
  Basis Set: (AUG-CC-PVTZ AUX)
    Blend: AUG-CC-PVTZ-JKFIT
	 Reference Energy          =    -857.6257117002934365 [Eh]
	 Singles Energy            =      -0.0000000000000000 [Eh]
	 Same-Spin Energy          =      -0.5253414775063572 [Eh]
	 Opposite-Spin Energy      =      -1.6808366658228091 [Eh]
	 Correlation Energy        =      -2.2061781433291663 [Eh]
	 Total Energy              =    -859.8318898436225481 [Eh]

	 ================> DF-SCS-MP2 Energies <==================
	-----------------------------------------------------------
	 SCS Same-Spin Scale       =       0.3333333333333333 [-]
	 SCS Opposite-Spin Scale   =       1.2000000000000000 [-]
	 SCS Same-Spin Energy      =      -0.1751138258354524 [Eh]
	 SCS Opposite-Spin Energy  =      -2.0170039989873709 [Eh]
	 SCS Correlation Energy    =      -2.1921178248228235 [Eh]
	 SCS Total Energy          =    -859.8178295251162808 [Eh]
	-----------------------------------------------------------

  Dipole Moment: [D]
     X:    -0.0640      Y:     2.7242      Z:    -1.0402     Total:     2.9167

*** Psi4 exiting successfully. Buy a developer a beer!
