                               Psi4 1.4a3.dev225

  ==> Input File <==

--------------------------------------------------------------------------
#psi4
#
memory 32 gb

molecule  {
0 1
  S       -0.2946600    -0.4360860     0.1655790
  O       -1.5657890     0.5673500    -0.1009940
  O       -0.3508230    -1.5212030    -0.8163730
  O       -0.2159750    -0.7550950     1.5921100
  C        2.3621670     0.3010360     0.2220870
  C        0.9741440     0.7483390    -0.2426020
  C        2.8380310    -0.9649040    -0.4891310
  C        3.3410260     1.4538450    -0.0023010
  C       -2.8589370    -0.1133030    -0.1019100
  C       -3.9021700     0.9699320    -0.2416680
  H        2.2983390     0.1006560     1.2981690
  H        0.9320730     0.8904060    -1.3271310
  H        0.6744950     1.6778970     0.2503870
  H        2.8691440    -0.8060450    -1.5725570
  H        2.1878640    -1.8202610    -0.2948070
  H        3.8478330    -1.2217420    -0.1555610
  H        3.4181100     1.6939920    -1.0681710
  H        3.0282660     2.3570280     0.5308300
  H        4.3384750     1.1791220     0.3530350
  H       -2.8783840    -0.8196920    -0.9355340
  H       -2.9674710    -0.6619300     0.8385710
  H       -3.9546881     1.6359895     0.6216021
  H       -3.7534550     1.5250040    -1.1701160
  H       -4.8990420     0.5201230    -0.2596090
units angstrom
no_reorient  #important for SAPT in psi4, default
symmetry c1  #important for SAPT in psi4, default
}

set PROPERTIES_ORIGIN ["COM"]
properties('MP2/aug-cc-pvtz', properties = ['dipole'])
--------------------------------------------------------------------------

    Molecular point group: c1
  Charge       = 0
  Multiplicity = 1
  Basis Set: AUG-CC-PVTZ
    Blend: AUG-CC-PVTZ
  Basis Set: (AUG-CC-PVTZ AUX)
    Blend: AUG-CC-PVTZ-JKFIT

    Orbital Energies [Eh]
    ---------------------

    Doubly Occupied:

       1A    -92.213714     2A    -20.614707     3A    -20.553662
       4A    -20.553454     5A    -11.302737     6A    -11.278014
       7A    -11.251411     8A    -11.233065     9A    -11.229454
      10A    -11.218563    11A     -9.177968    12A     -6.863421
      13A     -6.861979    14A     -6.861805    15A     -1.480948
      16A     -1.374954    17A     -1.337375    18A     -1.120847
      19A     -1.051217    20A     -0.996717    21A     -0.942280
      22A     -0.878127    23A     -0.830750    24A     -0.787990
      25A     -0.725320    26A     -0.692756    27A     -0.690568
      28A     -0.657038    29A     -0.635118    30A     -0.616430
      31A     -0.605693    32A     -0.586096    33A     -0.572503
      34A     -0.559167    35A     -0.550285    36A     -0.542594
      37A     -0.535062    38A     -0.510328    39A     -0.501549
      40A     -0.496727    41A     -0.490523    42A     -0.485217
      43A     -0.482590    44A     -0.463213    45A     -0.453523

  @DF-RHF Final Energy:  -857.62535224006751

   => Energetics <=

    Nuclear Repulsion Energy =            722.3940908396749592
    One-Electron Energy =               -2612.3039700629437903
    Two-Electron Energy =                1032.2845269832014310
    Total Energy =                       -857.6253522400675138
  Basis Set: (AUG-CC-PVTZ AUX)
    Blend: AUG-CC-PVTZ-RI
    Molecular point group: c1

    Geometry (in Angstrom), charge = 0, multiplicity = 1:

       Center              X                  Y                   Z               Mass
    ------------   -----------------  -----------------  -----------------  -----------------
         S           -0.262753998466    -0.398521188332     0.148076677857    31.972071174400
         O           -1.533882998466     0.604914811668    -0.118496322143    15.994914619570
         O           -0.318916998466    -1.483638188332    -0.833875322143    15.994914619570
         O           -0.184068998466    -0.717530188332     1.574607677857    15.994914619570
         C            2.394073001534     0.338600811668     0.204584677857    12.000000000000
         C            1.006050001534     0.785903811668    -0.260104322143    12.000000000000
         C            2.869937001534    -0.927339188332    -0.506633322143    12.000000000000
         C            3.372932001534     1.491409811668    -0.019803322143    12.000000000000
         C           -2.827030998466    -0.075738188332    -0.119412322143    12.000000000000
         C           -3.870263998466     1.007496811668    -0.259170322143    12.000000000000
         H            2.330245001534     0.138220811668     1.280666677857     1.007825032230
         H            0.963979001534     0.927970811668    -1.344633322143     1.007825032230
         H            0.706401001534     1.715461811668     0.232884677857     1.007825032230
         H            2.901050001534    -0.768480188332    -1.590059322143     1.007825032230
         H            2.219770001534    -1.782696188332    -0.312309322143     1.007825032230
         H            3.879739001534    -1.184177188332    -0.173063322143     1.007825032230
         H            3.450016001534     1.731556811668    -1.085673322143     1.007825032230
         H            3.060172001534     2.394592811668     0.513327677857     1.007825032230
         H            4.370381001534     1.216686811668     0.335532677857     1.007825032230
         H           -2.846477998466    -0.782127188332    -0.953036322143     1.007825032230
         H           -2.935564998466    -0.624365188332     0.821068677857     1.007825032230
         H           -3.922782098466     1.673554311668     0.604099777857     1.007825032230
         H           -3.721548998466     1.562568811668    -1.187618322143     1.007825032230
         H           -4.867135998466     0.557687811668    -0.277111322143     1.007825032230

  Basis Set: AUG-CC-PVTZ
    Blend: AUG-CC-PVTZ
  Basis Set: (AUG-CC-PVTZ AUX)
    Blend: AUG-CC-PVTZ-JKFIT
	 Reference Energy          =    -857.6253522400675138 [Eh]
	 Singles Energy            =      -0.0000000000000000 [Eh]
	 Same-Spin Energy          =      -0.5253247518331039 [Eh]
	 Opposite-Spin Energy      =      -1.6808217915775079 [Eh]
	 Correlation Energy        =      -2.2061465434106120 [Eh]
	 Total Energy              =    -859.8314987834780823 [Eh]

	 ================> DF-SCS-MP2 Energies <==================
	-----------------------------------------------------------
	 SCS Same-Spin Scale       =       0.3333333333333333 [-]
	 SCS Opposite-Spin Scale   =       1.2000000000000000 [-]
	 SCS Same-Spin Energy      =      -0.1751082506110346 [Eh]
	 SCS Opposite-Spin Energy  =      -2.0169861498930093 [Eh]
	 SCS Correlation Energy    =      -2.1920944005040437 [Eh]
	 SCS Total Energy          =    -859.8174466405715748 [Eh]
	-----------------------------------------------------------

  Dipole Moment: [D]
     X:    -0.1051      Y:     2.7040      Z:    -1.0266     Total:     2.8942

*** Psi4 exiting successfully. Buy a developer a beer!
