                               Psi4 1.4a3.dev225

  ==> Input File <==

--------------------------------------------------------------------------
#psi4
#
memory 32 gb

molecule  {
0 1
  S       -0.2946600    -0.4360860     0.1655790
  O       -1.5657890     0.5673500    -0.1009940
  O       -0.3508230    -1.5212030    -0.8163730
  O       -0.2159750    -0.7550950     1.5921100
  C        2.3621670     0.3010360     0.2220870
  C        0.9741440     0.7483390    -0.2426020
  C        2.8380310    -0.9649040    -0.4891310
  C        3.3410260     1.4538450    -0.0023010
  C       -2.8589370    -0.1133030    -0.1019100
  C       -3.9021700     0.9699320    -0.2416680
  H        2.2983390     0.1006560     1.2981690
  H        0.9243860     0.9163637    -1.5252903
  H        0.6744950     1.6778970     0.2503870
  H        2.8691440    -0.8060450    -1.5725570
  H        2.1878640    -1.8202610    -0.2948070
  H        3.8478330    -1.2217420    -0.1555610
  H        3.4181100     1.6939920    -1.0681710
  H        3.0282660     2.3570280     0.5308300
  H        4.3384750     1.1791220     0.3530350
  H       -2.8783840    -0.8196920    -0.9355340
  H       -2.9674710    -0.6619300     0.8385710
  H       -3.8465560     1.6647390     0.5984370
  H       -3.7534550     1.5250040    -1.1701160
  H       -4.8990420     0.5201230    -0.2596090
units angstrom
no_reorient  #important for SAPT in psi4, default
symmetry c1  #important for SAPT in psi4, default
}

set PROPERTIES_ORIGIN ["COM"]
properties('MP2/aug-cc-pvtz', properties = ['dipole'])
--------------------------------------------------------------------------

    Molecular point group: c1
  Charge       = 0
  Multiplicity = 1
  Basis Set: AUG-CC-PVTZ
    Blend: AUG-CC-PVTZ
  Basis Set: (AUG-CC-PVTZ AUX)
    Blend: AUG-CC-PVTZ-JKFIT

    Orbital Energies [Eh]
    ---------------------

    Doubly Occupied:

       1A    -92.215023     2A    -20.614794     3A    -20.555067
       4A    -20.553283     5A    -11.301892     6A    -11.297722
       7A    -11.253129     8A    -11.232969     9A    -11.229486
      10A    -11.218623    11A     -9.179107    12A     -6.864577
      13A     -6.863156    14A     -6.862948    15A     -1.481253
      16A     -1.375200    17A     -1.337832    18A     -1.117425
      19A     -1.051283    20A     -0.991319    21A     -0.942287
      22A     -0.875525    23A     -0.830836    24A     -0.780523
      25A     -0.723832    26A     -0.692868    27A     -0.684544
      28A     -0.655148    29A     -0.635280    30A     -0.614445
      31A     -0.606139    32A     -0.573069    33A     -0.564498
      34A     -0.555689    35A     -0.552825    36A     -0.541125
      37A     -0.537003    38A     -0.510547    39A     -0.500215
      40A     -0.496611    41A     -0.491192    42A     -0.483711
      43A     -0.478029    44A     -0.463418    45A     -0.453811

  @DF-RHF Final Energy:  -857.60562097542277

   => Energetics <=

    Nuclear Repulsion Energy =            721.5397546372236093
    One-Electron Energy =               -2610.6122336702851499
    Two-Electron Energy =                1031.4668580576385466
    Total Energy =                       -857.6056209754228803
  Basis Set: (AUG-CC-PVTZ AUX)
    Blend: AUG-CC-PVTZ-RI
    Molecular point group: c1

    Geometry (in Angstrom), charge = 0, multiplicity = 1:

       Center              X                  Y                   Z               Mass
    ------------   -----------------  -----------------  -----------------  -----------------
         S           -0.263363580580    -0.398853195873     0.149419853339    31.972071174400
         O           -1.534492580580     0.604582804127    -0.117153146661    15.994914619570
         O           -0.319526580580    -1.483970195873    -0.832532146661    15.994914619570
         O           -0.184678580580    -0.717862195873     1.575950853339    15.994914619570
         C            2.393463419420     0.338268804127     0.205927853339    12.000000000000
         C            1.005440419420     0.785571804127    -0.258761146661    12.000000000000
         C            2.869327419420    -0.927671195873    -0.505290146661    12.000000000000
         C            3.372322419420     1.491077804127    -0.018460146661    12.000000000000
         C           -2.827640580580    -0.076070195873    -0.118069146661    12.000000000000
         C           -3.870873580580     1.007164804127    -0.257827146661    12.000000000000
         H            2.329635419420     0.137888804127     1.282009853339     1.007825032230
         H            0.955682419420     0.953596504127    -1.541449446661     1.007825032230
         H            0.705791419420     1.715129804127     0.234227853339     1.007825032230
         H            2.900440419420    -0.768812195873    -1.588716146661     1.007825032230
         H            2.219160419420    -1.783028195873    -0.310966146661     1.007825032230
         H            3.879129419420    -1.184509195873    -0.171720146661     1.007825032230
         H            3.449406419420     1.731224804127    -1.084330146661     1.007825032230
         H            3.059562419420     2.394260804127     0.514670853339     1.007825032230
         H            4.369771419420     1.216354804127     0.336875853339     1.007825032230
         H           -2.847087580580    -0.782459195873    -0.951693146661     1.007825032230
         H           -2.936174580580    -0.624697195873     0.822411853339     1.007825032230
         H           -3.815259580580     1.701971804127     0.582277853339     1.007825032230
         H           -3.722158580580     1.562236804127    -1.186275146661     1.007825032230
         H           -4.867745580580     0.557355804127    -0.275768146661     1.007825032230

  Basis Set: AUG-CC-PVTZ
    Blend: AUG-CC-PVTZ
  Basis Set: (AUG-CC-PVTZ AUX)
    Blend: AUG-CC-PVTZ-JKFIT
	 Reference Energy          =    -857.6056209754227666 [Eh]
	 Singles Energy            =      -0.0000000000000000 [Eh]
	 Same-Spin Energy          =      -0.5257692196043626 [Eh]
	 Opposite-Spin Energy      =      -1.6828412389027307 [Eh]
	 Correlation Energy        =      -2.2086104585070934 [Eh]
	 Total Energy              =    -859.8142314339298764 [Eh]

	 ================> DF-SCS-MP2 Energies <==================
	-----------------------------------------------------------
	 SCS Same-Spin Scale       =       0.3333333333333333 [-]
	 SCS Opposite-Spin Scale   =       1.2000000000000000 [-]
	 SCS Same-Spin Energy      =      -0.1752564065347875 [Eh]
	 SCS Opposite-Spin Energy  =      -2.0194094866832768 [Eh]
	 SCS Correlation Energy    =      -2.1946658932180645 [Eh]
	 SCS Total Energy          =    -859.8002868686407965 [Eh]
	-----------------------------------------------------------

  Dipole Moment: [D]
     X:    -0.0596      Y:     2.6804      Z:    -1.0028     Total:     2.8625

*** Psi4 exiting successfully. Buy a developer a beer!
