                               Psi4 1.4a3.dev225

  ==> Input File <==

--------------------------------------------------------------------------
#psi4
#
memory 32 gb

molecule  {
0 1
  S       -0.2946600    -0.4360860     0.1655790
  O       -1.5657890     0.5673500    -0.1009940
  O       -0.3508230    -1.5212030    -0.8163730
  O       -0.2159750    -0.7550950     1.5921100
  C        2.3621670     0.3010360     0.2220870
  C        0.9741440     0.7483390    -0.2426020
  C        2.8380310    -0.9649040    -0.4891310
  C        3.3410260     1.4538450    -0.0023010
  C       -2.8589370    -0.1133030    -0.1019100
  C       -3.9021700     0.9699320    -0.2416680
  H        2.2983390     0.1006560     1.2981690
  H        0.9397600     0.8644483    -1.1289717
  H        0.6744950     1.6778970     0.2503870
  H        2.8691440    -0.8060450    -1.5725570
  H        2.1878640    -1.8202610    -0.2948070
  H        3.8478330    -1.2217420    -0.1555610
  H        3.4181100     1.6939920    -1.0681710
  H        3.0282660     2.3570280     0.5308300
  H        4.3384750     1.1791220     0.3530350
  H       -2.8783840    -0.8196920    -0.9355340
  H       -2.9674710    -0.6619300     0.8385710
  H       -3.8465560     1.6647390     0.5984370
  H       -3.7534550     1.5250040    -1.1701160
  H       -4.8990420     0.5201230    -0.2596090
units angstrom
no_reorient  #important for SAPT in psi4, default
symmetry c1  #important for SAPT in psi4, default
}

set PROPERTIES_ORIGIN ["COM"]
properties('MP2/aug-cc-pvtz', properties = ['dipole'])
--------------------------------------------------------------------------

    Molecular point group: c1
  Charge       = 0
  Multiplicity = 1
  Basis Set: AUG-CC-PVTZ
    Blend: AUG-CC-PVTZ
  Basis Set: (AUG-CC-PVTZ AUX)
    Blend: AUG-CC-PVTZ-JKFIT

    Orbital Energies [Eh]
    ---------------------

    Doubly Occupied:

       1A    -92.213379     2A    -20.615250     3A    -20.554377
       4A    -20.552743     5A    -11.302075     6A    -11.255895
       7A    -11.250513     8A    -11.233164     9A    -11.229612
      10A    -11.218708    11A     -9.177721    12A     -6.863168
      13A     -6.861709    14A     -6.861555    15A     -1.481229
      16A     -1.375268    17A     -1.337415    18A     -1.129902
      19A     -1.052250    20A     -1.007638    21A     -0.942506
      22A     -0.880837    23A     -0.831574    24A     -0.802267
      25A     -0.728837    26A     -0.700114    27A     -0.692748
      28A     -0.658958    29A     -0.635259    30A     -0.621918
      31A     -0.608538    32A     -0.599281    33A     -0.567877
      34A     -0.559786    35A     -0.554904    36A     -0.544375
      37A     -0.537566    38A     -0.509889    39A     -0.500130
      40A     -0.497207    41A     -0.490211    42A     -0.488579
      43A     -0.482460    44A     -0.463386    45A     -0.453782

  @DF-RHF Final Energy:  -857.59311422485746

   => Energetics <=

    Nuclear Repulsion Energy =            723.8197028054370321
    One-Electron Energy =               -2614.9725195459236602
    Two-Electron Energy =                1033.5597025156293967
    Total Energy =                       -857.5931142248573451
  Basis Set: (AUG-CC-PVTZ AUX)
    Blend: AUG-CC-PVTZ-RI
    Molecular point group: c1

    Geometry (in Angstrom), charge = 0, multiplicity = 1:

       Center              X                  Y                   Z               Mass
    ------------   -----------------  -----------------  -----------------  -----------------
         S           -0.263456882447    -0.398538131233     0.147014671503    31.972071174400
         O           -1.534585882447     0.604897868767    -0.119558328497    15.994914619570
         O           -0.319619882447    -1.483655131233    -0.834937328497    15.994914619570
         O           -0.184771882447    -0.717547131233     1.573545671503    15.994914619570
         C            2.393370117553     0.338583868767     0.203522671503    12.000000000000
         C            1.005347117553     0.785886868767    -0.261166328497    12.000000000000
         C            2.869234117553    -0.927356131233    -0.507695328497    12.000000000000
         C            3.372229117553     1.491392868767    -0.020865328497    12.000000000000
         C           -2.827733882447    -0.075755131233    -0.120474328497    12.000000000000
         C           -3.870966882447     1.007479868767    -0.260232328497    12.000000000000
         H            2.329542117553     0.138203868767     1.279604671503     1.007825032230
         H            0.970963117553     0.901996168767    -1.147536028497     1.007825032230
         H            0.705698117553     1.715444868767     0.231822671503     1.007825032230
         H            2.900347117553    -0.768497131233    -1.591121328497     1.007825032230
         H            2.219067117553    -1.782713131233    -0.313371328497     1.007825032230
         H            3.879036117553    -1.184194131233    -0.174125328497     1.007825032230
         H            3.449313117553     1.731539868767    -1.086735328497     1.007825032230
         H            3.059469117553     2.394575868767     0.512265671503     1.007825032230
         H            4.369678117553     1.216669868767     0.334470671503     1.007825032230
         H           -2.847180882447    -0.782144131233    -0.954098328497     1.007825032230
         H           -2.936267882447    -0.624382131233     0.820006671503     1.007825032230
         H           -3.815352882447     1.702286868767     0.579872671503     1.007825032230
         H           -3.722251882447     1.562551868767    -1.188680328497     1.007825032230
         H           -4.867838882447     0.557670868767    -0.278173328497     1.007825032230

  Basis Set: AUG-CC-PVTZ
    Blend: AUG-CC-PVTZ
  Basis Set: (AUG-CC-PVTZ AUX)
    Blend: AUG-CC-PVTZ-JKFIT
	 Reference Energy          =    -857.5931142248574588 [Eh]
	 Singles Energy            =      -0.0000000000000000 [Eh]
	 Same-Spin Energy          =      -0.5250472615880535 [Eh]
	 Opposite-Spin Energy      =      -1.6800371973797235 [Eh]
	 Correlation Energy        =      -2.2050844589677769 [Eh]
	 Total Energy              =    -859.7981986838252624 [Eh]

	 ================> DF-SCS-MP2 Energies <==================
	-----------------------------------------------------------
	 SCS Same-Spin Scale       =       0.3333333333333333 [-]
	 SCS Opposite-Spin Scale   =       1.2000000000000000 [-]
	 SCS Same-Spin Energy      =      -0.1750157538626845 [Eh]
	 SCS Opposite-Spin Energy  =      -2.0160446368556681 [Eh]
	 SCS Correlation Energy    =      -2.1910603907183526 [Eh]
	 SCS Total Energy          =    -859.7841746155758074 [Eh]
	-----------------------------------------------------------

  Dipole Moment: [D]
     X:    -0.0811      Y:     2.7167      Z:    -1.0482     Total:     2.9130

*** Psi4 exiting successfully. Buy a developer a beer!
