                               Psi4 1.4a3.dev225

  ==> Input File <==

--------------------------------------------------------------------------
#psi4
#
memory 32 gb

molecule  {
0 1
  S       -0.2946600    -0.4360860     0.1655790
  O       -1.5657890     0.5673500    -0.1009940
  O       -0.3508230    -1.5212030    -0.8163730
  O       -0.2159750    -0.7550950     1.5921100
  C        2.4063700     0.3070403     0.0682159
  C        0.9741440     0.7483390    -0.2426020
  C        2.8380310    -0.9649040    -0.4891310
  C        3.3410260     1.4538450    -0.0023010
  C       -2.8589370    -0.1133030    -0.1019100
  C       -3.9021700     0.9699320    -0.2416680
  H        2.2983390     0.1006560     1.2981690
  H        0.9320730     0.8904060    -1.3271310
  H        0.6744950     1.6778970     0.2503870
  H        2.8691440    -0.8060450    -1.5725570
  H        2.1878640    -1.8202610    -0.2948070
  H        3.8478330    -1.2217420    -0.1555610
  H        3.4181100     1.6939920    -1.0681710
  H        3.0282660     2.3570280     0.5308300
  H        4.3384750     1.1791220     0.3530350
  H       -2.8783840    -0.8196920    -0.9355340
  H       -2.9674710    -0.6619300     0.8385710
  H       -3.8465560     1.6647390     0.5984370
  H       -3.7534550     1.5250040    -1.1701160
  H       -4.8990420     0.5201230    -0.2596090
units angstrom
no_reorient  #important for SAPT in psi4, default
symmetry c1  #important for SAPT in psi4, default
}

set PROPERTIES_ORIGIN ["COM"]
properties('MP2/aug-cc-pvtz', properties = ['dipole'])
--------------------------------------------------------------------------

    Molecular point group: c1
  Charge       = 0
  Multiplicity = 1
  Basis Set: AUG-CC-PVTZ
    Blend: AUG-CC-PVTZ
  Basis Set: (AUG-CC-PVTZ AUX)
    Blend: AUG-CC-PVTZ-JKFIT

    Orbital Energies [Eh]
    ---------------------

    Doubly Occupied:

       1A    -92.215627     2A    -20.616184     3A    -20.554381
       4A    -20.553319     5A    -11.302783     6A    -11.279646
       7A    -11.259864     8A    -11.233545     9A    -11.230108
      10A    -11.218621    11A     -9.179634    12A     -6.865087
      13A     -6.863734    14A     -6.863475    15A     -1.481652
      16A     -1.375778    17A     -1.337567    18A     -1.130410
      19A     -1.054171    20A     -1.002942    21A     -0.956546
      22A     -0.878143    23A     -0.830781    24A     -0.771077
      25A     -0.726162    26A     -0.694227    27A     -0.689637
      28A     -0.660555    29A     -0.636659    30A     -0.626842
      31A     -0.608441    32A     -0.589582    33A     -0.567504
      34A     -0.559578    35A     -0.556515    36A     -0.549271
      37A     -0.538955    38A     -0.522601    39A     -0.507819
      40A     -0.500571    41A     -0.495787    42A     -0.484580
      43A     -0.464067    44A     -0.459768    45A     -0.426880

  @DF-RHF Final Energy:  -857.59889275132161

   => Energetics <=

    Nuclear Repulsion Energy =            722.8387799200099835
    One-Electron Energy =               -2613.0332025085454006
    Two-Electron Energy =                1032.5955298372139168
    Total Energy =                       -857.5988927513215003
  Basis Set: (AUG-CC-PVTZ AUX)
    Blend: AUG-CC-PVTZ-RI
    Molecular point group: c1

    Geometry (in Angstrom), charge = 0, multiplicity = 1:

       Center              X                  Y                   Z               Mass
    ------------   -----------------  -----------------  -----------------  -----------------
         S           -0.266604352120    -0.399129535877     0.159336029275    31.972071174400
         O           -1.537733352120     0.604306464123    -0.107236970725    15.994914619570
         O           -0.322767352120    -1.484246535877    -0.822615970725    15.994914619570
         O           -0.187919352120    -0.718138535877     1.585867029275    15.994914619570
         C            2.434425647880     0.343996764123     0.061972929275    12.000000000000
         C            1.002199647880     0.785295464123    -0.248844970725    12.000000000000
         C            2.866086647880    -0.927947535877    -0.495373970725    12.000000000000
         C            3.369081647880     1.490801464123    -0.008543970725    12.000000000000
         C           -2.830881352120    -0.076346535877    -0.108152970725    12.000000000000
         C           -3.874114352120     1.006888464123    -0.247910970725    12.000000000000
         H            2.326394647880     0.137612464123     1.291926029275     1.007825032230
         H            0.960128647880     0.927362464123    -1.333373970725     1.007825032230
         H            0.702550647880     1.714853464123     0.244144029275     1.007825032230
         H            2.897199647880    -0.769088535877    -1.578799970725     1.007825032230
         H            2.215919647880    -1.783304535877    -0.301049970725     1.007825032230
         H            3.875888647880    -1.184785535877    -0.161803970725     1.007825032230
         H            3.446165647880     1.730948464123    -1.074413970725     1.007825032230
         H            3.056321647880     2.393984464123     0.524587029275     1.007825032230
         H            4.366530647880     1.216078464123     0.346792029275     1.007825032230
         H           -2.850328352120    -0.782735535877    -0.941776970725     1.007825032230
         H           -2.939415352120    -0.624973535877     0.832328029275     1.007825032230
         H           -3.818500352120     1.701695464123     0.592194029275     1.007825032230
         H           -3.725399352120     1.561960464123    -1.176358970725     1.007825032230
         H           -4.870986352120     0.557079464123    -0.265851970725     1.007825032230

  Basis Set: AUG-CC-PVTZ
    Blend: AUG-CC-PVTZ
  Basis Set: (AUG-CC-PVTZ AUX)
    Blend: AUG-CC-PVTZ-JKFIT
	 Reference Energy          =    -857.5988927513216140 [Eh]
	 Singles Energy            =      -0.0000000000000000 [Eh]
	 Same-Spin Energy          =      -0.5267745765765369 [Eh]
	 Opposite-Spin Energy      =      -1.6832731606509812 [Eh]
	 Correlation Energy        =      -2.2100477372275180 [Eh]
	 Total Energy              =    -859.8089404885491831 [Eh]

	 ================> DF-SCS-MP2 Energies <==================
	-----------------------------------------------------------
	 SCS Same-Spin Scale       =       0.3333333333333333 [-]
	 SCS Opposite-Spin Scale   =       1.2000000000000000 [-]
	 SCS Same-Spin Energy      =      -0.1755915255255123 [Eh]
	 SCS Opposite-Spin Energy  =      -2.0199277927811772 [Eh]
	 SCS Correlation Energy    =      -2.1955193183066894 [Eh]
	 SCS Total Energy          =    -859.7944120696282653 [Eh]
	-----------------------------------------------------------

  Dipole Moment: [D]
     X:    -0.0887      Y:     2.6820      Z:    -1.1003     Total:     2.9003

*** Psi4 exiting successfully. Buy a developer a beer!
