                               Psi4 1.4a3.dev225

  ==> Input File <==

--------------------------------------------------------------------------
#psi4
#
memory 32 gb

molecule  {
0 1
  S       -0.2946600    -0.4360860     0.1655790
  O       -1.5812787     0.5795777    -0.1042424
  O       -0.3508230    -1.5212030    -0.8163730
  O       -0.2159750    -0.7550950     1.5921100
  C        2.3621670     0.3010360     0.2220870
  C        0.9741440     0.7483390    -0.2426020
  C        2.8380310    -0.9649040    -0.4891310
  C        3.3410260     1.4538450    -0.0023010
  C       -2.8589370    -0.1133030    -0.1019100
  C       -3.9021700     0.9699320    -0.2416680
  H        2.2983390     0.1006560     1.2981690
  H        0.9320730     0.8904060    -1.3271310
  H        0.6744950     1.6778970     0.2503870
  H        2.8691440    -0.8060450    -1.5725570
  H        2.1878640    -1.8202610    -0.2948070
  H        3.8478330    -1.2217420    -0.1555610
  H        3.4181100     1.6939920    -1.0681710
  H        3.0282660     2.3570280     0.5308300
  H        4.3384750     1.1791220     0.3530350
  H       -2.8783840    -0.8196920    -0.9355340
  H       -2.9674710    -0.6619300     0.8385710
  H       -3.8465560     1.6647390     0.5984370
  H       -3.7534550     1.5250040    -1.1701160
  H       -4.8990420     0.5201230    -0.2596090
units angstrom
no_reorient  #important for SAPT in psi4, default
symmetry c1  #important for SAPT in psi4, default
}

set PROPERTIES_ORIGIN ["COM"]
properties('MP2/aug-cc-pvtz', properties = ['dipole'])
--------------------------------------------------------------------------

    Molecular point group: c1
  Charge       = 0
  Multiplicity = 1
  Basis Set: AUG-CC-PVTZ
    Blend: AUG-CC-PVTZ
  Basis Set: (AUG-CC-PVTZ AUX)
    Blend: AUG-CC-PVTZ-JKFIT

    Orbital Energies [Eh]
    ---------------------

    Doubly Occupied:

       1A    -92.215076     2A    -20.614418     3A    -20.555712
       4A    -20.555568     5A    -11.299348     6A    -11.279360
       7A    -11.252376     8A    -11.231299     9A    -11.230163
      10A    -11.219319    11A     -9.179316    12A     -6.864709
      13A     -6.863282    14A     -6.863127    15A     -1.478578
      16A     -1.374854    17A     -1.338876    18A     -1.121772
      19A     -1.049249    20A     -0.997097    21A     -0.943025
      22A     -0.874975    23A     -0.831526    24A     -0.788422
      25A     -0.724884    26A     -0.691653    27A     -0.690648
      28A     -0.657381    29A     -0.635555    30A     -0.616403
      31A     -0.607176    32A     -0.587474    33A     -0.566367
      34A     -0.558294    35A     -0.554047    36A     -0.544155
      37A     -0.537047    38A     -0.510979    39A     -0.498533
      40A     -0.496577    41A     -0.491304    42A     -0.485875
      43A     -0.483212    44A     -0.464304    45A     -0.454053

  @DF-RHF Final Energy:  -857.62447362585590

   => Energetics <=

    Nuclear Repulsion Energy =            721.9607978629302352
    One-Electron Energy =               -2611.4158076624089517
    Two-Electron Energy =                1031.8305361736229315
    Total Energy =                       -857.6244736258558987
  Basis Set: (AUG-CC-PVTZ AUX)
    Blend: AUG-CC-PVTZ-RI
    Molecular point group: c1

    Geometry (in Angstrom), charge = 0, multiplicity = 1:

       Center              X                  Y                   Z               Mass
    ------------   -----------------  -----------------  -----------------  -----------------
         S           -0.261918319360    -0.399873391607     0.148530136618    31.972071174400
         O           -1.548537019360     0.615790308393    -0.121291263382    15.994914619570
         O           -0.318081319360    -1.484990391607    -0.833421863382    15.994914619570
         O           -0.183233319360    -0.718882391607     1.575061136618    15.994914619570
         C            2.394908680640     0.337248608393     0.205038136618    12.000000000000
         C            1.006885680640     0.784551608393    -0.259650863382    12.000000000000
         C            2.870772680640    -0.928691391607    -0.506179863382    12.000000000000
         C            3.373767680640     1.490057608393    -0.019349863382    12.000000000000
         C           -2.826195319360    -0.077090391607    -0.118958863382    12.000000000000
         C           -3.869428319360     1.006144608393    -0.258716863382    12.000000000000
         H            2.331080680640     0.136868608393     1.281120136618     1.007825032230
         H            0.964814680640     0.926618608393    -1.344179863382     1.007825032230
         H            0.707236680640     1.714109608393     0.233338136618     1.007825032230
         H            2.901885680640    -0.769832391607    -1.589605863382     1.007825032230
         H            2.220605680640    -1.784048391607    -0.311855863382     1.007825032230
         H            3.880574680640    -1.185529391607    -0.172609863382     1.007825032230
         H            3.450851680640     1.730204608393    -1.085219863382     1.007825032230
         H            3.061007680640     2.393240608393     0.513781136618     1.007825032230
         H            4.371216680640     1.215334608393     0.335986136618     1.007825032230
         H           -2.845642319360    -0.783479391607    -0.952582863382     1.007825032230
         H           -2.934729319360    -0.625717391607     0.821522136618     1.007825032230
         H           -3.813814319360     1.700951608393     0.581388136618     1.007825032230
         H           -3.720713319360     1.561216608393    -1.187164863382     1.007825032230
         H           -4.866300319360     0.556335608393    -0.276657863382     1.007825032230

  Basis Set: AUG-CC-PVTZ
    Blend: AUG-CC-PVTZ
  Basis Set: (AUG-CC-PVTZ AUX)
    Blend: AUG-CC-PVTZ-JKFIT
	 Reference Energy          =    -857.6244736258558987 [Eh]
	 Singles Energy            =      -0.0000000000000000 [Eh]
	 Same-Spin Energy          =      -0.5256816172052557 [Eh]
	 Opposite-Spin Energy      =      -1.6817741143347835 [Eh]
	 Correlation Energy        =      -2.2074557315400392 [Eh]
	 Total Energy              =    -859.8319293573958930 [Eh]

	 ================> DF-SCS-MP2 Energies <==================
	-----------------------------------------------------------
	 SCS Same-Spin Scale       =       0.3333333333333333 [-]
	 SCS Opposite-Spin Scale   =       1.2000000000000000 [-]
	 SCS Same-Spin Energy      =      -0.1752272057350852 [Eh]
	 SCS Opposite-Spin Energy  =      -2.0181289372017401 [Eh]
	 SCS Correlation Energy    =      -2.1933561429368256 [Eh]
	 SCS Total Energy          =    -859.8178297687927625 [Eh]
	-----------------------------------------------------------

  Dipole Moment: [D]
     X:     0.0999      Y:     2.6556      Z:    -1.0257     Total:     2.8485

*** Psi4 exiting successfully. Buy a developer a beer!
