                               Psi4 1.4a3.dev225

  ==> Input File <==

--------------------------------------------------------------------------
#psi4
#
memory 32 gb

molecule  {
0 1
  S       -0.2946600    -0.4360860     0.1655790
  O       -1.5657890     0.5673500    -0.1009940
  O       -0.3508230    -1.5212030    -0.8163730
  O       -0.2159750    -0.7550950     1.5921100
  C        2.3634581     0.3224190     0.2380458
  C        0.9741440     0.7483390    -0.2426020
  C        2.8380310    -0.9649040    -0.4891310
  C        3.3410260     1.4538450    -0.0023010
  C       -2.8589370    -0.1133030    -0.1019100
  C       -3.9021700     0.9699320    -0.2416680
  H        2.2983390     0.1006560     1.2981690
  H        0.9320730     0.8904060    -1.3271310
  H        0.6744950     1.6778970     0.2503870
  H        2.8691440    -0.8060450    -1.5725570
  H        2.1878640    -1.8202610    -0.2948070
  H        3.8478330    -1.2217420    -0.1555610
  H        3.4181100     1.6939920    -1.0681710
  H        3.0282660     2.3570280     0.5308300
  H        4.3384750     1.1791220     0.3530350
  H       -2.8783840    -0.8196920    -0.9355340
  H       -2.9674710    -0.6619300     0.8385710
  H       -3.8465560     1.6647390     0.5984370
  H       -3.7534550     1.5250040    -1.1701160
  H       -4.8990420     0.5201230    -0.2596090
units angstrom
no_reorient  #important for SAPT in psi4, default
symmetry c1  #important for SAPT in psi4, default
}

set PROPERTIES_ORIGIN ["COM"]
properties('MP2/aug-cc-pvtz', properties = ['dipole'])
--------------------------------------------------------------------------

    Molecular point group: c1
  Charge       = 0
  Multiplicity = 1
  Basis Set: AUG-CC-PVTZ
    Blend: AUG-CC-PVTZ
  Basis Set: (AUG-CC-PVTZ AUX)
    Blend: AUG-CC-PVTZ-JKFIT

    Orbital Energies [Eh]
    ---------------------

    Doubly Occupied:

       1A    -92.214152     2A    -20.615071     3A    -20.553721
       4A    -20.553630     5A    -11.302004     6A    -11.277931
       7A    -11.251021     8A    -11.233091     9A    -11.229095
      10A    -11.219115    11A     -9.178353    12A     -6.863806
      13A     -6.862377    14A     -6.862195    15A     -1.481135
      16A     -1.375185    17A     -1.337493    18A     -1.120465
      19A     -1.051537    20A     -0.996622    21A     -0.940721
      22A     -0.877170    23A     -0.831124    24A     -0.789609
      25A     -0.725291    26A     -0.692958    27A     -0.690843
      28A     -0.656300    29A     -0.634829    30A     -0.615319
      31A     -0.607046    32A     -0.586732    33A     -0.567744
      34A     -0.559418    35A     -0.554780    36A     -0.543039
      37A     -0.537612    38A     -0.511428    39A     -0.500094
      40A     -0.497233    41A     -0.488900    42A     -0.485536
      43A     -0.480401    44A     -0.463345    45A     -0.455036

  @DF-RHF Final Energy:  -857.62599946768580

   => Energetics <=

    Nuclear Repulsion Energy =            722.4159431342268363
    One-Electron Energy =               -2612.3428714919991762
    Two-Electron Energy =                1032.3009288900866522
    Total Energy =                       -857.6259994676856877
  Basis Set: (AUG-CC-PVTZ AUX)
    Blend: AUG-CC-PVTZ-RI
    Molecular point group: c1

    Geometry (in Angstrom), charge = 0, multiplicity = 1:

       Center              X                  Y                   Z               Mass
    ------------   -----------------  -----------------  -----------------  -----------------
         S           -0.263503526745    -0.400240804854     0.147064075264    31.972071174400
         O           -1.534632526745     0.603195195146    -0.119508924736    15.994914619570
         O           -0.319666526745    -1.485357804854    -0.834887924736    15.994914619570
         O           -0.184818526745    -0.719249804854     1.573595075264    15.994914619570
         C            2.394614573255     0.358264195146     0.219530875264    12.000000000000
         C            1.005300473255     0.784184195146    -0.261116924736    12.000000000000
         C            2.869187473255    -0.929058804854    -0.507645924736    12.000000000000
         C            3.372182473255     1.489690195146    -0.020815924736    12.000000000000
         C           -2.827780526745    -0.077457804854    -0.120424924736    12.000000000000
         C           -3.871013526745     1.005777195146    -0.260182924736    12.000000000000
         H            2.329495473255     0.136501195146     1.279654075264     1.007825032230
         H            0.963229473255     0.926251195146    -1.345645924736     1.007825032230
         H            0.705651473255     1.713742195146     0.231872075264     1.007825032230
         H            2.900300473255    -0.770199804854    -1.591071924736     1.007825032230
         H            2.219020473255    -1.784415804854    -0.313321924736     1.007825032230
         H            3.878989473255    -1.185896804854    -0.174075924736     1.007825032230
         H            3.449266473255     1.729837195146    -1.086685924736     1.007825032230
         H            3.059422473255     2.392873195146     0.512315075264     1.007825032230
         H            4.369631473255     1.214967195146     0.334520075264     1.007825032230
         H           -2.847227526745    -0.783846804854    -0.954048924736     1.007825032230
         H           -2.936314526745    -0.626084804854     0.820056075264     1.007825032230
         H           -3.815399526745     1.700584195146     0.579922075264     1.007825032230
         H           -3.722298526745     1.560849195146    -1.188630924736     1.007825032230
         H           -4.867885526745     0.555968195146    -0.278123924736     1.007825032230

  Basis Set: AUG-CC-PVTZ
    Blend: AUG-CC-PVTZ
  Basis Set: (AUG-CC-PVTZ AUX)
    Blend: AUG-CC-PVTZ-JKFIT
	 Reference Energy          =    -857.6259994676858014 [Eh]
	 Singles Energy            =      -0.0000000000000000 [Eh]
	 Same-Spin Energy          =      -0.5252118167868126 [Eh]
	 Opposite-Spin Energy      =      -1.6807409445834898 [Eh]
	 Correlation Energy        =      -2.2059527613703023 [Eh]
	 Total Energy              =    -859.8319522290561281 [Eh]

	 ================> DF-SCS-MP2 Energies <==================
	-----------------------------------------------------------
	 SCS Same-Spin Scale       =       0.3333333333333333 [-]
	 SCS Opposite-Spin Scale   =       1.2000000000000000 [-]
	 SCS Same-Spin Energy      =      -0.1750706055956042 [Eh]
	 SCS Opposite-Spin Energy  =      -2.0168891335001877 [Eh]
	 SCS Correlation Energy    =      -2.1919597390957919 [Eh]
	 SCS Total Energy          =    -859.8179592067815520 [Eh]
	-----------------------------------------------------------

  Dipole Moment: [D]
     X:    -0.0734      Y:     2.7225      Z:    -1.0389     Total:     2.9149

*** Psi4 exiting successfully. Buy a developer a beer!
