                               Psi4 1.4a3.dev225

  ==> Input File <==

--------------------------------------------------------------------------
#psi4
#
memory 32 gb

molecule  {
0 1
  S       -0.2946600    -0.4360860     0.1655790
  O       -1.5406709     0.5120967    -0.1829709
  O       -0.3508230    -1.5212030    -0.8163730
  O       -0.2159750    -0.7550950     1.5921100
  C        2.3621670     0.3010360     0.2220870
  C        0.9741440     0.7483390    -0.2426020
  C        2.8380310    -0.9649040    -0.4891310
  C        3.3410260     1.4538450    -0.0023010
  C       -2.8589370    -0.1133030    -0.1019100
  C       -3.9021700     0.9699320    -0.2416680
  H        2.2983390     0.1006560     1.2981690
  H        0.9320730     0.8904060    -1.3271310
  H        0.6744950     1.6778970     0.2503870
  H        2.8691440    -0.8060450    -1.5725570
  H        2.1878640    -1.8202610    -0.2948070
  H        3.8478330    -1.2217420    -0.1555610
  H        3.4181100     1.6939920    -1.0681710
  H        3.0282660     2.3570280     0.5308300
  H        4.3384750     1.1791220     0.3530350
  H       -2.8783840    -0.8196920    -0.9355340
  H       -2.9674710    -0.6619300     0.8385710
  H       -3.8465560     1.6647390     0.5984370
  H       -3.7534550     1.5250040    -1.1701160
  H       -4.8990420     0.5201230    -0.2596090
units angstrom
no_reorient  #important for SAPT in psi4, default
symmetry c1  #important for SAPT in psi4, default
}

set PROPERTIES_ORIGIN ["COM"]
properties('MP2/aug-cc-pvtz', properties = ['dipole'])
--------------------------------------------------------------------------

    Molecular point group: c1
  Charge       = 0
  Multiplicity = 1
  Basis Set: AUG-CC-PVTZ
    Blend: AUG-CC-PVTZ
  Basis Set: (AUG-CC-PVTZ AUX)
    Blend: AUG-CC-PVTZ-JKFIT

    Orbital Energies [Eh]
    ---------------------

    Doubly Occupied:

       1A    -92.211967     2A    -20.615037     3A    -20.554773
       4A    -20.545079     5A    -11.304839     6A    -11.276541
       7A    -11.250386     8A    -11.235804     9A    -11.228720
      10A    -11.217373    11A     -9.176258    12A     -6.861856
      13A     -6.860344    14A     -6.860106    15A     -1.488184
      16A     -1.378102    17A     -1.334282    18A     -1.119966
      19A     -1.055887    20A     -0.996287    21A     -0.941296
      22A     -0.882960    23A     -0.828193    24A     -0.788001
      25A     -0.727335    26A     -0.696995    27A     -0.690406
      28A     -0.657539    29A     -0.633107    30A     -0.616483
      31A     -0.606849    32A     -0.585633    33A     -0.571156
      34A     -0.560708    35A     -0.554763    36A     -0.542547
      37A     -0.537722    38A     -0.508229    39A     -0.499659
      40A     -0.497809    41A     -0.490316    42A     -0.484732
      43A     -0.481860    44A     -0.459944    45A     -0.452303

  @DF-RHF Final Energy:  -857.62805345265610

   => Energetics <=

    Nuclear Repulsion Energy =            723.9803919367984690
    One-Electron Energy =               -2615.4802114122280727
    Two-Electron Energy =                1033.8717660227734996
    Total Energy =                       -857.6280534526561041
  Basis Set: (AUG-CC-PVTZ AUX)
    Blend: AUG-CC-PVTZ-RI
    Molecular point group: c1

    Geometry (in Angstrom), charge = 0, multiplicity = 1:

       Center              X                  Y                   Z               Mass
    ------------   -----------------  -----------------  -----------------  -----------------
         S           -0.265829516501    -0.393373864564     0.156112982379    31.972071174400
         O           -1.511840416501     0.554808835436    -0.192436917621    15.994914619570
         O           -0.321992516501    -1.478490864564    -0.825839017621    15.994914619570
         O           -0.187144516501    -0.712382864564     1.582643982379    15.994914619570
         C            2.390997483499     0.343748135436     0.212620982379    12.000000000000
         C            1.002974483499     0.791051135436    -0.252068017621    12.000000000000
         C            2.866861483499    -0.922191864564    -0.498597017621    12.000000000000
         C            3.369856483499     1.496557135436    -0.011767017621    12.000000000000
         C           -2.830106516501    -0.070590864564    -0.111376017621    12.000000000000
         C           -3.873339516501     1.012644135436    -0.251134017621    12.000000000000
         H            2.327169483499     0.143368135436     1.288702982379     1.007825032230
         H            0.960903483499     0.933118135436    -1.336597017621     1.007825032230
         H            0.703325483499     1.720609135436     0.240920982379     1.007825032230
         H            2.897974483499    -0.763332864564    -1.582023017621     1.007825032230
         H            2.216694483499    -1.777548864564    -0.304273017621     1.007825032230
         H            3.876663483499    -1.179029864564    -0.165027017621     1.007825032230
         H            3.446940483499     1.736704135436    -1.077637017621     1.007825032230
         H            3.057096483499     2.399740135436     0.521363982379     1.007825032230
         H            4.367305483499     1.221834135436     0.343568982379     1.007825032230
         H           -2.849553516501    -0.776979864564    -0.945000017621     1.007825032230
         H           -2.938640516501    -0.619217864564     0.829104982379     1.007825032230
         H           -3.817725516501     1.707451135436     0.588970982379     1.007825032230
         H           -3.724624516501     1.567716135436    -1.179582017621     1.007825032230
         H           -4.870211516501     0.562835135436    -0.269075017621     1.007825032230

  Basis Set: AUG-CC-PVTZ
    Blend: AUG-CC-PVTZ
  Basis Set: (AUG-CC-PVTZ AUX)
    Blend: AUG-CC-PVTZ-JKFIT
	 Reference Energy          =    -857.6280534526561041 [Eh]
	 Singles Energy            =      -0.0000000000000000 [Eh]
	 Same-Spin Energy          =      -0.5245395776967063 [Eh]
	 Opposite-Spin Energy      =      -1.6787660533873299 [Eh]
	 Correlation Energy        =      -2.2033056310840360 [Eh]
	 Total Energy              =    -859.8313590837401534 [Eh]

	 ================> DF-SCS-MP2 Energies <==================
	-----------------------------------------------------------
	 SCS Same-Spin Scale       =       0.3333333333333333 [-]
	 SCS Opposite-Spin Scale   =       1.2000000000000000 [-]
	 SCS Same-Spin Energy      =      -0.1748465258989021 [Eh]
	 SCS Opposite-Spin Energy  =      -2.0145192640647958 [Eh]
	 SCS Correlation Energy    =      -2.1893657899636980 [Eh]
	 SCS Total Energy          =    -859.8174192426198488 [Eh]
	-----------------------------------------------------------

  Dipole Moment: [D]
     X:    -0.3139      Y:     2.8803      Z:    -0.8974     Total:     3.0331

*** Psi4 exiting successfully. Buy a developer a beer!
