                               Psi4 1.4a3.dev225

  ==> Input File <==

--------------------------------------------------------------------------
#psi4
#
memory 32 gb

molecule  {
0 1
  S       -0.2946600    -0.4360860     0.1655790
  O       -1.5657890     0.5673500    -0.1009940
  O       -0.3508230    -1.5212030    -0.8163730
  O       -0.2159750    -0.7550950     1.5921100
  C        2.3621670     0.3010360     0.2220870
  C        0.9651473     0.7455981    -0.2175994
  C        2.8380310    -0.9649040    -0.4891310
  C        3.3410260     1.4538450    -0.0023010
  C       -2.8589370    -0.1133030    -0.1019100
  C       -3.9021700     0.9699320    -0.2416680
  H        2.2983390     0.1006560     1.2981690
  H        0.9320730     0.8904060    -1.3271310
  H        0.6744950     1.6778970     0.2503870
  H        2.8691440    -0.8060450    -1.5725570
  H        2.1878640    -1.8202610    -0.2948070
  H        3.8478330    -1.2217420    -0.1555610
  H        3.4181100     1.6939920    -1.0681710
  H        3.0282660     2.3570280     0.5308300
  H        4.3384750     1.1791220     0.3530350
  H       -2.8783840    -0.8196920    -0.9355340
  H       -2.9674710    -0.6619300     0.8385710
  H       -3.8465560     1.6647390     0.5984370
  H       -3.7534550     1.5250040    -1.1701160
  H       -4.8990420     0.5201230    -0.2596090
units angstrom
no_reorient  #important for SAPT in psi4, default
symmetry c1  #important for SAPT in psi4, default
}

set PROPERTIES_ORIGIN ["COM"]
properties('MP2/aug-cc-pvtz', properties = ['dipole'])
--------------------------------------------------------------------------

    Molecular point group: c1
  Charge       = 0
  Multiplicity = 1
  Basis Set: AUG-CC-PVTZ
    Blend: AUG-CC-PVTZ
  Basis Set: (AUG-CC-PVTZ AUX)
    Blend: AUG-CC-PVTZ-JKFIT

    Orbital Energies [Eh]
    ---------------------

    Doubly Occupied:

       1A    -92.214335     2A    -20.615048     3A    -20.554665
       4A    -20.552738     5A    -11.302035     6A    -11.278112
       7A    -11.251632     8A    -11.233104     9A    -11.229714
      10A    -11.218858    11A     -9.178649    12A     -6.864121
      13A     -6.862701    14A     -6.862485    15A     -1.481564
      16A     -1.375304    17A     -1.337668    18A     -1.121184
      19A     -1.051989    20A     -0.998042    21A     -0.942407
      22A     -0.877125    23A     -0.831391    24A     -0.786960
      25A     -0.726316    26A     -0.693187    27A     -0.690061
      28A     -0.657984    29A     -0.635219    30A     -0.616190
      31A     -0.606975    32A     -0.583417    33A     -0.567127
      34A     -0.558658    35A     -0.554760    36A     -0.543390
      37A     -0.537587    38A     -0.511225    39A     -0.500101
      40A     -0.496850    41A     -0.491581    42A     -0.484080
      43A     -0.481172    44A     -0.463556    45A     -0.455844

  @DF-RHF Final Energy:  -857.62564159342901

   => Energetics <=

    Nuclear Repulsion Energy =            722.8659297008532576
    One-Electron Energy =               -2613.2289233343935848
    Two-Electron Energy =                1032.7373520401113183
    Total Energy =                       -857.6256415934290089
  Basis Set: (AUG-CC-PVTZ AUX)
    Blend: AUG-CC-PVTZ-RI
    Molecular point group: c1

    Geometry (in Angstrom), charge = 0, multiplicity = 1:

       Center              X                  Y                   Z               Mass
    ------------   -----------------  -----------------  -----------------  -----------------
         S           -0.262760127564    -0.398497605385     0.146410567856    31.972071174400
         O           -1.533889127564     0.604938394615    -0.120162432144    15.994914619570
         O           -0.318923127564    -1.483614605385    -0.835541432144    15.994914619570
         O           -0.184075127564    -0.717506605385     1.572941567856    15.994914619570
         C            2.394066872436     0.338624394615     0.202918567856    12.000000000000
         C            0.997047172436     0.783186494615    -0.236767832144    12.000000000000
         C            2.869930872436    -0.927315605385    -0.508299432144    12.000000000000
         C            3.372925872436     1.491433394615    -0.021469432144    12.000000000000
         C           -2.827037127564    -0.075714605385    -0.121078432144    12.000000000000
         C           -3.870270127564     1.007520394615    -0.260836432144    12.000000000000
         H            2.330238872436     0.138244394615     1.279000567856     1.007825032230
         H            0.963972872436     0.927994394615    -1.346299432144     1.007825032230
         H            0.706394872436     1.715485394615     0.231218567856     1.007825032230
         H            2.901043872436    -0.768456605385    -1.591725432144     1.007825032230
         H            2.219763872436    -1.782672605385    -0.313975432144     1.007825032230
         H            3.879732872436    -1.184153605385    -0.174729432144     1.007825032230
         H            3.450009872436     1.731580394615    -1.087339432144     1.007825032230
         H            3.060165872436     2.394616394615     0.511661567856     1.007825032230
         H            4.370374872436     1.216710394615     0.333866567856     1.007825032230
         H           -2.846484127564    -0.782103605385    -0.954702432144     1.007825032230
         H           -2.935571127564    -0.624341605385     0.819402567856     1.007825032230
         H           -3.814656127564     1.702327394615     0.579268567856     1.007825032230
         H           -3.721555127564     1.562592394615    -1.189284432144     1.007825032230
         H           -4.867142127564     0.557711394615    -0.278777432144     1.007825032230

  Basis Set: AUG-CC-PVTZ
    Blend: AUG-CC-PVTZ
  Basis Set: (AUG-CC-PVTZ AUX)
    Blend: AUG-CC-PVTZ-JKFIT
	 Reference Energy          =    -857.6256415934290089 [Eh]
	 Singles Energy            =      -0.0000000000000000 [Eh]
	 Same-Spin Energy          =      -0.5253661721800694 [Eh]
	 Opposite-Spin Energy      =      -1.6808467259597166 [Eh]
	 Correlation Energy        =      -2.2062128981397859 [Eh]
	 Total Energy              =    -859.8318544915688335 [Eh]

	 ================> DF-SCS-MP2 Energies <==================
	-----------------------------------------------------------
	 SCS Same-Spin Scale       =       0.3333333333333333 [-]
	 SCS Opposite-Spin Scale   =       1.2000000000000000 [-]
	 SCS Same-Spin Energy      =      -0.1751220573933565 [Eh]
	 SCS Opposite-Spin Energy  =      -2.0170160711516600 [Eh]
	 SCS Correlation Energy    =      -2.1921381285450163 [Eh]
	 SCS Total Energy          =    -859.8177797219740341 [Eh]
	-----------------------------------------------------------

  Dipole Moment: [D]
     X:    -0.0593      Y:     2.7110      Z:    -1.0507     Total:     2.9081

*** Psi4 exiting successfully. Buy a developer a beer!
