                               Psi4 1.4a3.dev225

  ==> Input File <==

--------------------------------------------------------------------------
#psi4
#
memory 32 gb

molecule  {
0 1
  S       -0.2946600    -0.4360860     0.1655790
  O       -1.5657890     0.5673500    -0.1009940
  O       -0.3508230    -1.5212030    -0.8163730
  O       -0.2159750    -0.7550950     1.5921100
  C        2.3621670     0.3010360     0.2220870
  C        0.9599123     0.7350538    -0.2380236
  C        2.8380310    -0.9649040    -0.4891310
  C        3.3410260     1.4538450    -0.0023010
  C       -2.8589370    -0.1133030    -0.1019100
  C       -3.9021700     0.9699320    -0.2416680
  H        2.2983390     0.1006560     1.2981690
  H        0.9320730     0.8904060    -1.3271310
  H        0.6744950     1.6778970     0.2503870
  H        2.8691440    -0.8060450    -1.5725570
  H        2.1878640    -1.8202610    -0.2948070
  H        3.8478330    -1.2217420    -0.1555610
  H        3.4181100     1.6939920    -1.0681710
  H        3.0282660     2.3570280     0.5308300
  H        4.3384750     1.1791220     0.3530350
  H       -2.8783840    -0.8196920    -0.9355340
  H       -2.9674710    -0.6619300     0.8385710
  H       -3.8465560     1.6647390     0.5984370
  H       -3.7534550     1.5250040    -1.1701160
  H       -4.8990420     0.5201230    -0.2596090
units angstrom
no_reorient  #important for SAPT in psi4, default
symmetry c1  #important for SAPT in psi4, default
}

set PROPERTIES_ORIGIN ["COM"]
properties('MP2/aug-cc-pvtz', properties = ['dipole'])
--------------------------------------------------------------------------

    Molecular point group: c1
  Charge       = 0
  Multiplicity = 1
  Basis Set: AUG-CC-PVTZ
    Blend: AUG-CC-PVTZ
  Basis Set: (AUG-CC-PVTZ AUX)
    Blend: AUG-CC-PVTZ-JKFIT

    Orbital Energies [Eh]
    ---------------------

    Doubly Occupied:

       1A    -92.214510     2A    -20.614955     3A    -20.553822
       4A    -20.553644     5A    -11.301961     6A    -11.277567
       7A    -11.252224     8A    -11.233063     9A    -11.229783
      10A    -11.218420    11A     -9.178849    12A     -6.864323
      13A     -6.862922    14A     -6.862690    15A     -1.481719
      16A     -1.375325    17A     -1.337729    18A     -1.120484
      19A     -1.052105    20A     -0.998674    21A     -0.942184
      22A     -0.876744    23A     -0.831148    24A     -0.787194
      25A     -0.726487    26A     -0.693059    27A     -0.690983
      28A     -0.656236    29A     -0.634550    30A     -0.615758
      31A     -0.606912    32A     -0.585661    33A     -0.567243
      34A     -0.558751    35A     -0.554749    36A     -0.543450
      37A     -0.537508    38A     -0.509889    39A     -0.500242
      40A     -0.496660    41A     -0.489319    42A     -0.485076
      43A     -0.482196    44A     -0.463518    45A     -0.456639

  @DF-RHF Final Energy:  -857.62611180806903

   => Energetics <=

    Nuclear Repulsion Energy =            722.9526688644183423
    One-Electron Energy =               -2613.4037087524807248
    Two-Electron Energy =                1032.8249280799934695
    Total Energy =                       -857.6261118080690267
  Basis Set: (AUG-CC-PVTZ AUX)
    Blend: AUG-CC-PVTZ-RI
    Molecular point group: c1

    Geometry (in Angstrom), charge = 0, multiplicity = 1:

       Center              X                  Y                   Z               Mass
    ------------   -----------------  -----------------  -----------------  -----------------
         S           -0.262381845064    -0.397735671446     0.147886426012    31.972071174400
         O           -1.533510845064     0.605700328554    -0.118686573988    15.994914619570
         O           -0.318544845064    -1.482852671446    -0.834065573988    15.994914619570
         O           -0.183696845064    -0.716744671446     1.574417426012    15.994914619570
         C            2.394445154936     0.339386328554     0.204394426012    12.000000000000
         C            0.992190454936     0.773404128554    -0.255716173988    12.000000000000
         C            2.870309154936    -0.926553671446    -0.506823573988    12.000000000000
         C            3.373304154936     1.492195328554    -0.019993573988    12.000000000000
         C           -2.826658845064    -0.074952671446    -0.119602573988    12.000000000000
         C           -3.869891845064     1.008282328554    -0.259360573988    12.000000000000
         H            2.330617154936     0.139006328554     1.280476426012     1.007825032230
         H            0.964351154936     0.928756328554    -1.344823573988     1.007825032230
         H            0.706773154936     1.716247328554     0.232694426012     1.007825032230
         H            2.901422154936    -0.767694671446    -1.590249573988     1.007825032230
         H            2.220142154936    -1.781910671446    -0.312499573988     1.007825032230
         H            3.880111154936    -1.183391671446    -0.173253573988     1.007825032230
         H            3.450388154936     1.732342328554    -1.085863573988     1.007825032230
         H            3.060544154936     2.395378328554     0.513137426012     1.007825032230
         H            4.370753154936     1.217472328554     0.335342426012     1.007825032230
         H           -2.846105845064    -0.781341671446    -0.953226573988     1.007825032230
         H           -2.935192845064    -0.623579671446     0.820878426012     1.007825032230
         H           -3.814277845064     1.703089328554     0.580744426012     1.007825032230
         H           -3.721176845064     1.563354328554    -1.187808573988     1.007825032230
         H           -4.866763845064     0.558473328554    -0.277301573988     1.007825032230

  Basis Set: AUG-CC-PVTZ
    Blend: AUG-CC-PVTZ
  Basis Set: (AUG-CC-PVTZ AUX)
    Blend: AUG-CC-PVTZ-JKFIT
	 Reference Energy          =    -857.6261118080690267 [Eh]
	 Singles Energy            =      -0.0000000000000000 [Eh]
	 Same-Spin Energy          =      -0.5253280322997148 [Eh]
	 Opposite-Spin Energy      =      -1.6807884611767376 [Eh]
	 Correlation Energy        =      -2.2061164934764523 [Eh]
	 Total Energy              =    -859.8322283015454559 [Eh]

	 ================> DF-SCS-MP2 Energies <==================
	-----------------------------------------------------------
	 SCS Same-Spin Scale       =       0.3333333333333333 [-]
	 SCS Opposite-Spin Scale   =       1.2000000000000000 [-]
	 SCS Same-Spin Energy      =      -0.1751093440999049 [Eh]
	 SCS Opposite-Spin Energy  =      -2.0169461534120852 [Eh]
	 SCS Correlation Energy    =      -2.1920554975119901 [Eh]
	 SCS Total Energy          =    -859.8181673055810279 [Eh]
	-----------------------------------------------------------

  Dipole Moment: [D]
     X:    -0.0537      Y:     2.7209      Z:    -1.0461     Total:     2.9155

*** Psi4 exiting successfully. Buy a developer a beer!
