                               Psi4 1.4a3.dev225

  ==> Input File <==

--------------------------------------------------------------------------
#psi4
#
memory 32 gb

molecule  {
0 1
  S       -0.2946600    -0.4360860     0.1655790
  O       -1.5657890     0.5673500    -0.1009940
  O       -0.3508230    -1.5212030    -0.8163730
  O       -0.2159750    -0.7550950     1.5921100
  C        2.3621670     0.3010360     0.2220870
  C        0.9741440     0.7483390    -0.2426020
  C        2.8380310    -0.9649040    -0.4891310
  C        3.3410260     1.4538450    -0.0023010
  C       -2.8589370    -0.1133030    -0.1019100
  C       -3.9021700     0.9699320    -0.2416680
  H        2.2983390     0.1006560     1.2981690
  H        0.9320730     0.8904060    -1.3271310
  H        0.6744950     1.6778970     0.2503870
  H        2.8691440    -0.8060450    -1.5725570
  H        2.1878640    -1.8202610    -0.2948070
  H        3.8478330    -1.2217420    -0.1555610
  H        3.4181100     1.6939920    -1.0681710
  H        3.0282660     2.3570280     0.5308300
  H        4.2928840     1.1916789     0.3367935
  H       -2.8783840    -0.8196920    -0.9355340
  H       -2.9674710    -0.6619300     0.8385710
  H       -3.8465560     1.6647390     0.5984370
  H       -3.7534550     1.5250040    -1.1701160
  H       -4.8990420     0.5201230    -0.2596090
units angstrom
no_reorient  #important for SAPT in psi4, default
symmetry c1  #important for SAPT in psi4, default
}

set PROPERTIES_ORIGIN ["COM"]
properties('MP2/aug-cc-pvtz', properties = ['dipole'])
--------------------------------------------------------------------------

    Molecular point group: c1
  Charge       = 0
  Multiplicity = 1
  Basis Set: AUG-CC-PVTZ
    Blend: AUG-CC-PVTZ
  Basis Set: (AUG-CC-PVTZ AUX)
    Blend: AUG-CC-PVTZ-JKFIT

    Orbital Energies [Eh]
    ---------------------

    Doubly Occupied:

       1A    -92.213555     2A    -20.614701     3A    -20.553485
       4A    -20.553347     5A    -11.301772     6A    -11.277744
       7A    -11.251084     8A    -11.232921     9A    -11.223394
      10A    -11.218647    11A     -9.177815    12A     -6.863271
      13A     -6.861822    14A     -6.861652    15A     -1.480836
      16A     -1.374893    17A     -1.337233    18A     -1.121118
      19A     -1.051587    20A     -0.997746    21A     -0.944907
      22A     -0.877493    23A     -0.831213    24A     -0.788506
      25A     -0.725315    26A     -0.692695    27A     -0.690947
      28A     -0.656574    29A     -0.635102    30A     -0.616577
      31A     -0.607731    32A     -0.588149    33A     -0.567454
      34A     -0.559190    35A     -0.554424    36A     -0.547450
      37A     -0.537859    38A     -0.509816    39A     -0.499871
      40A     -0.496867    41A     -0.491226    42A     -0.485226
      43A     -0.482422    44A     -0.463170    45A     -0.453622

  @DF-RHF Final Energy:  -857.62554444339673

   => Energetics <=

    Nuclear Repulsion Energy =            722.8185369378770702
    One-Electron Energy =               -2613.1433052538791344
    Two-Electron Energy =                1032.6992238726052165
    Total Energy =                       -857.6255444433968478
  Basis Set: (AUG-CC-PVTZ AUX)
    Blend: AUG-CC-PVTZ-RI
    Molecular point group: c1

    Geometry (in Angstrom), charge = 0, multiplicity = 1:

       Center              X                  Y                   Z               Mass
    ------------   -----------------  -----------------  -----------------  -----------------
         S           -0.263133548448    -0.398771868979     0.148315828981    31.972071174400
         O           -1.534262548448     0.604664131021    -0.118257171019    15.994914619570
         O           -0.319296548448    -1.483888868979    -0.833636171019    15.994914619570
         O           -0.184448548448    -0.717780868979     1.574846828981    15.994914619570
         C            2.393693451552     0.338350131021     0.204823828981    12.000000000000
         C            1.005670451552     0.785653131021    -0.259865171019    12.000000000000
         C            2.869557451552    -0.927589868979    -0.506394171019    12.000000000000
         C            3.372552451552     1.491159131021    -0.019564171019    12.000000000000
         C           -2.827410548448    -0.075988868979    -0.119173171019    12.000000000000
         C           -3.870643548448     1.007246131021    -0.258931171019    12.000000000000
         H            2.329865451552     0.137970131021     1.280905828981     1.007825032230
         H            0.963599451552     0.927720131021    -1.344394171019     1.007825032230
         H            0.706021451552     1.715211131021     0.233123828981     1.007825032230
         H            2.900670451552    -0.768730868979    -1.589820171019     1.007825032230
         H            2.219390451552    -1.782946868979    -0.312070171019     1.007825032230
         H            3.879359451552    -1.184427868979    -0.172824171019     1.007825032230
         H            3.449636451552     1.731306131021    -1.085434171019     1.007825032230
         H            3.059792451552     2.394342131021     0.513566828981     1.007825032230
         H            4.324410451552     1.228993031021     0.319530328981     1.007825032230
         H           -2.846857548448    -0.782377868979    -0.952797171019     1.007825032230
         H           -2.935944548448    -0.624615868979     0.821307828981     1.007825032230
         H           -3.815029548448     1.702053131021     0.581173828981     1.007825032230
         H           -3.721928548448     1.562318131021    -1.187379171019     1.007825032230
         H           -4.867515548448     0.557437131021    -0.276872171019     1.007825032230

  Basis Set: AUG-CC-PVTZ
    Blend: AUG-CC-PVTZ
  Basis Set: (AUG-CC-PVTZ AUX)
    Blend: AUG-CC-PVTZ-JKFIT
	 Reference Energy          =    -857.6255444433967341 [Eh]
	 Singles Energy            =      -0.0000000000000000 [Eh]
	 Same-Spin Energy          =      -0.5252881267362166 [Eh]
	 Opposite-Spin Energy      =      -1.6805073898123730 [Eh]
	 Correlation Energy        =      -2.2057955165485899 [Eh]
	 Total Energy              =    -859.8313399599453533 [Eh]

	 ================> DF-SCS-MP2 Energies <==================
	-----------------------------------------------------------
	 SCS Same-Spin Scale       =       0.3333333333333333 [-]
	 SCS Opposite-Spin Scale   =       1.2000000000000000 [-]
	 SCS Same-Spin Energy      =      -0.1750960422454055 [Eh]
	 SCS Opposite-Spin Energy  =      -2.0166088677748477 [Eh]
	 SCS Correlation Energy    =      -2.1917049100202530 [Eh]
	 SCS Total Energy          =    -859.8172493534169689 [Eh]
	-----------------------------------------------------------

  Dipole Moment: [D]
     X:    -0.0322      Y:     2.7115      Z:    -1.0385     Total:     2.9037

*** Psi4 exiting successfully. Buy a developer a beer!
