                               Psi4 1.4a3.dev225

  ==> Input File <==

--------------------------------------------------------------------------
#psi4
#
memory 32 gb

molecule  {
0 1
  S       -0.2946600    -0.4360860     0.1655790
  O       -1.5657890     0.5673500    -0.1009940
  O       -0.3316562    -1.5102412    -0.8292501
  O       -0.2159750    -0.7550950     1.5921100
  C        2.3621670     0.3010360     0.2220870
  C        0.9741440     0.7483390    -0.2426020
  C        2.8380310    -0.9649040    -0.4891310
  C        3.3410260     1.4538450    -0.0023010
  C       -2.8589370    -0.1133030    -0.1019100
  C       -3.9021700     0.9699320    -0.2416680
  H        2.2983390     0.1006560     1.2981690
  H        0.9320730     0.8904060    -1.3271310
  H        0.6744950     1.6778970     0.2503870
  H        2.8691440    -0.8060450    -1.5725570
  H        2.1878640    -1.8202610    -0.2948070
  H        3.8478330    -1.2217420    -0.1555610
  H        3.4181100     1.6939920    -1.0681710
  H        3.0282660     2.3570280     0.5308300
  H        4.3384750     1.1791220     0.3530350
  H       -2.8783840    -0.8196920    -0.9355340
  H       -2.9674710    -0.6619300     0.8385710
  H       -3.8465560     1.6647390     0.5984370
  H       -3.7534550     1.5250040    -1.1701160
  H       -4.8990420     0.5201230    -0.2596090
units angstrom
no_reorient  #important for SAPT in psi4, default
symmetry c1  #important for SAPT in psi4, default
}

set PROPERTIES_ORIGIN ["COM"]
properties('MP2/aug-cc-pvtz', properties = ['dipole'])
--------------------------------------------------------------------------

    Molecular point group: c1
  Charge       = 0
  Multiplicity = 1
  Basis Set: AUG-CC-PVTZ
    Blend: AUG-CC-PVTZ
  Basis Set: (AUG-CC-PVTZ AUX)
    Blend: AUG-CC-PVTZ-JKFIT

    Orbital Energies [Eh]
    ---------------------

    Doubly Occupied:

       1A    -92.214012     2A    -20.615540     3A    -20.554656
       4A    -20.553985     5A    -11.302489     6A    -11.276878
       7A    -11.250897     8A    -11.233398     9A    -11.229046
      10A    -11.217988    11A     -9.178238    12A     -6.863691
      13A     -6.862264    14A     -6.862066    15A     -1.481303
      16A     -1.375645    17A     -1.338459    18A     -1.120119
      19A     -1.051736    20A     -0.996115    21A     -0.941774
      22A     -0.877175    23A     -0.831097    24A     -0.787687
      25A     -0.725271    26A     -0.693303    27A     -0.690502
      28A     -0.656793    29A     -0.635164    30A     -0.615688
      31A     -0.606882    32A     -0.586308    33A     -0.567485
      34A     -0.559099    35A     -0.554645    36A     -0.543209
      37A     -0.537667    38A     -0.509713    39A     -0.500455
      40A     -0.497224    41A     -0.490038    42A     -0.485968
      43A     -0.482268    44A     -0.463966    45A     -0.452884

  @DF-RHF Final Energy:  -857.62621817145566

   => Energetics <=

    Nuclear Repulsion Energy =            722.6448383760731531
    One-Electron Energy =               -2612.8005344828588932
    Two-Electron Energy =                1032.5294779353303056
    Total Energy =                       -857.6262181714555481
  Basis Set: (AUG-CC-PVTZ AUX)
    Blend: AUG-CC-PVTZ-RI
    Molecular point group: c1

    Geometry (in Angstrom), charge = 0, multiplicity = 1:

       Center              X                  Y                   Z               Mass
    ------------   -----------------  -----------------  -----------------  -----------------
         S           -0.265256308705    -0.399751464675     0.149457538346    31.972071174400
         O           -1.536385308705     0.603684535325    -0.117115461654    15.994914619570
         O           -0.302252508705    -1.473906664675    -0.845371561654    15.994914619570
         O           -0.186571308705    -0.718760464675     1.575988538346    15.994914619570
         C            2.391570691295     0.337370535325     0.205965538346    12.000000000000
         C            1.003547691295     0.784673535325    -0.258723461654    12.000000000000
         C            2.867434691295    -0.928569464675    -0.505252461654    12.000000000000
         C            3.370429691295     1.490179535325    -0.018422461654    12.000000000000
         C           -2.829533308705    -0.076968464675    -0.118031461654    12.000000000000
         C           -3.872766308705     1.006266535325    -0.257789461654    12.000000000000
         H            2.327742691295     0.136990535325     1.282047538346     1.007825032230
         H            0.961476691295     0.926740535325    -1.343252461654     1.007825032230
         H            0.703898691295     1.714231535325     0.234265538346     1.007825032230
         H            2.898547691295    -0.769710464675    -1.588678461654     1.007825032230
         H            2.217267691295    -1.783926464675    -0.310928461654     1.007825032230
         H            3.877236691295    -1.185407464675    -0.171682461654     1.007825032230
         H            3.447513691295     1.730326535325    -1.084292461654     1.007825032230
         H            3.057669691295     2.393362535325     0.514708538346     1.007825032230
         H            4.367878691295     1.215456535325     0.336913538346     1.007825032230
         H           -2.848980308705    -0.783357464675    -0.951655461654     1.007825032230
         H           -2.938067308705    -0.625595464675     0.822449538346     1.007825032230
         H           -3.817152308705     1.701073535325     0.582315538346     1.007825032230
         H           -3.724051308705     1.561338535325    -1.186237461654     1.007825032230
         H           -4.869638308705     0.556457535325    -0.275730461654     1.007825032230

  Basis Set: AUG-CC-PVTZ
    Blend: AUG-CC-PVTZ
  Basis Set: (AUG-CC-PVTZ AUX)
    Blend: AUG-CC-PVTZ-JKFIT
	 Reference Energy          =    -857.6262181714556618 [Eh]
	 Singles Energy            =      -0.0000000000000000 [Eh]
	 Same-Spin Energy          =      -0.5253433121660587 [Eh]
	 Opposite-Spin Energy      =      -1.6809363008787623 [Eh]
	 Correlation Energy        =      -2.2062796130448210 [Eh]
	 Total Energy              =    -859.8324977845004469 [Eh]

	 ================> DF-SCS-MP2 Energies <==================
	-----------------------------------------------------------
	 SCS Same-Spin Scale       =       0.3333333333333333 [-]
	 SCS Opposite-Spin Scale   =       1.2000000000000000 [-]
	 SCS Same-Spin Energy      =      -0.1751144373886862 [Eh]
	 SCS Opposite-Spin Energy  =      -2.0171235610545146 [Eh]
	 SCS Correlation Energy    =      -2.1922379984432010 [Eh]
	 SCS Total Energy          =    -859.8184561698988091 [Eh]
	-----------------------------------------------------------

  Dipole Moment: [D]
     X:    -0.1342      Y:     2.6788      Z:    -1.0145     Total:     2.8676

*** Psi4 exiting successfully. Buy a developer a beer!
