                               Psi4 1.4a3.dev225

  ==> Input File <==

--------------------------------------------------------------------------
#psi4
#
memory 32 gb

molecule  {
0 1
  S       -0.2946600    -0.4360860     0.1655790
  O       -1.5657890     0.5673500    -0.1009940
  O       -0.3508230    -1.5212030    -0.8163730
  O       -0.2159750    -0.7550950     1.5921100
  C        2.3621670     0.3010360     0.2220870
  C        0.9741440     0.7483390    -0.2426020
  C        2.8380310    -0.9649040    -0.4891310
  C        3.3410260     1.4538450    -0.0023010
  C       -2.8589370    -0.1133030    -0.1019100
  C       -3.9021700     0.9699320    -0.2416680
  H        2.2983390     0.1006560     1.2981690
  H        0.9320730     0.8904060    -1.3271310
  H        0.6744950     1.6778970     0.2503870
  H        2.8691440    -0.8060450    -1.5725570
  H        2.1878640    -1.8202610    -0.2948070
  H        3.8478330    -1.2217420    -0.1555610
  H        3.4181100     1.6939920    -1.0681710
  H        3.0282660     2.3570280     0.5308300
  H        4.2472931     1.2042358     0.3205519
  H       -2.8783840    -0.8196920    -0.9355340
  H       -2.9674710    -0.6619300     0.8385710
  H       -3.8465560     1.6647390     0.5984370
  H       -3.7534550     1.5250040    -1.1701160
  H       -4.8990420     0.5201230    -0.2596090
units angstrom
no_reorient  #important for SAPT in psi4, default
symmetry c1  #important for SAPT in psi4, default
}

set PROPERTIES_ORIGIN ["COM"]
properties('MP2/aug-cc-pvtz', properties = ['dipole'])
--------------------------------------------------------------------------

    Molecular point group: c1
  Charge       = 0
  Multiplicity = 1
  Basis Set: AUG-CC-PVTZ
    Blend: AUG-CC-PVTZ
  Basis Set: (AUG-CC-PVTZ AUX)
    Blend: AUG-CC-PVTZ-JKFIT

    Orbital Energies [Eh]
    ---------------------

    Doubly Occupied:

       1A    -92.213311     2A    -20.614526     3A    -20.553312
       4A    -20.553176     5A    -11.301648     6A    -11.277412
       7A    -11.250734     8A    -11.232823     9A    -11.218685
      10A    -11.217164    11A     -9.177581    12A     -6.863037
      13A     -6.861584    14A     -6.861418    15A     -1.480660
      16A     -1.374728    17A     -1.337068    18A     -1.121464
      19A     -1.051727    20A     -0.999139    21A     -0.947894
      22A     -0.878028    23A     -0.831736    24A     -0.789083
      25A     -0.725495    26A     -0.692548    27A     -0.691311
      28A     -0.656404    29A     -0.635284    30A     -0.617446
      31A     -0.608893    32A     -0.589789    33A     -0.567859
      34A     -0.559794    35A     -0.554266    36A     -0.550510
      37A     -0.537946    38A     -0.509638    39A     -0.499752
      40A     -0.496859    41A     -0.491753    42A     -0.485054
      43A     -0.482287    44A     -0.463026    45A     -0.453564

  @DF-RHF Final Energy:  -857.62049889888942

   => Energetics <=

    Nuclear Repulsion Energy =            723.0769726596475948
    One-Electron Energy =               -2613.6401096195572791
    Two-Electron Energy =                1032.9426380610200340
    Total Energy =                       -857.6204988988895366
  Basis Set: (AUG-CC-PVTZ AUX)
    Blend: AUG-CC-PVTZ-RI
    Molecular point group: c1

    Geometry (in Angstrom), charge = 0, multiplicity = 1:

       Center              X                  Y                   Z               Mass
    ------------   -----------------  -----------------  -----------------  -----------------
         S           -0.262856865990    -0.398848074405     0.148414396147    31.972071174400
         O           -1.533985865990     0.604587925595    -0.118158603853    15.994914619570
         O           -0.319019865990    -1.483965074405    -0.833537603853    15.994914619570
         O           -0.184171865990    -0.717857074405     1.574945396147    15.994914619570
         C            2.393970134010     0.338273925595     0.204922396147    12.000000000000
         C            1.005947134010     0.785576925595    -0.259766603853    12.000000000000
         C            2.869834134010    -0.927666074405    -0.506295603853    12.000000000000
         C            3.372829134010     1.491082925595    -0.019465603853    12.000000000000
         C           -2.827133865990    -0.076065074405    -0.119074603853    12.000000000000
         C           -3.870366865990     1.007169925595    -0.258832603853    12.000000000000
         H            2.330142134010     0.137893925595     1.281004396147     1.007825032230
         H            0.963876134010     0.927643925595    -1.344295603853     1.007825032230
         H            0.706298134010     1.715134925595     0.233222396147     1.007825032230
         H            2.900947134010    -0.768807074405    -1.589721603853     1.007825032230
         H            2.219667134010    -1.783023074405    -0.311971603853     1.007825032230
         H            3.879636134010    -1.184504074405    -0.172725603853     1.007825032230
         H            3.449913134010     1.731229925595    -1.085335603853     1.007825032230
         H            3.060069134010     2.394265925595     0.513665396147     1.007825032230
         H            4.279096234010     1.241473725595     0.303387296147     1.007825032230
         H           -2.846580865990    -0.782454074405    -0.952698603853     1.007825032230
         H           -2.935667865990    -0.624692074405     0.821406396147     1.007825032230
         H           -3.814752865990     1.701976925595     0.581272396147     1.007825032230
         H           -3.721651865990     1.562241925595    -1.187280603853     1.007825032230
         H           -4.867238865990     0.557360925595    -0.276773603853     1.007825032230

  Basis Set: AUG-CC-PVTZ
    Blend: AUG-CC-PVTZ
  Basis Set: (AUG-CC-PVTZ AUX)
    Blend: AUG-CC-PVTZ-JKFIT
	 Reference Energy          =    -857.6204988988894229 [Eh]
	 Singles Energy            =      -0.0000000000000000 [Eh]
	 Same-Spin Energy          =      -0.5252972563297569 [Eh]
	 Opposite-Spin Energy      =      -1.6802910600777035 [Eh]
	 Correlation Energy        =      -2.2055883164074603 [Eh]
	 Total Energy              =    -859.8260872152968659 [Eh]

	 ================> DF-SCS-MP2 Energies <==================
	-----------------------------------------------------------
	 SCS Same-Spin Scale       =       0.3333333333333333 [-]
	 SCS Opposite-Spin Scale   =       1.2000000000000000 [-]
	 SCS Same-Spin Energy      =      -0.1750990854432523 [Eh]
	 SCS Opposite-Spin Energy  =      -2.0163492720932439 [Eh]
	 SCS Correlation Energy    =      -2.1914483575364962 [Eh]
	 SCS Total Energy          =    -859.8119472564259240 [Eh]
	-----------------------------------------------------------

  Dipole Moment: [D]
     X:    -0.0032      Y:     2.7139      Z:    -1.0338     Total:     2.9041

*** Psi4 exiting successfully. Buy a developer a beer!
