                               Psi4 1.4a3.dev225

  ==> Input File <==

--------------------------------------------------------------------------
#psi4
#
memory 32 gb

molecule  {
0 1
  S       -0.2946600    -0.4360860     0.1655790
  O       -1.5657890     0.5673500    -0.1009940
  O       -0.3508230    -1.5212030    -0.8163730
  O       -0.2159750    -0.7550950     1.5921100
  C        2.3621670     0.3010360     0.2220870
  C        0.9741440     0.7483390    -0.2426020
  C        2.8380310    -0.9649040    -0.4891310
  C        3.3410260     1.4538450    -0.0023010
  C       -2.8589370    -0.1133030    -0.1019100
  C       -3.9021700     0.9699320    -0.2416680
  H        2.2983390     0.1006560     1.2981690
  H        0.9320730     0.8904060    -1.3271310
  H        0.6744950     1.6778970     0.2503870
  H        2.8691440    -0.8060450    -1.5725570
  H        2.1878640    -1.8202610    -0.2948070
  H        3.8478330    -1.2217420    -0.1555610
  H        3.4181100     1.6939920    -1.0681710
  H        3.0282660     2.3570280     0.5308300
  H        4.3384750     1.1791220     0.3530350
  H       -2.8783840    -0.8196920    -0.9355340
  H       -2.9674710    -0.6619300     0.8385710
  H       -3.8465560     1.6647390     0.5984370
  H       -3.7534550     1.5250040    -1.1701160
  H       -4.8534729     0.5406847    -0.2587889
units angstrom
no_reorient  #important for SAPT in psi4, default
symmetry c1  #important for SAPT in psi4, default
}

set PROPERTIES_ORIGIN ["COM"]
properties('MP2/aug-cc-pvtz', properties = ['dipole'])
--------------------------------------------------------------------------

    Molecular point group: c1
  Charge       = 0
  Multiplicity = 1
  Basis Set: AUG-CC-PVTZ
    Blend: AUG-CC-PVTZ
  Basis Set: (AUG-CC-PVTZ AUX)
    Blend: AUG-CC-PVTZ-JKFIT

    Orbital Energies [Eh]
    ---------------------

    Doubly Occupied:

       1A    -92.213607     2A    -20.614608     3A    -20.553505
       4A    -20.553361     5A    -11.301542     6A    -11.277966
       7A    -11.251375     8A    -11.229433     9A    -11.226884
      10A    -11.218523    11A     -9.177860    12A     -6.863313
      13A     -6.861872    14A     -6.861698    15A     -1.480808
      16A     -1.374804    17A     -1.337251    18A     -1.120819
      19A     -1.053230    20A     -0.997605    21A     -0.942248
      22A     -0.879849    23A     -0.830909    24A     -0.787975
      25A     -0.725681    26A     -0.692626    27A     -0.690510
      28A     -0.656597    29A     -0.634912    30A     -0.616185
      31A     -0.607413    32A     -0.587503    33A     -0.571518
      34A     -0.558627    35A     -0.557062    36A     -0.543894
      37A     -0.537858    38A     -0.509899    39A     -0.499822
      40A     -0.496706    41A     -0.490375    42A     -0.485278
      43A     -0.482450    44A     -0.463148    45A     -0.453634

  @DF-RHF Final Energy:  -857.62548532261155

   => Energetics <=

    Nuclear Repulsion Energy =            722.8183018995804332
    One-Electron Energy =               -2613.1420893376143795
    Two-Electron Energy =                1032.6983021154221660
    Total Energy =                       -857.6254853226116666
  Basis Set: (AUG-CC-PVTZ AUX)
    Blend: AUG-CC-PVTZ-RI
    Molecular point group: c1

    Geometry (in Angstrom), charge = 0, multiplicity = 1:

       Center              X                  Y                   Z               Mass
    ------------   -----------------  -----------------  -----------------  -----------------
         S           -0.263686781672    -0.398820448580     0.148212285391    31.972071174400
         O           -1.534815781672     0.604615551420    -0.118360714609    15.994914619570
         O           -0.319849781672    -1.483937448580    -0.833739714609    15.994914619570
         O           -0.185001781672    -0.717829448580     1.574743285391    15.994914619570
         C            2.393140218328     0.338301551420     0.204720285391    12.000000000000
         C            1.005117218328     0.785604551420    -0.259968714609    12.000000000000
         C            2.869004218328    -0.927638448580    -0.506497714609    12.000000000000
         C            3.371999218328     1.491110551420    -0.019667714609    12.000000000000
         C           -2.827963781672    -0.076037448580    -0.119276714609    12.000000000000
         C           -3.871196781672     1.007197551420    -0.259034714609    12.000000000000
         H            2.329312218328     0.137921551420     1.280802285391     1.007825032230
         H            0.963046218328     0.927671551420    -1.344497714609     1.007825032230
         H            0.705468218328     1.715162551420     0.233020285391     1.007825032230
         H            2.900117218328    -0.768779448580    -1.589923714609     1.007825032230
         H            2.218837218328    -1.782995448580    -0.312173714609     1.007825032230
         H            3.878806218328    -1.184476448580    -0.172927714609     1.007825032230
         H            3.449083218328     1.731257551420    -1.085537714609     1.007825032230
         H            3.059239218328     2.394293551420     0.513463285391     1.007825032230
         H            4.369448218328     1.216387551420     0.335668285391     1.007825032230
         H           -2.847410781672    -0.782426448580    -0.952900714609     1.007825032230
         H           -2.936497781672    -0.624664448580     0.821204285391     1.007825032230
         H           -3.815582781672     1.702004551420     0.581070285391     1.007825032230
         H           -3.722481781672     1.562269551420    -1.187482714609     1.007825032230
         H           -4.822499681672     0.577950251420    -0.276155614609     1.007825032230

  Basis Set: AUG-CC-PVTZ
    Blend: AUG-CC-PVTZ
  Basis Set: (AUG-CC-PVTZ AUX)
    Blend: AUG-CC-PVTZ-JKFIT
	 Reference Energy          =    -857.6254853226115529 [Eh]
	 Singles Energy            =      -0.0000000000000000 [Eh]
	 Same-Spin Energy          =      -0.5253188470235532 [Eh]
	 Opposite-Spin Energy      =      -1.6805549476716635 [Eh]
	 Correlation Energy        =      -2.2058737946952167 [Eh]
	 Total Energy              =    -859.8313591173067607 [Eh]

	 ================> DF-SCS-MP2 Energies <==================
	-----------------------------------------------------------
	 SCS Same-Spin Scale       =       0.3333333333333333 [-]
	 SCS Opposite-Spin Scale   =       1.2000000000000000 [-]
	 SCS Same-Spin Energy      =      -0.1751062823411844 [Eh]
	 SCS Opposite-Spin Energy  =      -2.0166659372059961 [Eh]
	 SCS Correlation Energy    =      -2.1917722195471803 [Eh]
	 SCS Total Energy          =    -859.8172575421586998 [Eh]
	-----------------------------------------------------------

  Dipole Moment: [D]
     X:    -0.0918      Y:     2.7052      Z:    -1.0454     Total:     2.9016

*** Psi4 exiting successfully. Buy a developer a beer!
