                               Psi4 1.4a3.dev225

  ==> Input File <==

--------------------------------------------------------------------------
#psi4
#
memory 32 gb

molecule  {
0 1
  S       -0.2946600    -0.4360860     0.1655790
  O       -1.5657890     0.5673500    -0.1009940
  O       -0.3508230    -1.5212030    -0.8163730
  O       -0.2159750    -0.7550950     1.5921100
  C        2.3621670     0.3010360     0.2220870
  C        0.9741440     0.7483390    -0.2426020
  C        2.8380310    -0.9649040    -0.4891310
  C        3.3410260     1.4538450    -0.0023010
  C       -2.8589370    -0.1133030    -0.1019100
  C       -3.9021700     0.9699320    -0.2416680
  H        2.2983390     0.1006560     1.2981690
  H        0.9320730     0.8904060    -1.3271310
  H        0.6744950     1.6778970     0.2503870
  H        2.8691440    -0.8060450    -1.5725570
  H        2.1878640    -1.8202610    -0.2948070
  H        3.8478330    -1.2217420    -0.1555610
  H        3.4181100     1.6939920    -1.0681710
  H        3.0282660     2.3570280     0.5308300
  H        4.3384750     1.1791220     0.3530350
  H       -2.8783840    -0.8196920    -0.9355340
  H       -2.9674710    -0.6619300     0.8385710
  H       -3.8825908     1.6559878     0.6071961
  H       -3.7534550     1.5250040    -1.1701160
  H       -4.8990420     0.5201230    -0.2596090
units angstrom
no_reorient  #important for SAPT in psi4, default
symmetry c1  #important for SAPT in psi4, default
}

set PROPERTIES_ORIGIN ["COM"]
properties('MP2/aug-cc-pvtz', properties = ['dipole'])
--------------------------------------------------------------------------

    Molecular point group: c1
  Charge       = 0
  Multiplicity = 1
  Basis Set: AUG-CC-PVTZ
    Blend: AUG-CC-PVTZ
  Basis Set: (AUG-CC-PVTZ AUX)
    Blend: AUG-CC-PVTZ-JKFIT

    Orbital Energies [Eh]
    ---------------------

    Doubly Occupied:

       1A    -92.213791     2A    -20.614833     3A    -20.553676
       4A    -20.553512     5A    -11.302184     6A    -11.278089
       7A    -11.251465     8A    -11.233041     9A    -11.229504
      10A    -11.218599    11A     -9.178041    12A     -6.863496
      13A     -6.862052    14A     -6.861877    15A     -1.481005
      16A     -1.375035    17A     -1.337406    18A     -1.120907
      19A     -1.051399    20A     -0.996717    21A     -0.942323
      22A     -0.877370    23A     -0.830757    24A     -0.788020
      25A     -0.725228    26A     -0.692829    27A     -0.690642
      28A     -0.656867    29A     -0.635069    30A     -0.616232
      31A     -0.606359    32A     -0.586489    33A     -0.568660
      34A     -0.559094    35A     -0.553169    36A     -0.543316
      37A     -0.536883    38A     -0.510135    39A     -0.500567
      40A     -0.496919    41A     -0.490510    42A     -0.485364
      43A     -0.482581    44A     -0.463297    45A     -0.453617

  @DF-RHF Final Energy:  -857.62640047608375

   => Energetics <=

    Nuclear Repulsion Energy =            722.5128868112446980
    One-Electron Energy =               -2612.5407265787125652
    Two-Electron Energy =                1032.4014392913841220
    Total Energy =                       -857.6264004760837452
  Basis Set: (AUG-CC-PVTZ AUX)
    Blend: AUG-CC-PVTZ-RI
    Molecular point group: c1

    Geometry (in Angstrom), charge = 0, multiplicity = 1:

       Center              X                  Y                   Z               Mass
    ------------   -----------------  -----------------  -----------------  -----------------
         S           -0.263191543200    -0.398642554193     0.148164105117    31.972071174400
         O           -1.534320543200     0.604793445807    -0.118408894883    15.994914619570
         O           -0.319354543200    -1.483759554193    -0.833787894883    15.994914619570
         O           -0.184506543200    -0.717651554193     1.574695105117    15.994914619570
         C            2.393635456800     0.338479445807     0.204672105117    12.000000000000
         C            1.005612456800     0.785782445807    -0.260016894883    12.000000000000
         C            2.869499456800    -0.927460554193    -0.506545894883    12.000000000000
         C            3.372494456800     1.491288445807    -0.019715894883    12.000000000000
         C           -2.827468543200    -0.075859554193    -0.119324894883    12.000000000000
         C           -3.870701543200     1.007375445807    -0.259082894883    12.000000000000
         H            2.329807456800     0.138099445807     1.280754105117     1.007825032230
         H            0.963541456800     0.927849445807    -1.344545894883     1.007825032230
         H            0.705963456800     1.715340445807     0.232972105117     1.007825032230
         H            2.900612456800    -0.768601554193    -1.589971894883     1.007825032230
         H            2.219332456800    -1.782817554193    -0.312221894883     1.007825032230
         H            3.879301456800    -1.184298554193    -0.172975894883     1.007825032230
         H            3.449578456800     1.731435445807    -1.085585894883     1.007825032230
         H            3.059734456800     2.394471445807     0.513415105117     1.007825032230
         H            4.369943456800     1.216565445807     0.335620105117     1.007825032230
         H           -2.846915543200    -0.782248554193    -0.952948894883     1.007825032230
         H           -2.936002543200    -0.624486554193     0.821156105117     1.007825032230
         H           -3.851122343200     1.693431245807     0.589781205117     1.007825032230
         H           -3.721986543200     1.562447445807    -1.187530894883     1.007825032230
         H           -4.867573543200     0.557566445807    -0.277023894883     1.007825032230

  Basis Set: AUG-CC-PVTZ
    Blend: AUG-CC-PVTZ
  Basis Set: (AUG-CC-PVTZ AUX)
    Blend: AUG-CC-PVTZ-JKFIT
	 Reference Energy          =    -857.6264004760837452 [Eh]
	 Singles Energy            =      -0.0000000000000000 [Eh]
	 Same-Spin Energy          =      -0.5252882907344235 [Eh]
	 Opposite-Spin Energy      =      -1.6807888242445603 [Eh]
	 Correlation Energy        =      -2.2060771149789837 [Eh]
	 Total Energy              =    -859.8324775910626840 [Eh]

	 ================> DF-SCS-MP2 Energies <==================
	-----------------------------------------------------------
	 SCS Same-Spin Scale       =       0.3333333333333333 [-]
	 SCS Opposite-Spin Scale   =       1.2000000000000000 [-]
	 SCS Same-Spin Energy      =      -0.1750960969114745 [Eh]
	 SCS Opposite-Spin Energy  =      -2.0169465890934721 [Eh]
	 SCS Correlation Energy    =      -2.1920426860049465 [Eh]
	 SCS Total Energy          =    -859.8184431620886699 [Eh]
	-----------------------------------------------------------

  Dipole Moment: [D]
     X:    -0.0785      Y:     2.7080      Z:    -1.0380     Total:     2.9012

*** Psi4 exiting successfully. Buy a developer a beer!
