                               Psi4 1.4a3.dev225

  ==> Input File <==

--------------------------------------------------------------------------
#psi4
#
memory 32 gb

molecule  {
0 1
  S       -0.2946600    -0.4360860     0.1655790
  O       -1.5657890     0.5673500    -0.1009940
  O       -0.3508230    -1.5212030    -0.8163730
  O       -0.2159750    -0.7550950     1.5921100
  C        2.3527806     0.2169308     0.1568854
  C        0.9741440     0.7483390    -0.2426020
  C        2.8380310    -0.9649040    -0.4891310
  C        3.3410260     1.4538450    -0.0023010
  C       -2.8589370    -0.1133030    -0.1019100
  C       -3.9021700     0.9699320    -0.2416680
  H        2.2983390     0.1006560     1.2981690
  H        0.9320730     0.8904060    -1.3271310
  H        0.6744950     1.6778970     0.2503870
  H        2.8691440    -0.8060450    -1.5725570
  H        2.1878640    -1.8202610    -0.2948070
  H        3.8478330    -1.2217420    -0.1555610
  H        3.4181100     1.6939920    -1.0681710
  H        3.0282660     2.3570280     0.5308300
  H        4.3384750     1.1791220     0.3530350
  H       -2.8783840    -0.8196920    -0.9355340
  H       -2.9674710    -0.6619300     0.8385710
  H       -3.8465560     1.6647390     0.5984370
  H       -3.7534550     1.5250040    -1.1701160
  H       -4.8990420     0.5201230    -0.2596090
units angstrom
no_reorient  #important for SAPT in psi4, default
symmetry c1  #important for SAPT in psi4, default
}

set PROPERTIES_ORIGIN ["COM"]
properties('MP2/aug-cc-pvtz', properties = ['dipole'])
--------------------------------------------------------------------------

    Molecular point group: c1
  Charge       = 0
  Multiplicity = 1
  Basis Set: AUG-CC-PVTZ
    Blend: AUG-CC-PVTZ
  Basis Set: (AUG-CC-PVTZ AUX)
    Blend: AUG-CC-PVTZ-JKFIT

    Orbital Energies [Eh]
    ---------------------

    Doubly Occupied:

       1A    -92.212665     2A    -20.614276     3A    -20.553703
       4A    -20.553261     5A    -11.301599     6A    -11.279818
       7A    -11.254906     8A    -11.232835     9A    -11.231561
      10A    -11.216089    11A     -9.177103    12A     -6.862568
      13A     -6.861062    14A     -6.860907    15A     -1.480741
      16A     -1.374750    17A     -1.337246    18A     -1.125389
      19A     -1.052215    20A     -1.000393    21A     -0.946478
      22A     -0.876656    23A     -0.829610    24A     -0.781551
      25A     -0.725151    26A     -0.693020    27A     -0.690034
      28A     -0.659331    29A     -0.636001    30A     -0.620575
      31A     -0.605929    32A     -0.587666    33A     -0.566188
      34A     -0.557657    35A     -0.556273    36A     -0.546086
      37A     -0.537391    38A     -0.520472    39A     -0.505193
      40A     -0.498379    41A     -0.495411    42A     -0.484105
      43A     -0.465736    44A     -0.462577    45A     -0.442073

  @DF-RHF Final Energy:  -857.61345116421319

   => Energetics <=

    Nuclear Repulsion Energy =            723.2680781021720122
    One-Electron Energy =               -2614.0177971494140365
    Two-Electron Energy =                1033.1362678830287223
    Total Energy =                       -857.6134511642133020
  Basis Set: (AUG-CC-PVTZ AUX)
    Blend: AUG-CC-PVTZ-RI
    Molecular point group: c1

    Geometry (in Angstrom), charge = 0, multiplicity = 1:

       Center              X                  Y                   Z               Mass
    ------------   -----------------  -----------------  -----------------  -----------------
         S           -0.262731967738    -0.392618199299     0.152928747482    31.972071174400
         O           -1.533860967738     0.610817800701    -0.113644252518    15.994914619570
         O           -0.318894967738    -1.477735199299    -0.829023252518    15.994914619570
         O           -0.184046967738    -0.711627199299     1.579459747482    15.994914619570
         C            2.384708632262     0.260398600701     0.144235147482    12.000000000000
         C            1.006072032262     0.791806800701    -0.255252252518    12.000000000000
         C            2.869959032262    -0.921436199299    -0.501781252518    12.000000000000
         C            3.372954032262     1.497312800701    -0.014951252518    12.000000000000
         C           -2.827008967738    -0.069835199299    -0.114560252518    12.000000000000
         C           -3.870241967738     1.013399800701    -0.254318252518    12.000000000000
         H            2.330267032262     0.144123800701     1.285518747482     1.007825032230
         H            0.964001032262     0.933873800701    -1.339781252518     1.007825032230
         H            0.706423032262     1.721364800701     0.237736747482     1.007825032230
         H            2.901072032262    -0.762577199299    -1.585207252518     1.007825032230
         H            2.219792032262    -1.776793199299    -0.307457252518     1.007825032230
         H            3.879761032262    -1.178274199299    -0.168211252518     1.007825032230
         H            3.450038032262     1.737459800701    -1.080821252518     1.007825032230
         H            3.060194032262     2.400495800701     0.518179747482     1.007825032230
         H            4.370403032262     1.222589800701     0.340384747482     1.007825032230
         H           -2.846455967738    -0.776224199299    -0.948184252518     1.007825032230
         H           -2.935542967738    -0.618462199299     0.825920747482     1.007825032230
         H           -3.814627967738     1.708206800701     0.585786747482     1.007825032230
         H           -3.721526967738     1.568471800701    -1.182766252518     1.007825032230
         H           -4.867113967738     0.563590800701    -0.272259252518     1.007825032230

  Basis Set: AUG-CC-PVTZ
    Blend: AUG-CC-PVTZ
  Basis Set: (AUG-CC-PVTZ AUX)
    Blend: AUG-CC-PVTZ-JKFIT
	 Reference Energy          =    -857.6134511642131883 [Eh]
	 Singles Energy            =      -0.0000000000000000 [Eh]
	 Same-Spin Energy          =      -0.5262027422854860 [Eh]
	 Opposite-Spin Energy      =      -1.6821568957772957 [Eh]
	 Correlation Energy        =      -2.2083596380627819 [Eh]
	 Total Energy              =    -859.8218108022759907 [Eh]

	 ================> DF-SCS-MP2 Energies <==================
	-----------------------------------------------------------
	 SCS Same-Spin Scale       =       0.3333333333333333 [-]
	 SCS Opposite-Spin Scale   =       1.2000000000000000 [-]
	 SCS Same-Spin Energy      =      -0.1754009140951620 [Eh]
	 SCS Opposite-Spin Energy  =      -2.0185882749327546 [Eh]
	 SCS Correlation Energy    =      -2.1939891890279166 [Eh]
	 SCS Total Energy          =    -859.8074403532410770 [Eh]
	-----------------------------------------------------------

  Dipole Moment: [D]
     X:    -0.0389      Y:     2.6524      Z:    -1.0711     Total:     2.8608

*** Psi4 exiting successfully. Buy a developer a beer!
