                               Psi4 1.4a3.dev225

  ==> Input File <==

--------------------------------------------------------------------------
#psi4
#
memory 32 gb

molecule  {
0 1
  S       -0.2946600    -0.4360860     0.1655790
  O       -1.5657890     0.5673500    -0.1009940
  O       -0.3508230    -1.5212030    -0.8163730
  O       -0.2105999    -0.7768870     1.6895585
  C        2.3621670     0.3010360     0.2220870
  C        0.9741440     0.7483390    -0.2426020
  C        2.8380310    -0.9649040    -0.4891310
  C        3.3410260     1.4538450    -0.0023010
  C       -2.8589370    -0.1133030    -0.1019100
  C       -3.9021700     0.9699320    -0.2416680
  H        2.2983390     0.1006560     1.2981690
  H        0.9320730     0.8904060    -1.3271310
  H        0.6744950     1.6778970     0.2503870
  H        2.8691440    -0.8060450    -1.5725570
  H        2.1878640    -1.8202610    -0.2948070
  H        3.8478330    -1.2217420    -0.1555610
  H        3.4181100     1.6939920    -1.0681710
  H        3.0282660     2.3570280     0.5308300
  H        4.3384750     1.1791220     0.3530350
  H       -2.8783840    -0.8196920    -0.9355340
  H       -2.9674710    -0.6619300     0.8385710
  H       -3.8465560     1.6647390     0.5984370
  H       -3.7534550     1.5250040    -1.1701160
  H       -4.8990420     0.5201230    -0.2596090
units angstrom
no_reorient  #important for SAPT in psi4, default
symmetry c1  #important for SAPT in psi4, default
}

set PROPERTIES_ORIGIN ["COM"]
properties('MP2/aug-cc-pvtz', properties = ['dipole'])
--------------------------------------------------------------------------

    Molecular point group: c1
  Charge       = 0
  Multiplicity = 1
  Basis Set: AUG-CC-PVTZ
    Blend: AUG-CC-PVTZ
  Basis Set: (AUG-CC-PVTZ AUX)
    Blend: AUG-CC-PVTZ-JKFIT

    Orbital Energies [Eh]
    ---------------------

    Doubly Occupied:

       1A    -92.219981     2A    -20.621714     3A    -20.561276
       4A    -20.551620     5A    -11.304185     6A    -11.283546
       7A    -11.252690     8A    -11.234706     9A    -11.230640
      10A    -11.219646    11A     -9.183680    12A     -6.868982
      13A     -6.867634    14A     -6.866845    15A     -1.470464
      16A     -1.372628    17A     -1.303125    18A     -1.123329
      19A     -1.054455    20A     -0.999977    21A     -0.943451
      22A     -0.880363    23A     -0.835490    24A     -0.790733
      25A     -0.722760    26A     -0.695093    27A     -0.687410
      28A     -0.656872    29A     -0.631311    30A     -0.616213
      31A     -0.606629    32A     -0.585619    33A     -0.565434
      34A     -0.556577    35A     -0.555226    36A     -0.543924
      37A     -0.537038    38A     -0.511490    39A     -0.497407
      40A     -0.495604    41A     -0.490637    42A     -0.484749
      43A     -0.472975    44A     -0.457638    45A     -0.454010

  @DF-RHF Final Energy:  -857.60710281801494

   => Energetics <=

    Nuclear Repulsion Energy =            717.8142323143501926
    One-Electron Energy =               -2603.1111166372370462
    Two-Electron Energy =                1027.6897815048719167
    Total Energy =                       -857.6071028180149369
  Basis Set: (AUG-CC-PVTZ AUX)
    Blend: AUG-CC-PVTZ-RI
    Molecular point group: c1

    Geometry (in Angstrom), charge = 0, multiplicity = 1:

       Center              X                  Y                   Z               Mass
    ------------   -----------------  -----------------  -----------------  -----------------
         S           -0.263927941800    -0.396596736546     0.138831373637    31.972071174400
         O           -1.535056941800     0.606839263454    -0.127741626363    15.994914619570
         O           -0.320090941800    -1.481713736546    -0.843120626363    15.994914619570
         O           -0.179867841800    -0.737397736546     1.662810873637    15.994914619570
         C            2.392899058200     0.340525263454     0.195339373637    12.000000000000
         C            1.004876058200     0.787828263454    -0.269349626363    12.000000000000
         C            2.868763058200    -0.925414736546    -0.515878626363    12.000000000000
         C            3.371758058200     1.493334263454    -0.029048626363    12.000000000000
         C           -2.828204941800    -0.073813736546    -0.128657626363    12.000000000000
         C           -3.871437941800     1.009421263454    -0.268415626363    12.000000000000
         H            2.329071058200     0.140145263454     1.271421373637     1.007825032230
         H            0.962805058200     0.929895263454    -1.353878626363     1.007825032230
         H            0.705227058200     1.717386263454     0.223639373637     1.007825032230
         H            2.899876058200    -0.766555736546    -1.599304626363     1.007825032230
         H            2.218596058200    -1.780771736546    -0.321554626363     1.007825032230
         H            3.878565058200    -1.182252736546    -0.182308626363     1.007825032230
         H            3.448842058200     1.733481263454    -1.094918626363     1.007825032230
         H            3.058998058200     2.396517263454     0.504082373637     1.007825032230
         H            4.369207058200     1.218611263454     0.326287373637     1.007825032230
         H           -2.847651941800    -0.780202736546    -0.962281626363     1.007825032230
         H           -2.936738941800    -0.622440736546     0.811823373637     1.007825032230
         H           -3.815823941800     1.704228263454     0.571689373637     1.007825032230
         H           -3.722722941800     1.564493263454    -1.196863626363     1.007825032230
         H           -4.868309941800     0.559612263454    -0.286356626363     1.007825032230

  Basis Set: AUG-CC-PVTZ
    Blend: AUG-CC-PVTZ
  Basis Set: (AUG-CC-PVTZ AUX)
    Blend: AUG-CC-PVTZ-JKFIT
	 Reference Energy          =    -857.6071028180149369 [Eh]
	 Singles Energy            =      -0.0000000000000000 [Eh]
	 Same-Spin Energy          =      -0.5271521802307109 [Eh]
	 Opposite-Spin Energy      =      -1.6858750382160566 [Eh]
	 Correlation Energy        =      -2.2130272184467676 [Eh]
	 Total Energy              =    -859.8201300364617055 [Eh]

	 ================> DF-SCS-MP2 Energies <==================
	-----------------------------------------------------------
	 SCS Same-Spin Scale       =       0.3333333333333333 [-]
	 SCS Opposite-Spin Scale   =       1.2000000000000000 [-]
	 SCS Same-Spin Energy      =      -0.1757173934102370 [Eh]
	 SCS Opposite-Spin Energy  =      -2.0230500458592680 [Eh]
	 SCS Correlation Energy    =      -2.1987674392695049 [Eh]
	 SCS Total Energy          =    -859.8058702572844822 [Eh]
	-----------------------------------------------------------

  Dipole Moment: [D]
     X:    -0.1023      Y:     2.8487      Z:    -1.5415     Total:     3.2406

*** Psi4 exiting successfully. Buy a developer a beer!
