                               Psi4 1.4a3.dev225

  ==> Input File <==

--------------------------------------------------------------------------
#psi4
#
memory 32 gb

molecule  {
0 1
  S       -0.2946600    -0.4360860     0.1655790
  O       -1.5657890     0.5673500    -0.1009940
  O       -0.3508230    -1.5212030    -0.8163730
  O       -0.2149000    -0.7594534     1.6115997
  C        2.3621670     0.3010360     0.2220870
  C        0.9741440     0.7483390    -0.2426020
  C        2.8380310    -0.9649040    -0.4891310
  C        3.3410260     1.4538450    -0.0023010
  C       -2.8589370    -0.1133030    -0.1019100
  C       -3.9021700     0.9699320    -0.2416680
  H        2.2983390     0.1006560     1.2981690
  H        0.9320730     0.8904060    -1.3271310
  H        0.6744950     1.6778970     0.2503870
  H        2.8691440    -0.8060450    -1.5725570
  H        2.1878640    -1.8202610    -0.2948070
  H        3.8478330    -1.2217420    -0.1555610
  H        3.4181100     1.6939920    -1.0681710
  H        3.0282660     2.3570280     0.5308300
  H        4.3384750     1.1791220     0.3530350
  H       -2.8783840    -0.8196920    -0.9355340
  H       -2.9674710    -0.6619300     0.8385710
  H       -3.8465560     1.6647390     0.5984370
  H       -3.7534550     1.5250040    -1.1701160
  H       -4.8990420     0.5201230    -0.2596090
units angstrom
no_reorient  #important for SAPT in psi4, default
symmetry c1  #important for SAPT in psi4, default
}

set PROPERTIES_ORIGIN ["COM"]
properties('MP2/aug-cc-pvtz', properties = ['dipole'])
--------------------------------------------------------------------------

    Molecular point group: c1
  Charge       = 0
  Multiplicity = 1
  Basis Set: AUG-CC-PVTZ
    Blend: AUG-CC-PVTZ
  Basis Set: (AUG-CC-PVTZ AUX)
    Blend: AUG-CC-PVTZ-JKFIT

    Orbital Energies [Eh]
    ---------------------

    Doubly Occupied:

       1A    -92.215535     2A    -20.616373     3A    -20.555345
       4A    -20.553063     5A    -11.302396     6A    -11.279313
       7A    -11.251740     8A    -11.233390     9A    -11.229763
      10A    -11.218829    11A     -9.179509    12A     -6.864958
      13A     -6.863529    14A     -6.863197    15A     -1.477773
      16A     -1.373640    17A     -1.331993    18A     -1.121440
      19A     -1.052140    20A     -0.997410    21A     -0.942575
      22A     -0.877718    23A     -0.831745    24A     -0.788601
      25A     -0.724481    26A     -0.693254    27A     -0.689747
      28A     -0.656700    29A     -0.634127    30A     -0.616194
      31A     -0.606624    32A     -0.586478    33A     -0.566653
      34A     -0.558308    35A     -0.554946    36A     -0.543671
      37A     -0.537247    38A     -0.510285    39A     -0.499453
      40A     -0.496575    41A     -0.490721    42A     -0.484452
      43A     -0.481466    44A     -0.462473    45A     -0.453988

  @DF-RHF Final Energy:  -857.62376749235318

   => Energetics <=

    Nuclear Repulsion Energy =            721.5875790802335814
    One-Electron Energy =               -2610.6830630073327484
    Two-Electron Energy =                1031.4717164347459857
    Total Energy =                       -857.6237674923531813
  Basis Set: (AUG-CC-PVTZ AUX)
    Blend: AUG-CC-PVTZ-RI
    Molecular point group: c1

    Geometry (in Angstrom), charge = 0, multiplicity = 1:

       Center              X                  Y                   Z               Mass
    ------------   -----------------  -----------------  -----------------  -----------------
         S           -0.263513771644    -0.398275878151     0.146340084664    31.972071174400
         O           -1.534642771644     0.605160121849    -0.120232915336    15.994914619570
         O           -0.319676771644    -1.483392878151    -0.835611915336    15.994914619570
         O           -0.183753771644    -0.721643278151     1.592360784664    15.994914619570
         C            2.393313228356     0.338846121849     0.202848084664    12.000000000000
         C            1.005290228356     0.786149121849    -0.261840915336    12.000000000000
         C            2.869177228356    -0.927093878151    -0.508369915336    12.000000000000
         C            3.372172228356     1.491655121849    -0.021539915336    12.000000000000
         C           -2.827790771644    -0.075492878151    -0.121148915336    12.000000000000
         C           -3.871023771644     1.007742121849    -0.260906915336    12.000000000000
         H            2.329485228356     0.138466121849     1.278930084664     1.007825032230
         H            0.963219228356     0.928216121849    -1.346369915336     1.007825032230
         H            0.705641228356     1.715707121849     0.231148084664     1.007825032230
         H            2.900290228356    -0.768234878151    -1.591795915336     1.007825032230
         H            2.219010228356    -1.782450878151    -0.314045915336     1.007825032230
         H            3.878979228356    -1.183931878151    -0.174799915336     1.007825032230
         H            3.449256228356     1.731802121849    -1.087409915336     1.007825032230
         H            3.059412228356     2.394838121849     0.511591084664     1.007825032230
         H            4.369621228356     1.216932121849     0.333796084664     1.007825032230
         H           -2.847237771644    -0.781881878151    -0.954772915336     1.007825032230
         H           -2.936324771644    -0.624119878151     0.819332084664     1.007825032230
         H           -3.815409771644     1.702549121849     0.579198084664     1.007825032230
         H           -3.722308771644     1.562814121849    -1.189354915336     1.007825032230
         H           -4.867895771644     0.557933121849    -0.278847915336     1.007825032230

  Basis Set: AUG-CC-PVTZ
    Blend: AUG-CC-PVTZ
  Basis Set: (AUG-CC-PVTZ AUX)
    Blend: AUG-CC-PVTZ-JKFIT
	 Reference Energy          =    -857.6237674923531813 [Eh]
	 Singles Energy            =      -0.0000000000000000 [Eh]
	 Same-Spin Energy          =      -0.5257319404990428 [Eh]
	 Opposite-Spin Energy      =      -1.6819121262689034 [Eh]
	 Correlation Energy        =      -2.2076440667679460 [Eh]
	 Total Energy              =    -859.8314115591210793 [Eh]

	 ================> DF-SCS-MP2 Energies <==================
	-----------------------------------------------------------
	 SCS Same-Spin Scale       =       0.3333333333333333 [-]
	 SCS Opposite-Spin Scale   =       1.2000000000000000 [-]
	 SCS Same-Spin Energy      =      -0.1752439801663476 [Eh]
	 SCS Opposite-Spin Energy  =      -2.0182945515226840 [Eh]
	 SCS Correlation Energy    =      -2.1935385316890317 [Eh]
	 SCS Total Energy          =    -859.8173060240421819 [Eh]
	-----------------------------------------------------------

  Dipole Moment: [D]
     X:    -0.0731      Y:     2.7369      Z:    -1.1426     Total:     2.9667

*** Psi4 exiting successfully. Buy a developer a beer!
