                               Psi4 1.4a3.dev225

  ==> Input File <==

--------------------------------------------------------------------------
#psi4
#
memory 32 gb

molecule  {
0 1
  S       -0.2946600    -0.4360860     0.1655790
  O       -1.6432377     0.6284884    -0.1172360
  O       -0.3508230    -1.5212030    -0.8163730
  O       -0.2159750    -0.7550950     1.5921100
  C        2.3621670     0.3010360     0.2220870
  C        0.9741440     0.7483390    -0.2426020
  C        2.8380310    -0.9649040    -0.4891310
  C        3.3410260     1.4538450    -0.0023010
  C       -2.8589370    -0.1133030    -0.1019100
  C       -3.9021700     0.9699320    -0.2416680
  H        2.2983390     0.1006560     1.2981690
  H        0.9320730     0.8904060    -1.3271310
  H        0.6744950     1.6778970     0.2503870
  H        2.8691440    -0.8060450    -1.5725570
  H        2.1878640    -1.8202610    -0.2948070
  H        3.8478330    -1.2217420    -0.1555610
  H        3.4181100     1.6939920    -1.0681710
  H        3.0282660     2.3570280     0.5308300
  H        4.3384750     1.1791220     0.3530350
  H       -2.8783840    -0.8196920    -0.9355340
  H       -2.9674710    -0.6619300     0.8385710
  H       -3.8465560     1.6647390     0.5984370
  H       -3.7534550     1.5250040    -1.1701160
  H       -4.8990420     0.5201230    -0.2596090
units angstrom
no_reorient  #important for SAPT in psi4, default
symmetry c1  #important for SAPT in psi4, default
}

set PROPERTIES_ORIGIN ["COM"]
properties('MP2/aug-cc-pvtz', properties = ['dipole'])
--------------------------------------------------------------------------

    Molecular point group: c1
  Charge       = 0
  Multiplicity = 1
  Basis Set: AUG-CC-PVTZ
    Blend: AUG-CC-PVTZ
  Basis Set: (AUG-CC-PVTZ AUX)
    Blend: AUG-CC-PVTZ-JKFIT

    Orbital Energies [Eh]
    ---------------------

    Doubly Occupied:

       1A    -92.218833     2A    -20.612270     3A    -20.563260
       4A    -20.563046     5A    -11.290168     6A    -11.283765
       7A    -11.255517     8A    -11.232433     9A    -11.224958
      10A    -11.221853    11A     -9.183265    12A     -6.868452
      13A     -6.867030    14A     -6.866951    15A     -1.472011
      16A     -1.373716    17A     -1.344226    18A     -1.124763
      19A     -1.040751    20A     -0.997864    21A     -0.945472
      22A     -0.867448    23A     -0.834384    24A     -0.789959
      25A     -0.723060    26A     -0.691152    27A     -0.687743
      28A     -0.659717    29A     -0.637971    30A     -0.617506
      31A     -0.608569    32A     -0.590407    33A     -0.565364
      34A     -0.556170    35A     -0.550110    36A     -0.545772
      37A     -0.535683    38A     -0.514534    39A     -0.497902
      40A     -0.496420    41A     -0.492406    42A     -0.486419
      43A     -0.484397    44A     -0.466017    45A     -0.452457

  @DF-RHF Final Energy:  -857.61239789311878

   => Energetics <=

    Nuclear Repulsion Energy =            719.6322179586099992
    One-Electron Energy =               -2606.6848888800836903
    Two-Electron Energy =                1029.4402730283547953
    Total Energy =                       -857.6123978931188958
  Basis Set: (AUG-CC-PVTZ AUX)
    Blend: AUG-CC-PVTZ-RI
    Molecular point group: c1

    Geometry (in Angstrom), charge = 0, multiplicity = 1:

       Center              X                  Y                   Z               Mass
    ------------   -----------------  -----------------  -----------------  -----------------
         S           -0.255950651482    -0.404584294192     0.149781633403    31.972071174400
         O           -1.604528351482     0.659990105808    -0.133033366597    15.994914619570
         O           -0.312113651482    -1.489701294192    -0.832170366597    15.994914619570
         O           -0.177265651482    -0.723593294192     1.576312633403    15.994914619570
         C            2.400876348518     0.332537705808     0.206289633403    12.000000000000
         C            1.012853348518     0.779840705808    -0.258399366597    12.000000000000
         C            2.876740348518    -0.933402294192    -0.504928366597    12.000000000000
         C            3.379735348518     1.485346705808    -0.018098366597    12.000000000000
         C           -2.820227651482    -0.081801294192    -0.117707366597    12.000000000000
         C           -3.863460651482     1.001433705808    -0.257465366597    12.000000000000
         H            2.337048348518     0.132157705808     1.282371633403     1.007825032230
         H            0.970782348518     0.921907705808    -1.342928366597     1.007825032230
         H            0.713204348518     1.709398705808     0.234589633403     1.007825032230
         H            2.907853348518    -0.774543294192    -1.588354366597     1.007825032230
         H            2.226573348518    -1.788759294192    -0.310604366597     1.007825032230
         H            3.886542348518    -1.190240294192    -0.171358366597     1.007825032230
         H            3.456819348518     1.725493705808    -1.083968366597     1.007825032230
         H            3.066975348518     2.388529705808     0.515032633403     1.007825032230
         H            4.377184348518     1.210623705808     0.337237633403     1.007825032230
         H           -2.839674651482    -0.788190294192    -0.951331366597     1.007825032230
         H           -2.928761651482    -0.630428294192     0.822773633403     1.007825032230
         H           -3.807846651482     1.696240705808     0.582639633403     1.007825032230
         H           -3.714745651482     1.556505705808    -1.185913366597     1.007825032230
         H           -4.860332651482     0.551624705808    -0.275406366597     1.007825032230

  Basis Set: AUG-CC-PVTZ
    Blend: AUG-CC-PVTZ
  Basis Set: (AUG-CC-PVTZ AUX)
    Blend: AUG-CC-PVTZ-JKFIT
	 Reference Energy          =    -857.6123978931187821 [Eh]
	 Singles Energy            =      -0.0000000000000000 [Eh]
	 Same-Spin Energy          =      -0.5273676788548656 [Eh]
	 Opposite-Spin Energy      =      -1.6858894119135246 [Eh]
	 Correlation Energy        =      -2.2132570907683902 [Eh]
	 Total Energy              =    -859.8256549838871479 [Eh]

	 ================> DF-SCS-MP2 Energies <==================
	-----------------------------------------------------------
	 SCS Same-Spin Scale       =       0.3333333333333333 [-]
	 SCS Opposite-Spin Scale   =       1.2000000000000000 [-]
	 SCS Same-Spin Energy      =      -0.1757892262849552 [Eh]
	 SCS Opposite-Spin Energy  =      -2.0230672942962293 [Eh]
	 SCS Correlation Energy    =      -2.1988565205811845 [Eh]
	 SCS Total Energy          =    -859.8112544136999986 [Eh]
	-----------------------------------------------------------

  Dipole Moment: [D]
     X:     0.7140      Y:     2.4534      Z:    -0.9563     Total:     2.7283

*** Psi4 exiting successfully. Buy a developer a beer!
