                               Psi4 1.4a3.dev225

  ==> Input File <==

--------------------------------------------------------------------------
#psi4
#
memory 32 gb

molecule  {
0 1
  S       -0.2946600    -0.4360860     0.1655790
  O       -1.5657890     0.5673500    -0.1009940
  O       -0.3508230    -1.5212030    -0.8163730
  O       -0.2159750    -0.7550950     1.5921100
  C        2.3621670     0.3010360     0.2220870
  C        0.9741440     0.7483390    -0.2426020
  C        2.8380310    -0.9649040    -0.4891310
  C        3.3410260     1.4538450    -0.0023010
  C       -2.8589370    -0.1133030    -0.1019100
  C       -3.9021700     0.9699320    -0.2416680
  H        2.2983390     0.1006560     1.2981690
  H        0.9320730     0.8904060    -1.3271310
  H        0.6744950     1.6778970     0.2503870
  H        2.8691440    -0.8060450    -1.5725570
  H        2.1878640    -1.8202610    -0.2948070
  H        3.8478330    -1.2217420    -0.1555610
  H        3.4181100     1.6939920    -1.0681710
  H        3.0282660     2.3570280     0.5308300
  H        4.3384750     1.1791220     0.3530350
  H       -2.8783840    -0.8196920    -0.9355340
  H       -2.9674710    -0.6619300     0.8385710
  H       -3.8465560     1.6647390     0.5984370
  H       -3.7466451     1.5504218    -1.2126314
  H       -4.8990420     0.5201230    -0.2596090
units angstrom
no_reorient  #important for SAPT in psi4, default
symmetry c1  #important for SAPT in psi4, default
}

set PROPERTIES_ORIGIN ["COM"]
properties('MP2/aug-cc-pvtz', properties = ['dipole'])
--------------------------------------------------------------------------

    Molecular point group: c1
  Charge       = 0
  Multiplicity = 1
  Basis Set: AUG-CC-PVTZ
    Blend: AUG-CC-PVTZ
  Basis Set: (AUG-CC-PVTZ AUX)
    Blend: AUG-CC-PVTZ-JKFIT

    Orbital Energies [Eh]
    ---------------------

    Doubly Occupied:

       1A    -92.213901     2A    -20.615027     3A    -20.553757
       4A    -20.553623     5A    -11.302506     6A    -11.278162
       7A    -11.251521     8A    -11.238998     9A    -11.229546
      10A    -11.218643    11A     -9.178152    12A     -6.863607
      13A     -6.862162    14A     -6.861988    15A     -1.481133
      16A     -1.375184    17A     -1.337504    18A     -1.120962
      19A     -1.050311    20A     -0.996088    21A     -0.942366
      22A     -0.874890    23A     -0.830088    24A     -0.788071
      25A     -0.725334    26A     -0.692599    27A     -0.690592
      28A     -0.656147    29A     -0.634969    30A     -0.616147
      31A     -0.605878    32A     -0.586808    33A     -0.566708
      34A     -0.556569    35A     -0.554933    36A     -0.543530
      37A     -0.534231    38A     -0.510004    39A     -0.500131
      40A     -0.495926    41A     -0.490294    42A     -0.485409
      43A     -0.482535    44A     -0.463382    45A     -0.453716

  @DF-RHF Final Energy:  -857.62445983363386

   => Energetics <=

    Nuclear Repulsion Energy =            722.3715493299832815
    One-Electron Energy =               -2612.2639523571083373
    Two-Electron Energy =                1032.2679431934911918
    Total Energy =                       -857.6244598336338640
  Basis Set: (AUG-CC-PVTZ AUX)
    Blend: AUG-CC-PVTZ-RI
    Molecular point group: c1

    Geometry (in Angstrom), charge = 0, multiplicity = 1:

       Center              X                  Y                   Z               Mass
    ------------   -----------------  -----------------  -----------------  -----------------
         S           -0.263451559495    -0.398849919323     0.148475280258    31.972071174400
         O           -1.534580559495     0.604586080677    -0.118097719742    15.994914619570
         O           -0.319614559495    -1.483966919323    -0.833476719742    15.994914619570
         O           -0.184766559495    -0.717858919323     1.575006280258    15.994914619570
         C            2.393375440505     0.338272080677     0.204983280258    12.000000000000
         C            1.005352440505     0.785575080677    -0.259705719742    12.000000000000
         C            2.869239440505    -0.927667919323    -0.506234719742    12.000000000000
         C            3.372234440505     1.491081080677    -0.019404719742    12.000000000000
         C           -2.827728559495    -0.076066919323    -0.119013719742    12.000000000000
         C           -3.870961559495     1.007168080677    -0.258771719742    12.000000000000
         H            2.329547440505     0.137892080677     1.281065280258     1.007825032230
         H            0.963281440505     0.927642080677    -1.344234719742     1.007825032230
         H            0.705703440505     1.715133080677     0.233283280258     1.007825032230
         H            2.900352440505    -0.768808919323    -1.589660719742     1.007825032230
         H            2.219072440505    -1.783024919323    -0.311910719742     1.007825032230
         H            3.879041440505    -1.184505919323    -0.172664719742     1.007825032230
         H            3.449318440505     1.731228080677    -1.085274719742     1.007825032230
         H            3.059474440505     2.394264080677     0.513726280258     1.007825032230
         H            4.369683440505     1.216358080677     0.335931280258     1.007825032230
         H           -2.847175559495    -0.782455919323    -0.952637719742     1.007825032230
         H           -2.936262559495    -0.624693919323     0.821467280258     1.007825032230
         H           -3.815347559495     1.701975080677     0.581333280258     1.007825032230
         H           -3.715436659495     1.587657880677    -1.229735119742     1.007825032230
         H           -4.867833559495     0.557359080677    -0.276712719742     1.007825032230

  Basis Set: AUG-CC-PVTZ
    Blend: AUG-CC-PVTZ
  Basis Set: (AUG-CC-PVTZ AUX)
    Blend: AUG-CC-PVTZ-JKFIT
	 Reference Energy          =    -857.6244598336338640 [Eh]
	 Singles Energy            =      -0.0000000000000000 [Eh]
	 Same-Spin Energy          =      -0.5252683565809545 [Eh]
	 Opposite-Spin Energy      =      -1.6811058196181181 [Eh]
	 Correlation Energy        =      -2.2063741761990725 [Eh]
	 Total Energy              =    -859.8308340098329836 [Eh]

	 ================> DF-SCS-MP2 Energies <==================
	-----------------------------------------------------------
	 SCS Same-Spin Scale       =       0.3333333333333333 [-]
	 SCS Opposite-Spin Scale   =       1.2000000000000000 [-]
	 SCS Same-Spin Energy      =      -0.1750894521936515 [Eh]
	 SCS Opposite-Spin Energy  =      -2.0173269835417416 [Eh]
	 SCS Correlation Energy    =      -2.1924164357353932 [Eh]
	 SCS Total Energy          =    -859.8168762693692315 [Eh]
	-----------------------------------------------------------

  Dipole Moment: [D]
     X:    -0.0609      Y:     2.6940      Z:    -1.0253     Total:     2.8832

*** Psi4 exiting successfully. Buy a developer a beer!
