                               Psi4 1.4a3.dev225

  ==> Input File <==

--------------------------------------------------------------------------
#psi4
#
memory 32 gb

molecule  {
0 1
  S       -0.2946600    -0.4360860     0.1655790
  O       -1.5657890     0.5673500    -0.1009940
  O       -0.3508230    -1.5212030    -0.8163730
  O       -0.2159750    -0.7550950     1.5921100
  C        2.3621670     0.3010360     0.2220870
  C        0.9741440     0.7483390    -0.2426020
  C        2.8380310    -0.9649040    -0.4891310
  C        3.3410260     1.4538450    -0.0023010
  C       -2.8589370    -0.1133030    -0.1019100
  C       -3.9021700     0.9699320    -0.2416680
  H        2.2983390     0.1006560     1.2981690
  H        0.9320730     0.8904060    -1.3271310
  H        0.6744950     1.6778970     0.2503870
  H        2.8677239    -0.8132958    -1.5231059
  H        2.1878640    -1.8202610    -0.2948070
  H        3.8478330    -1.2217420    -0.1555610
  H        3.4181100     1.6939920    -1.0681710
  H        3.0282660     2.3570280     0.5308300
  H        4.3384750     1.1791220     0.3530350
  H       -2.8783840    -0.8196920    -0.9355340
  H       -2.9674710    -0.6619300     0.8385710
  H       -3.8465560     1.6647390     0.5984370
  H       -3.7534550     1.5250040    -1.1701160
  H       -4.8990420     0.5201230    -0.2596090
units angstrom
no_reorient  #important for SAPT in psi4, default
symmetry c1  #important for SAPT in psi4, default
}

set PROPERTIES_ORIGIN ["COM"]
properties('MP2/aug-cc-pvtz', properties = ['dipole'])
--------------------------------------------------------------------------

    Molecular point group: c1
  Charge       = 0
  Multiplicity = 1
  Basis Set: AUG-CC-PVTZ
    Blend: AUG-CC-PVTZ
  Basis Set: (AUG-CC-PVTZ AUX)
    Blend: AUG-CC-PVTZ-JKFIT

    Orbital Energies [Eh]
    ---------------------

    Doubly Occupied:

       1A    -92.213779     2A    -20.614861     3A    -20.553660
       4A    -20.553446     5A    -11.301888     6A    -11.278072
       7A    -11.250911     8A    -11.233016     9A    -11.229465
      10A    -11.212305    11A     -9.178027    12A     -6.863482
      13A     -6.862037    14A     -6.861863    15A     -1.480984
      16A     -1.375034    17A     -1.337366    18A     -1.121230
      19A     -1.051625    20A     -0.997268    21A     -0.945370
      22A     -0.877248    23A     -0.831009    24A     -0.789571
      25A     -0.725212    26A     -0.692856    27A     -0.690802
      28A     -0.656699    29A     -0.635209    30A     -0.616003
      31A     -0.606874    32A     -0.588812    33A     -0.567233
      34A     -0.559489    35A     -0.556266    36A     -0.546450
      37A     -0.537361    38A     -0.509836    39A     -0.499989
      40A     -0.497028    41A     -0.490172    42A     -0.485447
      43A     -0.483900    44A     -0.463286    45A     -0.453515

  @DF-RHF Final Energy:  -857.62549425064560

   => Energetics <=

    Nuclear Repulsion Energy =            722.8093865736096859
    One-Electron Energy =               -2613.1178495292469961
    Two-Electron Energy =                1032.6829687049917084
    Total Energy =                       -857.6254942506457155
  Basis Set: (AUG-CC-PVTZ AUX)
    Blend: AUG-CC-PVTZ-RI
    Molecular point group: c1

    Geometry (in Angstrom), charge = 0, multiplicity = 1:

       Center              X                  Y                   Z               Mass
    ------------   -----------------  -----------------  -----------------  -----------------
         S           -0.263401613198    -0.398651659833     0.147917153147    31.972071174400
         O           -1.534530613198     0.604784340167    -0.118655846853    15.994914619570
         O           -0.319564613198    -1.483768659833    -0.834034846853    15.994914619570
         O           -0.184716613198    -0.717660659833     1.574448153147    15.994914619570
         C            2.393425386802     0.338470340167     0.204425153147    12.000000000000
         C            1.005402386802     0.785773340167    -0.260263846853    12.000000000000
         C            2.869289386802    -0.927469659833    -0.506792846853    12.000000000000
         C            3.372284386802     1.491279340167    -0.019962846853    12.000000000000
         C           -2.827678613198    -0.075868659833    -0.119571846853    12.000000000000
         C           -3.870911613198     1.007366340167    -0.259329846853    12.000000000000
         H            2.329597386802     0.138090340167     1.280507153147     1.007825032230
         H            0.963331386802     0.927840340167    -1.344792846853     1.007825032230
         H            0.705753386802     1.715331340167     0.232725153147     1.007825032230
         H            2.898982286802    -0.775861459833    -1.540767746853     1.007825032230
         H            2.219122386802    -1.782826659833    -0.312468846853     1.007825032230
         H            3.879091386802    -1.184307659833    -0.173222846853     1.007825032230
         H            3.449368386802     1.731426340167    -1.085832846853     1.007825032230
         H            3.059524386802     2.394462340167     0.513168153147     1.007825032230
         H            4.369733386802     1.216556340167     0.335373153147     1.007825032230
         H           -2.847125613198    -0.782257659833    -0.953195846853     1.007825032230
         H           -2.936212613198    -0.624495659833     0.820909153147     1.007825032230
         H           -3.815297613198     1.702173340167     0.580775153147     1.007825032230
         H           -3.722196613198     1.562438340167    -1.187777846853     1.007825032230
         H           -4.867783613198     0.557557340167    -0.277270846853     1.007825032230

  Basis Set: AUG-CC-PVTZ
    Blend: AUG-CC-PVTZ
  Basis Set: (AUG-CC-PVTZ AUX)
    Blend: AUG-CC-PVTZ-JKFIT
	 Reference Energy          =    -857.6254942506456018 [Eh]
	 Singles Energy            =      -0.0000000000000000 [Eh]
	 Same-Spin Energy          =      -0.5252940773119549 [Eh]
	 Opposite-Spin Energy      =      -1.6805330367669826 [Eh]
	 Correlation Energy        =      -2.2058271140789376 [Eh]
	 Total Energy              =    -859.8313213647245448 [Eh]

	 ================> DF-SCS-MP2 Energies <==================
	-----------------------------------------------------------
	 SCS Same-Spin Scale       =       0.3333333333333333 [-]
	 SCS Opposite-Spin Scale   =       1.2000000000000000 [-]
	 SCS Same-Spin Energy      =      -0.1750980257706516 [Eh]
	 SCS Opposite-Spin Energy  =      -2.0166396441203789 [Eh]
	 SCS Correlation Energy    =      -2.1917376698910305 [Eh]
	 SCS Total Energy          =    -859.8172319205366421 [Eh]
	-----------------------------------------------------------

  Dipole Moment: [D]
     X:    -0.0613      Y:     2.7089      Z:    -1.0700     Total:     2.9133

*** Psi4 exiting successfully. Buy a developer a beer!
