                               Psi4 1.4a3.dev225

  ==> Input File <==

--------------------------------------------------------------------------
#psi4
#
memory 32 gb

molecule  {
0 1
  S       -0.2946600    -0.4360860     0.1655790
  O       -1.5657890     0.5673500    -0.1009940
  O       -0.3508230    -1.5212030    -0.8163730
  O       -0.2159750    -0.7550950     1.5921100
  C        2.3621670     0.3010360     0.2220870
  C        0.9741440     0.7483390    -0.2426020
  C        2.8380310    -0.9649040    -0.4891310
  C        3.3410260     1.4538450    -0.0023010
  C       -2.8589370    -0.1133030    -0.1019100
  C       -3.9021700     0.9699320    -0.2416680
  H        2.2983390     0.1006560     1.2981690
  H        0.9320730     0.8904060    -1.3271310
  H        0.6744950     1.6778970     0.2503870
  H        2.8878725    -0.8098870    -1.5724138
  H        2.1878640    -1.8202610    -0.2948070
  H        3.8478330    -1.2217420    -0.1555610
  H        3.4181100     1.6939920    -1.0681710
  H        3.0282660     2.3570280     0.5308300
  H        4.3384750     1.1791220     0.3530350
  H       -2.8783840    -0.8196920    -0.9355340
  H       -2.9674710    -0.6619300     0.8385710
  H       -3.8465560     1.6647390     0.5984370
  H       -3.7534550     1.5250040    -1.1701160
  H       -4.8990420     0.5201230    -0.2596090
units angstrom
no_reorient  #important for SAPT in psi4, default
symmetry c1  #important for SAPT in psi4, default
}

set PROPERTIES_ORIGIN ["COM"]
properties('MP2/aug-cc-pvtz', properties = ['dipole'])
--------------------------------------------------------------------------

    Molecular point group: c1
  Charge       = 0
  Multiplicity = 1
  Basis Set: AUG-CC-PVTZ
    Blend: AUG-CC-PVTZ
  Basis Set: (AUG-CC-PVTZ AUX)
    Blend: AUG-CC-PVTZ-JKFIT

    Orbital Energies [Eh]
    ---------------------

    Doubly Occupied:

       1A    -92.213816     2A    -20.614887     3A    -20.553658
       4A    -20.553543     5A    -11.301904     6A    -11.278101
       7A    -11.251627     8A    -11.233024     9A    -11.229556
      10A    -11.218573    11A     -9.178065    12A     -6.863521
      13A     -6.862076    14A     -6.861901    15A     -1.481024
      16A     -1.375071    17A     -1.337410    18A     -1.120894
      19A     -1.051515    20A     -0.996744    21A     -0.942320
      22A     -0.877053    23A     -0.830804    24A     -0.788167
      25A     -0.725206    26A     -0.692864    27A     -0.690602
      28A     -0.656790    29A     -0.634915    30A     -0.616021
      31A     -0.606695    32A     -0.587068    33A     -0.567198
      34A     -0.558949    35A     -0.554993    36A     -0.542779
      37A     -0.537326    38A     -0.510186    39A     -0.500017
      40A     -0.496682    41A     -0.490412    42A     -0.485410
      43A     -0.482963    44A     -0.463324    45A     -0.453654

  @DF-RHF Final Energy:  -857.62649784443249

   => Energetics <=

    Nuclear Repulsion Energy =            722.5377150496567538
    One-Electron Energy =               -2612.5898141236748415
    Two-Electron Energy =                1032.4256012295854816
    Total Energy =                       -857.6264978444326061
  Basis Set: (AUG-CC-PVTZ AUX)
    Blend: AUG-CC-PVTZ-RI
    Molecular point group: c1

    Geometry (in Angstrom), charge = 0, multiplicity = 1:

       Center              X                  Y                   Z               Mass
    ------------   -----------------  -----------------  -----------------  -----------------
         S           -0.263523891200    -0.398672347189     0.148216393368    31.972071174400
         O           -1.534652891200     0.604763652811    -0.118356606632    15.994914619570
         O           -0.319686891200    -1.483789347189    -0.833735606632    15.994914619570
         O           -0.184838891200    -0.717681347189     1.574747393368    15.994914619570
         C            2.393303108800     0.338449652811     0.204724393368    12.000000000000
         C            1.005280108800     0.785752652811    -0.259964606632    12.000000000000
         C            2.869167108800    -0.927490347189    -0.506493606632    12.000000000000
         C            3.372162108800     1.491258652811    -0.019663606632    12.000000000000
         C           -2.827800891200    -0.075889347189    -0.119272606632    12.000000000000
         C           -3.871033891200     1.007345652811    -0.259030606632    12.000000000000
         H            2.329475108800     0.138069652811     1.280806393368     1.007825032230
         H            0.963209108800     0.927819652811    -1.344493606632     1.007825032230
         H            0.705631108800     1.715310652811     0.233024393368     1.007825032230
         H            2.919008608800    -0.772473347189    -1.589776406632     1.007825032230
         H            2.219000108800    -1.782847347189    -0.312169606632     1.007825032230
         H            3.878969108800    -1.184328347189    -0.172923606632     1.007825032230
         H            3.449246108800     1.731405652811    -1.085533606632     1.007825032230
         H            3.059402108800     2.394441652811     0.513467393368     1.007825032230
         H            4.369611108800     1.216535652811     0.335672393368     1.007825032230
         H           -2.847247891200    -0.782278347189    -0.952896606632     1.007825032230
         H           -2.936334891200    -0.624516347189     0.821208393368     1.007825032230
         H           -3.815419891200     1.702152652811     0.581074393368     1.007825032230
         H           -3.722318891200     1.562417652811    -1.187478606632     1.007825032230
         H           -4.867905891200     0.557536652811    -0.276971606632     1.007825032230

  Basis Set: AUG-CC-PVTZ
    Blend: AUG-CC-PVTZ
  Basis Set: (AUG-CC-PVTZ AUX)
    Blend: AUG-CC-PVTZ-JKFIT
	 Reference Energy          =    -857.6264978444324925 [Eh]
	 Singles Energy            =      -0.0000000000000000 [Eh]
	 Same-Spin Energy          =      -0.5252801684490903 [Eh]
	 Opposite-Spin Energy      =      -1.6807834588237216 [Eh]
	 Correlation Energy        =      -2.2060636272728118 [Eh]
	 Total Energy              =    -859.8325614717052758 [Eh]

	 ================> DF-SCS-MP2 Energies <==================
	-----------------------------------------------------------
	 SCS Same-Spin Scale       =       0.3333333333333333 [-]
	 SCS Opposite-Spin Scale   =       1.2000000000000000 [-]
	 SCS Same-Spin Energy      =      -0.1750933894830301 [Eh]
	 SCS Opposite-Spin Energy  =      -2.0169401505884657 [Eh]
	 SCS Correlation Energy    =      -2.1920335400714959 [Eh]
	 SCS Total Energy          =    -859.8185313845040127 [Eh]
	-----------------------------------------------------------

  Dipole Moment: [D]
     X:    -0.0604      Y:     2.7101      Z:    -1.0469     Total:     2.9059

*** Psi4 exiting successfully. Buy a developer a beer!
