                               Psi4 1.4a3.dev225

  ==> Input File <==

--------------------------------------------------------------------------
#psi4
#
memory 32 gb

molecule  {
0 1
  S       -0.2946600    -0.4360860     0.1655790
  O       -1.5657890     0.5673500    -0.1009940
  O       -0.3508230    -1.5212030    -0.8163730
  O       -0.2159750    -0.7550950     1.5921100
  C        2.3621670     0.3010360     0.2220870
  C        0.9741440     0.7483390    -0.2426020
  C        2.8380310    -0.9649040    -0.4891310
  C        3.3410260     1.4538450    -0.0023010
  C       -2.8589370    -0.1133030    -0.1019100
  C       -3.9021700     0.9699320    -0.2416680
  H        2.2983390     0.1006560     1.2981690
  H        0.9320730     0.8904060    -1.3271310
  H        0.6744950     1.6778970     0.2503870
  H        2.8691440    -0.8060450    -1.5725570
  H        2.0687683    -1.9769428    -0.2592113
  H        3.8478330    -1.2217420    -0.1555610
  H        3.4181100     1.6939920    -1.0681710
  H        3.0282660     2.3570280     0.5308300
  H        4.3384750     1.1791220     0.3530350
  H       -2.8783840    -0.8196920    -0.9355340
  H       -2.9674710    -0.6619300     0.8385710
  H       -3.8465560     1.6647390     0.5984370
  H       -3.7534550     1.5250040    -1.1701160
  H       -4.8990420     0.5201230    -0.2596090
units angstrom
no_reorient  #important for SAPT in psi4, default
symmetry c1  #important for SAPT in psi4, default
}

set PROPERTIES_ORIGIN ["COM"]
properties('MP2/aug-cc-pvtz', properties = ['dipole'])
--------------------------------------------------------------------------

    Molecular point group: c1
  Charge       = 0
  Multiplicity = 1
  Basis Set: AUG-CC-PVTZ
    Blend: AUG-CC-PVTZ
  Basis Set: (AUG-CC-PVTZ AUX)
    Blend: AUG-CC-PVTZ-JKFIT

    Orbital Energies [Eh]
    ---------------------

    Doubly Occupied:

       1A    -92.213516     2A    -20.614643     3A    -20.553044
       4A    -20.552661     5A    -11.301708     6A    -11.278430
       7A    -11.253376     8A    -11.239427     9A    -11.232900
      10A    -11.231284    11A     -9.177736    12A     -6.863194
      13A     -6.861754    14A     -6.861570    15A     -1.480587
      16A     -1.374706    17A     -1.336822    18A     -1.120758
      19A     -1.051242    20A     -0.996266    21A     -0.932979
      22A     -0.876427    23A     -0.830113    24A     -0.786025
      25A     -0.724907    26A     -0.692472    27A     -0.690469
      28A     -0.655933    29A     -0.634807    30A     -0.609998
      31A     -0.605604    32A     -0.582262    33A     -0.567137
      34A     -0.558759    35A     -0.550965    36A     -0.545346
      37A     -0.536684    38A     -0.502649    39A     -0.499867
      40A     -0.497197    41A     -0.488188    42A     -0.485368
      43A     -0.475776    44A     -0.462930    45A     -0.445714

  @DF-RHF Final Energy:  -857.60569819735599

   => Energetics <=

    Nuclear Repulsion Energy =            721.9793931244795431
    One-Electron Energy =               -2611.5017771216625988
    Two-Electron Energy =                1031.9166857998270643
    Total Energy =                       -857.6056981973561051
  Basis Set: (AUG-CC-PVTZ AUX)
    Blend: AUG-CC-PVTZ-RI
    Molecular point group: c1

    Geometry (in Angstrom), charge = 0, multiplicity = 1:

       Center              X                  Y                   Z               Mass
    ------------   -----------------  -----------------  -----------------  -----------------
         S           -0.262687462473    -0.397744791655     0.148001238921    31.972071174400
         O           -1.533816462473     0.605691208345    -0.118571761079    15.994914619570
         O           -0.318850462473    -1.482861791655    -0.833950761079    15.994914619570
         O           -0.184002462473    -0.716753791655     1.574532238921    15.994914619570
         C            2.394139537527     0.339377208345     0.204509238921    12.000000000000
         C            1.006116537527     0.786680208345    -0.260179761079    12.000000000000
         C            2.870003537527    -0.926562791655    -0.506708761079    12.000000000000
         C            3.372998537527     1.492186208345    -0.019878761079    12.000000000000
         C           -2.826964462473    -0.074961791655    -0.119487761079    12.000000000000
         C           -3.870197462473     1.008273208345    -0.259245761079    12.000000000000
         H            2.330311537527     0.138997208345     1.280591238921     1.007825032230
         H            0.964045537527     0.928747208345    -1.344708761079     1.007825032230
         H            0.706467537527     1.716238208345     0.232809238921     1.007825032230
         H            2.901116537527    -0.767703791655    -1.590134761079     1.007825032230
         H            2.100740837527    -1.938601591655    -0.276789061079     1.007825032230
         H            3.879805537527    -1.183400791655    -0.173138761079     1.007825032230
         H            3.450082537527     1.732333208345    -1.085748761079     1.007825032230
         H            3.060238537527     2.395369208345     0.513252238921     1.007825032230
         H            4.370447537527     1.217463208345     0.335457238921     1.007825032230
         H           -2.846411462473    -0.781350791655    -0.953111761079     1.007825032230
         H           -2.935498462473    -0.623588791655     0.820993238921     1.007825032230
         H           -3.814583462473     1.703080208345     0.580859238921     1.007825032230
         H           -3.721482462473     1.563345208345    -1.187693761079     1.007825032230
         H           -4.867069462473     0.558464208345    -0.277186761079     1.007825032230

  Basis Set: AUG-CC-PVTZ
    Blend: AUG-CC-PVTZ
  Basis Set: (AUG-CC-PVTZ AUX)
    Blend: AUG-CC-PVTZ-JKFIT
	 Reference Energy          =    -857.6056981973559914 [Eh]
	 Singles Energy            =      -0.0000000000000000 [Eh]
	 Same-Spin Energy          =      -0.5256194725182385 [Eh]
	 Opposite-Spin Energy      =      -1.6827385797563612 [Eh]
	 Correlation Energy        =      -2.2083580522745998 [Eh]
	 Total Energy              =    -859.8140562496305392 [Eh]

	 ================> DF-SCS-MP2 Energies <==================
	-----------------------------------------------------------
	 SCS Same-Spin Scale       =       0.3333333333333333 [-]
	 SCS Opposite-Spin Scale   =       1.2000000000000000 [-]
	 SCS Same-Spin Energy      =      -0.1752064908394128 [Eh]
	 SCS Opposite-Spin Energy  =      -2.0192862957076332 [Eh]
	 SCS Correlation Energy    =      -2.1944927865470460 [Eh]
	 SCS Total Energy          =    -859.8001909839030077 [Eh]
	-----------------------------------------------------------

  Dipole Moment: [D]
     X:    -0.0392      Y:     2.7950      Z:    -1.0508     Total:     2.9863

*** Psi4 exiting successfully. Buy a developer a beer!
