                               Psi4 1.4a3.dev225

  ==> Input File <==

--------------------------------------------------------------------------
#psi4
#
memory 32 gb

molecule  {
0 1
  S       -0.2946600    -0.4360860     0.1655790
  O       -1.5657890     0.5673500    -0.1009940
  O       -0.3508230    -1.5212030    -0.8163730
  O       -0.2159750    -0.7550950     1.5921100
  C        2.3621670     0.3010360     0.2220870
  C        0.9741440     0.7483390    -0.2426020
  C        2.8380310    -0.9649040    -0.4891310
  C        3.3410260     1.4538450    -0.0023010
  C       -2.8589370    -0.1133030    -0.1019100
  C       -3.9021700     0.9699320    -0.2416680
  H        2.2983390     0.1006560     1.2981690
  H        0.9339947     0.8839166    -1.2775912
  H        0.6744950     1.6778970     0.2503870
  H        2.8691440    -0.8060450    -1.5725570
  H        2.1878640    -1.8202610    -0.2948070
  H        3.8478330    -1.2217420    -0.1555610
  H        3.4181100     1.6939920    -1.0681710
  H        3.0282660     2.3570280     0.5308300
  H        4.3384750     1.1791220     0.3530350
  H       -2.8783840    -0.8196920    -0.9355340
  H       -2.9674710    -0.6619300     0.8385710
  H       -3.8465560     1.6647390     0.5984370
  H       -3.7534550     1.5250040    -1.1701160
  H       -4.8990420     0.5201230    -0.2596090
units angstrom
no_reorient  #important for SAPT in psi4, default
symmetry c1  #important for SAPT in psi4, default
}

set PROPERTIES_ORIGIN ["COM"]
properties('MP2/aug-cc-pvtz', properties = ['dipole'])
--------------------------------------------------------------------------

    Molecular point group: c1
  Charge       = 0
  Multiplicity = 1
  Basis Set: AUG-CC-PVTZ
    Blend: AUG-CC-PVTZ
  Basis Set: (AUG-CC-PVTZ AUX)
    Blend: AUG-CC-PVTZ-JKFIT

    Orbital Energies [Eh]
    ---------------------

    Doubly Occupied:

       1A    -92.213646     2A    -20.614969     3A    -20.553834
       4A    -20.553274     5A    -11.301944     6A    -11.272678
       7A    -11.251187     8A    -11.233061     9A    -11.229552
      10A    -11.218637    11A     -9.177927    12A     -6.863379
      13A     -6.861930    14A     -6.861762    15A     -1.481050
      16A     -1.375105    17A     -1.337386    18A     -1.122515
      19A     -1.051654    20A     -0.998871    21A     -0.942382
      22A     -0.877710    23A     -0.830868    24A     -0.790941
      25A     -0.725883    26A     -0.693483    27A     -0.692248
      28A     -0.657306    29A     -0.635069    30A     -0.617106
      31A     -0.607086    32A     -0.590901    33A     -0.567474
      34A     -0.559224    35A     -0.554733    36A     -0.543867
      37A     -0.537443    38A     -0.509966    39A     -0.500022
      40A     -0.496968    41A     -0.490382    42A     -0.486372
      43A     -0.482572    44A     -0.463324    45A     -0.453649

  @DF-RHF Final Energy:  -857.62569526656614

   => Energetics <=

    Nuclear Repulsion Energy =            722.8628010617542259
    One-Electron Energy =               -2613.2143210908484434
    Two-Electron Energy =                1032.7258247625279637
    Total Energy =                       -857.6256952665662538
  Basis Set: (AUG-CC-PVTZ AUX)
    Blend: AUG-CC-PVTZ-RI
    Molecular point group: c1

    Geometry (in Angstrom), charge = 0, multiplicity = 1:

       Center              X                  Y                   Z               Mass
    ------------   -----------------  -----------------  -----------------  -----------------
         S           -0.263421893944    -0.398656280624     0.147916614843    31.972071174400
         O           -1.534550893944     0.604779719376    -0.118656385157    15.994914619570
         O           -0.319584893944    -1.483773280624    -0.834035385157    15.994914619570
         O           -0.184736893944    -0.717665280624     1.574447614843    15.994914619570
         C            2.393405106056     0.338465719376     0.204424614843    12.000000000000
         C            1.005382106056     0.785768719376    -0.260264385157    12.000000000000
         C            2.869269106056    -0.927474280624    -0.506793385157    12.000000000000
         C            3.372264106056     1.491274719376    -0.019963385157    12.000000000000
         C           -2.827698893944    -0.075873280624    -0.119572385157    12.000000000000
         C           -3.870931893944     1.007361719376    -0.259330385157    12.000000000000
         H            2.329577106056     0.138085719376     1.280506614843     1.007825032230
         H            0.965232806056     0.921346319376    -1.295253585157     1.007825032230
         H            0.705733106056     1.715326719376     0.232724614843     1.007825032230
         H            2.900382106056    -0.768615280624    -1.590219385157     1.007825032230
         H            2.219102106056    -1.782831280624    -0.312469385157     1.007825032230
         H            3.879071106056    -1.184312280624    -0.173223385157     1.007825032230
         H            3.449348106056     1.731421719376    -1.085833385157     1.007825032230
         H            3.059504106056     2.394457719376     0.513167614843     1.007825032230
         H            4.369713106056     1.216551719376     0.335372614843     1.007825032230
         H           -2.847145893944    -0.782262280624    -0.953196385157     1.007825032230
         H           -2.936232893944    -0.624500280624     0.820908614843     1.007825032230
         H           -3.815317893944     1.702168719376     0.580774614843     1.007825032230
         H           -3.722216893944     1.562433719376    -1.187778385157     1.007825032230
         H           -4.867803893944     0.557552719376    -0.277271385157     1.007825032230

  Basis Set: AUG-CC-PVTZ
    Blend: AUG-CC-PVTZ
  Basis Set: (AUG-CC-PVTZ AUX)
    Blend: AUG-CC-PVTZ-JKFIT
	 Reference Energy          =    -857.6256952665661402 [Eh]
	 Singles Energy            =      -0.0000000000000000 [Eh]
	 Same-Spin Energy          =      -0.5251974278032867 [Eh]
	 Opposite-Spin Energy      =      -1.6804552852401087 [Eh]
	 Correlation Energy        =      -2.2056527130433956 [Eh]
	 Total Energy              =    -859.8313479796095180 [Eh]

	 ================> DF-SCS-MP2 Energies <==================
	-----------------------------------------------------------
	 SCS Same-Spin Scale       =       0.3333333333333333 [-]
	 SCS Opposite-Spin Scale   =       1.2000000000000000 [-]
	 SCS Same-Spin Energy      =      -0.1750658092677622 [Eh]
	 SCS Opposite-Spin Energy  =      -2.0165463422881302 [Eh]
	 SCS Correlation Energy    =      -2.1916121515558924 [Eh]
	 SCS Total Energy          =    -859.8173074181220272 [Eh]
	-----------------------------------------------------------

  Dipole Moment: [D]
     X:    -0.0686      Y:     2.7129      Z:    -1.0487     Total:     2.9094

*** Psi4 exiting successfully. Buy a developer a beer!
