                               Psi4 1.4a3.dev225

  ==> Input File <==

--------------------------------------------------------------------------
#psi4
#
memory 32 gb

molecule  {
0 1
  S       -0.2946600    -0.4360860     0.1655790
  O       -1.5657890     0.5673500    -0.1009940
  O       -0.3508230    -1.5212030    -0.8163730
  O       -0.2159750    -0.7550950     1.5921100
  C        2.3621670     0.3010360     0.2220870
  C        0.9741440     0.7483390    -0.2426020
  C        2.8380310    -0.9649040    -0.4891310
  C        3.3410260     1.4538450    -0.0023010
  C       -2.8412389    -0.1039876    -0.1018975
  C       -3.9021700     0.9699320    -0.2416680
  H        2.2983390     0.1006560     1.2981690
  H        0.9320730     0.8904060    -1.3271310
  H        0.6744950     1.6778970     0.2503870
  H        2.8691440    -0.8060450    -1.5725570
  H        2.1878640    -1.8202610    -0.2948070
  H        3.8478330    -1.2217420    -0.1555610
  H        3.4181100     1.6939920    -1.0681710
  H        3.0282660     2.3570280     0.5308300
  H        4.3384750     1.1791220     0.3530350
  H       -2.8783840    -0.8196920    -0.9355340
  H       -2.9674710    -0.6619300     0.8385710
  H       -3.8465560     1.6647390     0.5984370
  H       -3.7534550     1.5250040    -1.1701160
  H       -4.8990420     0.5201230    -0.2596090
units angstrom
no_reorient  #important for SAPT in psi4, default
symmetry c1  #important for SAPT in psi4, default
}

set PROPERTIES_ORIGIN ["COM"]
properties('MP2/aug-cc-pvtz', properties = ['dipole'])
--------------------------------------------------------------------------

    Molecular point group: c1
  Charge       = 0
  Multiplicity = 1
  Basis Set: AUG-CC-PVTZ
    Blend: AUG-CC-PVTZ
  Basis Set: (AUG-CC-PVTZ AUX)
    Blend: AUG-CC-PVTZ-JKFIT

    Orbital Energies [Eh]
    ---------------------

    Doubly Occupied:

       1A    -92.215075     2A    -20.616998     3A    -20.554685
       4A    -20.554583     5A    -11.301086     6A    -11.279015
       7A    -11.252118     8A    -11.232254     9A    -11.230002
      10A    -11.219097    11A     -9.179351    12A     -6.864824
      13A     -6.863342    14A     -6.863165    15A     -1.483890
      16A     -1.379976    17A     -1.338361    18A     -1.121693
      19A     -1.050208    20A     -0.996843    21A     -0.942831
      22A     -0.878113    23A     -0.830274    24A     -0.788956
      25A     -0.727799    26A     -0.694071    27A     -0.691824
      28A     -0.656943    29A     -0.635163    30A     -0.617344
      31A     -0.608934    32A     -0.587289    33A     -0.567859
      34A     -0.559448    35A     -0.555635    36A     -0.544029
      37A     -0.535008    38A     -0.510639    39A     -0.498737
      40A     -0.495757    41A     -0.490863    42A     -0.485613
      43A     -0.482862    44A     -0.463603    45A     -0.454651

  @DF-RHF Final Energy:  -857.62644659311206

   => Energetics <=

    Nuclear Repulsion Energy =            722.9825095836554283
    One-Electron Energy =               -2613.4162935779909276
    Two-Electron Energy =                1032.8073374012235490
    Total Energy =                       -857.6264465931119503
  Basis Set: (AUG-CC-PVTZ AUX)
    Blend: AUG-CC-PVTZ-RI
    Molecular point group: c1

    Geometry (in Angstrom), charge = 0, multiplicity = 1:

       Center              X                  Y                   Z               Mass
    ------------   -----------------  -----------------  -----------------  -----------------
         S           -0.264689100955    -0.399368796849     0.148216359168    31.972071174400
         O           -1.535818100955     0.604067203151    -0.118356640832    15.994914619570
         O           -0.320852100955    -1.484485796849    -0.833735640832    15.994914619570
         O           -0.186004100955    -0.718377796849     1.574747359168    15.994914619570
         C            2.392137899045     0.337753203151     0.204724359168    12.000000000000
         C            1.004114899045     0.785056203151    -0.259964640832    12.000000000000
         C            2.868001899045    -0.928186796849    -0.506493640832    12.000000000000
         C            3.370996899045     1.490562203151    -0.019663640832    12.000000000000
         C           -2.811268000955    -0.067270396849    -0.119260140832    12.000000000000
         C           -3.872199100955     1.006649203151    -0.259030640832    12.000000000000
         H            2.328309899045     0.137373203151     1.280806359168     1.007825032230
         H            0.962043899045     0.927123203151    -1.344493640832     1.007825032230
         H            0.704465899045     1.714614203151     0.233024359168     1.007825032230
         H            2.899114899045    -0.769327796849    -1.589919640832     1.007825032230
         H            2.217834899045    -1.783543796849    -0.312169640832     1.007825032230
         H            3.877803899045    -1.185024796849    -0.172923640832     1.007825032230
         H            3.448080899045     1.730709203151    -1.085533640832     1.007825032230
         H            3.058236899045     2.393745203151     0.513467359168     1.007825032230
         H            4.368445899045     1.215839203151     0.335672359168     1.007825032230
         H           -2.848413100955    -0.782974796849    -0.952896640832     1.007825032230
         H           -2.937500100955    -0.625212796849     0.821208359168     1.007825032230
         H           -3.816585100955     1.701456203151     0.581074359168     1.007825032230
         H           -3.723484100955     1.561721203151    -1.187478640832     1.007825032230
         H           -4.869071100955     0.556840203151    -0.276971640832     1.007825032230

  Basis Set: AUG-CC-PVTZ
    Blend: AUG-CC-PVTZ
  Basis Set: (AUG-CC-PVTZ AUX)
    Blend: AUG-CC-PVTZ-JKFIT
	 Reference Energy          =    -857.6264465931120640 [Eh]
	 Singles Energy            =      -0.0000000000000000 [Eh]
	 Same-Spin Energy          =      -0.5252882521874862 [Eh]
	 Opposite-Spin Energy      =      -1.6806546392478805 [Eh]
	 Correlation Energy        =      -2.2059428914353667 [Eh]
	 Total Energy              =    -859.8323894845474342 [Eh]

	 ================> DF-SCS-MP2 Energies <==================
	-----------------------------------------------------------
	 SCS Same-Spin Scale       =       0.3333333333333333 [-]
	 SCS Opposite-Spin Scale   =       1.2000000000000000 [-]
	 SCS Same-Spin Energy      =      -0.1750960840624954 [Eh]
	 SCS Opposite-Spin Energy  =      -2.0167855670974566 [Eh]
	 SCS Correlation Energy    =      -2.1918816511599521 [Eh]
	 SCS Total Energy          =    -859.8183282442720383 [Eh]
	-----------------------------------------------------------

  Dipole Moment: [D]
     X:     0.0414      Y:     2.7164      Z:    -1.0390     Total:     2.9086

*** Psi4 exiting successfully. Buy a developer a beer!
