                               Psi4 1.4a3.dev225

  ==> Input File <==

--------------------------------------------------------------------------
#psi4
#
memory 32 gb

molecule  {
0 1
  S       -0.2946600    -0.4360860     0.1655790
  O       -1.5657890     0.5673500    -0.1009940
  O       -0.3508230    -1.5212030    -0.8163730
  O       -0.2159750    -0.7550950     1.5921100
  C        2.3621670     0.3010360     0.2220870
  C        0.9741440     0.7483390    -0.2426020
  C        2.8380310    -0.9649040    -0.4891310
  C        3.3410260     1.4538450    -0.0023010
  C       -2.8589370    -0.1133030    -0.1019100
  C       -3.9021700     0.9699320    -0.2416680
  H        2.2983390     0.1006560     1.2981690
  H        0.9320730     0.8904060    -1.3271310
  H        0.6744950     1.6778970     0.2503870
  H        2.8691440    -0.8060450    -1.5725570
  H        2.1878640    -1.8202610    -0.2948070
  H        3.8478330    -1.2217420    -0.1555610
  H        3.4181100     1.6939920    -1.0681710
  H        3.0282660     2.3570280     0.5308300
  H        4.3384750     1.1791220     0.3530350
  H       -2.8783840    -0.8196920    -0.9355340
  H       -2.9674710    -0.6619300     0.8385710
  H       -3.8344013     1.7205545     0.5480151
  H       -3.7534550     1.5250040    -1.1701160
  H       -4.8990420     0.5201230    -0.2596090
units angstrom
no_reorient  #important for SAPT in psi4, default
symmetry c1  #important for SAPT in psi4, default
}

set PROPERTIES_ORIGIN ["COM"]
properties('MP2/aug-cc-pvtz', properties = ['dipole'])
--------------------------------------------------------------------------

    Molecular point group: c1
  Charge       = 0
  Multiplicity = 1
  Basis Set: AUG-CC-PVTZ
    Blend: AUG-CC-PVTZ
  Basis Set: (AUG-CC-PVTZ AUX)
    Blend: AUG-CC-PVTZ-JKFIT

    Orbital Energies [Eh]
    ---------------------

    Doubly Occupied:

       1A    -92.213903     2A    -20.615037     3A    -20.553789
       4A    -20.553590     5A    -11.302495     6A    -11.278192
       7A    -11.251537     8A    -11.232861     9A    -11.229569
      10A    -11.218658    11A     -9.178152    12A     -6.863607
      13A     -6.862162    14A     -6.861987    15A     -1.481127
      16A     -1.375180    17A     -1.337497    18A     -1.120988
      19A     -1.051264    20A     -0.996685    21A     -0.942386
      22A     -0.877584    23A     -0.831382    24A     -0.788088
      25A     -0.725278    26A     -0.692383    27A     -0.690995
      28A     -0.656316    29A     -0.634738    30A     -0.616378
      31A     -0.608216    32A     -0.586797    33A     -0.566564
      34A     -0.556588    35A     -0.554860    36A     -0.544383
      37A     -0.539399    38A     -0.510013    39A     -0.500346
      40A     -0.495857    41A     -0.490361    42A     -0.485346
      43A     -0.482553    44A     -0.463363    45A     -0.453731

  @DF-RHF Final Energy:  -857.62598932159358

   => Energetics <=

    Nuclear Repulsion Energy =            722.5447865378879442
    One-Electron Energy =               -2612.5971816768224016
    Two-Electron Energy =                1032.4264058173409921
    Total Energy =                       -857.6259893215935790
  Basis Set: (AUG-CC-PVTZ AUX)
    Blend: AUG-CC-PVTZ-RI
    Molecular point group: c1

    Geometry (in Angstrom), charge = 0, multiplicity = 1:

       Center              X                  Y                   Z               Mass
    ------------   -----------------  -----------------  -----------------  -----------------
         S           -0.263483996065    -0.399034397154     0.148523263295    31.972071174400
         O           -1.534612996065     0.604401602846    -0.118049736705    15.994914619570
         O           -0.319646996065    -1.484151397154    -0.833428736705    15.994914619570
         O           -0.184798996065    -0.718043397154     1.575054263295    15.994914619570
         C            2.393343003935     0.338087602846     0.205031263295    12.000000000000
         C            1.005320003935     0.785390602846    -0.259657736705    12.000000000000
         C            2.869207003935    -0.927852397154    -0.506186736705    12.000000000000
         C            3.372202003935     1.490896602846    -0.019356736705    12.000000000000
         C           -2.827760996065    -0.076251397154    -0.118965736705    12.000000000000
         C           -3.870993996065     1.006983602846    -0.258723736705    12.000000000000
         H            2.329515003935     0.137707602846     1.281113263295     1.007825032230
         H            0.963249003935     0.927457602846    -1.344186736705     1.007825032230
         H            0.705671003935     1.714948602846     0.233331263295     1.007825032230
         H            2.900320003935    -0.768993397154    -1.589612736705     1.007825032230
         H            2.219040003935    -1.783209397154    -0.311862736705     1.007825032230
         H            3.879009003935    -1.184690397154    -0.172616736705     1.007825032230
         H            3.449286003935     1.731043602846    -1.085226736705     1.007825032230
         H            3.059442003935     2.394079602846     0.513774263295     1.007825032230
         H            4.369651003935     1.216173602846     0.335979263295     1.007825032230
         H           -2.847207996065    -0.782640397154    -0.952589736705     1.007825032230
         H           -2.936294996065    -0.624878397154     0.821515263295     1.007825032230
         H           -3.803225296065     1.757606102846     0.530959363295     1.007825032230
         H           -3.722278996065     1.562055602846    -1.187171736705     1.007825032230
         H           -4.867865996065     0.557174602846    -0.276664736705     1.007825032230

  Basis Set: AUG-CC-PVTZ
    Blend: AUG-CC-PVTZ
  Basis Set: (AUG-CC-PVTZ AUX)
    Blend: AUG-CC-PVTZ-JKFIT
	 Reference Energy          =    -857.6259893215935790 [Eh]
	 Singles Energy            =      -0.0000000000000000 [Eh]
	 Same-Spin Energy          =      -0.5252932100453598 [Eh]
	 Opposite-Spin Energy      =      -1.6807899399303425 [Eh]
	 Correlation Energy        =      -2.2060831499757025 [Eh]
	 Total Energy              =    -859.8320724715692904 [Eh]

	 ================> DF-SCS-MP2 Energies <==================
	-----------------------------------------------------------
	 SCS Same-Spin Scale       =       0.3333333333333333 [-]
	 SCS Opposite-Spin Scale   =       1.2000000000000000 [-]
	 SCS Same-Spin Energy      =      -0.1750977366817866 [Eh]
	 SCS Opposite-Spin Energy  =      -2.0169479279164109 [Eh]
	 SCS Correlation Energy    =      -2.1920456645981976 [Eh]
	 SCS Total Energy          =    -859.8180349861918330 [Eh]
	-----------------------------------------------------------

  Dipole Moment: [D]
     X:    -0.0497      Y:     2.7242      Z:    -1.0550     Total:     2.9218

*** Psi4 exiting successfully. Buy a developer a beer!
