                               Psi4 1.4a3.dev225

  ==> Input File <==

--------------------------------------------------------------------------
#psi4
#
memory 32 gb

molecule  {
0 1
  S       -0.2946600    -0.4360860     0.1655790
  O       -1.5657890     0.5673500    -0.1009940
  O       -0.3508230    -1.5212030    -0.8163730
  O       -0.2159750    -0.7550950     1.5921100
  C        2.3621670     0.3010360     0.2220870
  C        0.9741440     0.7483390    -0.2426020
  C        2.8380310    -0.9649040    -0.4891310
  C        3.3410260     1.4538450    -0.0023010
  C       -2.8589370    -0.1133030    -0.1019100
  C       -3.9021700     0.9699320    -0.2416680
  H        2.2983390     0.1006560     1.2981690
  H        0.9320730     0.8904060    -1.3271310
  H        0.6744950     1.6778970     0.2503870
  H        2.8691440    -0.8060450    -1.5725570
  H        2.1878640    -1.8202610    -0.2948070
  H        3.8478330    -1.2217420    -0.1555610
  H        3.4181100     1.6939920    -1.0681710
  H        3.0282660     2.3570280     0.5308300
  H        4.3384750     1.1791220     0.3530350
  H       -2.8741278    -0.7903937    -0.9595871
  H       -2.9674710    -0.6619300     0.8385710
  H       -3.8465560     1.6647390     0.5984370
  H       -3.7534550     1.5250040    -1.1701160
  H       -4.8990420     0.5201230    -0.2596090
units angstrom
no_reorient  #important for SAPT in psi4, default
symmetry c1  #important for SAPT in psi4, default
}

set PROPERTIES_ORIGIN ["COM"]
properties('MP2/aug-cc-pvtz', properties = ['dipole'])
--------------------------------------------------------------------------

    Molecular point group: c1
  Charge       = 0
  Multiplicity = 1
  Basis Set: AUG-CC-PVTZ
    Blend: AUG-CC-PVTZ
  Basis Set: (AUG-CC-PVTZ AUX)
    Blend: AUG-CC-PVTZ-JKFIT

    Orbital Energies [Eh]
    ---------------------

    Doubly Occupied:

       1A    -92.213724     2A    -20.614481     3A    -20.553567
       4A    -20.553487     5A    -11.302029     6A    -11.278063
       7A    -11.251450     8A    -11.232816     9A    -11.229499
      10A    -11.218581    11A     -9.177971    12A     -6.863425
      13A     -6.861983    14A     -6.861808    15A     -1.480929
      16A     -1.374998    17A     -1.337340    18A     -1.120896
      19A     -1.051739    20A     -0.996714    21A     -0.942310
      22A     -0.876814    23A     -0.829949    24A     -0.787965
      25A     -0.724807    26A     -0.694050    27A     -0.690472
      28A     -0.657349    29A     -0.635316    30A     -0.616114
      31A     -0.606563    32A     -0.586631    33A     -0.567175
      34A     -0.558848    35A     -0.554606    36A     -0.543471
      37A     -0.536468    38A     -0.510021    39A     -0.499286
      40A     -0.497610    41A     -0.490563    42A     -0.485521
      43A     -0.482576    44A     -0.463425    45A     -0.453559

  @DF-RHF Final Energy:  -857.62638945632466

   => Energetics <=

    Nuclear Repulsion Energy =            722.5923054577491484
    One-Electron Energy =               -2612.7034543735835541
    Two-Electron Energy =                1032.4847594595096325
    Total Energy =                       -857.6263894563246595
  Basis Set: (AUG-CC-PVTZ AUX)
    Blend: AUG-CC-PVTZ-RI
    Molecular point group: c1

    Geometry (in Angstrom), charge = 0, multiplicity = 1:

       Center              X                  Y                   Z               Mass
    ------------   -----------------  -----------------  -----------------  -----------------
         S           -0.263436061578    -0.398873469336     0.148363236088    31.972071174400
         O           -1.534565061578     0.604562530664    -0.118209763912    15.994914619570
         O           -0.319599061578    -1.483990469336    -0.833588763912    15.994914619570
         O           -0.184751061578    -0.717882469336     1.574894236088    15.994914619570
         C            2.393390938422     0.338248530664     0.204871236088    12.000000000000
         C            1.005367938422     0.785551530664    -0.259817763912    12.000000000000
         C            2.869254938422    -0.927691469336    -0.506346763912    12.000000000000
         C            3.372249938422     1.491057530664    -0.019516763912    12.000000000000
         C           -2.827713061578    -0.076090469336    -0.119125763912    12.000000000000
         C           -3.870946061578     1.007144530664    -0.258883763912    12.000000000000
         H            2.329562938422     0.137868530664     1.280953236088     1.007825032230
         H            0.963296938422     0.927618530664    -1.344346763912     1.007825032230
         H            0.705718938422     1.715109530664     0.233171236088     1.007825032230
         H            2.900367938422    -0.768832469336    -1.589772763912     1.007825032230
         H            2.219087938422    -1.783048469336    -0.312022763912     1.007825032230
         H            3.879056938422    -1.184529469336    -0.172776763912     1.007825032230
         H            3.449333938422     1.731204530664    -1.085386763912     1.007825032230
         H            3.059489938422     2.394240530664     0.513614236088     1.007825032230
         H            4.369698938422     1.216334530664     0.335819236088     1.007825032230
         H           -2.842903861578    -0.753181169336    -0.976802863912     1.007825032230
         H           -2.936247061578    -0.624717469336     0.821355236088     1.007825032230
         H           -3.815332061578     1.701951530664     0.581221236088     1.007825032230
         H           -3.722231061578     1.562216530664    -1.187331763912     1.007825032230
         H           -4.867818061578     0.557335530664    -0.276824763912     1.007825032230

  Basis Set: AUG-CC-PVTZ
    Blend: AUG-CC-PVTZ
  Basis Set: (AUG-CC-PVTZ AUX)
    Blend: AUG-CC-PVTZ-JKFIT
	 Reference Energy          =    -857.6263894563246595 [Eh]
	 Singles Energy            =      -0.0000000000000000 [Eh]
	 Same-Spin Energy          =      -0.5252914200830507 [Eh]
	 Opposite-Spin Energy      =      -1.6808258300252692 [Eh]
	 Correlation Energy        =      -2.2061172501083197 [Eh]
	 Total Energy              =    -859.8325067064329232 [Eh]

	 ================> DF-SCS-MP2 Energies <==================
	-----------------------------------------------------------
	 SCS Same-Spin Scale       =       0.3333333333333333 [-]
	 SCS Opposite-Spin Scale   =       1.2000000000000000 [-]
	 SCS Same-Spin Energy      =      -0.1750971400276836 [Eh]
	 SCS Opposite-Spin Energy  =      -2.0169909960303229 [Eh]
	 SCS Correlation Energy    =      -2.1920881360580067 [Eh]
	 SCS Total Energy          =    -859.8184775923826919 [Eh]
	-----------------------------------------------------------

  Dipole Moment: [D]
     X:    -0.0726      Y:     2.7174      Z:    -1.0487     Total:     2.9137

*** Psi4 exiting successfully. Buy a developer a beer!
