                               Psi4 1.4a3.dev225

  ==> Input File <==

--------------------------------------------------------------------------
#psi4
#
memory 32 gb

molecule  {
0 1
  S       -0.2946600    -0.4360860     0.1655790
  O       -1.5657890     0.5673500    -0.1009940
  O       -0.3508230    -1.5212030    -0.8163730
  O       -0.2159750    -0.7550950     1.5921100
  C        2.3621670     0.3010360     0.2220870
  C        0.9741440     0.7483390    -0.2426020
  C        2.8380310    -0.9649040    -0.4891310
  C        3.3410260     1.4538450    -0.0023010
  C       -2.8589370    -0.1133030    -0.1019100
  C       -3.9021700     0.9699320    -0.2416680
  H        2.2983390     0.1006560     1.2981690
  H        0.9320730     0.8904060    -1.3271310
  H        0.6744950     1.6778970     0.2503870
  H        2.9811731    -0.8297812    -1.5667526
  H        2.1878640    -1.8202610    -0.2948070
  H        3.8478330    -1.2217420    -0.1555610
  H        3.4181100     1.6939920    -1.0681710
  H        3.0282660     2.3570280     0.5308300
  H        4.3384750     1.1791220     0.3530350
  H       -2.8783840    -0.8196920    -0.9355340
  H       -2.9674710    -0.6619300     0.8385710
  H       -3.8465560     1.6647390     0.5984370
  H       -3.7534550     1.5250040    -1.1701160
  H       -4.8990420     0.5201230    -0.2596090
units angstrom
no_reorient  #important for SAPT in psi4, default
symmetry c1  #important for SAPT in psi4, default
}

set PROPERTIES_ORIGIN ["COM"]
properties('MP2/aug-cc-pvtz', properties = ['dipole'])
--------------------------------------------------------------------------

    Molecular point group: c1
  Charge       = 0
  Multiplicity = 1
  Basis Set: AUG-CC-PVTZ
    Blend: AUG-CC-PVTZ
  Basis Set: (AUG-CC-PVTZ AUX)
    Blend: AUG-CC-PVTZ-JKFIT

    Orbital Energies [Eh]
    ---------------------

    Doubly Occupied:

       1A    -92.213741     2A    -20.614823     3A    -20.553557
       4A    -20.553533     5A    -11.301850     6A    -11.277969
       7A    -11.252320     8A    -11.232979     9A    -11.229698
      10A    -11.218360    11A     -9.177995    12A     -6.863451
      13A     -6.862006    14A     -6.861831    15A     -1.480964
      16A     -1.375014    17A     -1.337350    18A     -1.120713
      19A     -1.051463    20A     -0.996827    21A     -0.942322
      22A     -0.877182    23A     -0.830960    24A     -0.788850
      25A     -0.725192    26A     -0.692841    27A     -0.690236
      28A     -0.656893    29A     -0.634299    30A     -0.615626
      31A     -0.606432    32A     -0.588821    33A     -0.567126
      34A     -0.559552    35A     -0.556363    36A     -0.539641
      37A     -0.536009    38A     -0.511038    39A     -0.500003
      40A     -0.495683    41A     -0.490335    42A     -0.485237
      43A     -0.483593    44A     -0.463280    45A     -0.453627

  @DF-RHF Final Energy:  -857.62537002666443

   => Energetics <=

    Nuclear Repulsion Energy =            722.3594965217336039
    One-Electron Energy =               -2612.2345562278046600
    Two-Electron Energy =                1032.2496896794068562
    Total Energy =                       -857.6253700266643136
  Basis Set: (AUG-CC-PVTZ AUX)
    Blend: AUG-CC-PVTZ-RI
    Molecular point group: c1

    Geometry (in Angstrom), charge = 0, multiplicity = 1:

       Center              X                  Y                   Z               Mass
    ------------   -----------------  -----------------  -----------------  -----------------
         S           -0.264090114710    -0.398551613092     0.148182036627    31.972071174400
         O           -1.535219114710     0.604884386908    -0.118390963373    15.994914619570
         O           -0.320253114710    -1.483668613092    -0.833769963373    15.994914619570
         O           -0.185405114710    -0.717560613092     1.574713036627    15.994914619570
         C            2.392736885290     0.338570386908     0.204690036627    12.000000000000
         C            1.004713885290     0.785873386908    -0.259998963373    12.000000000000
         C            2.868600885290    -0.927369613092    -0.506527963373    12.000000000000
         C            3.371595885290     1.491379386908    -0.019697963373    12.000000000000
         C           -2.828367114710    -0.075768613092    -0.119306963373    12.000000000000
         C           -3.871600114710     1.007466386908    -0.259064963373    12.000000000000
         H            2.328908885290     0.138190386908     1.280772036627     1.007825032230
         H            0.962642885290     0.927940386908    -1.344527963373     1.007825032230
         H            0.705064885290     1.715431386908     0.232990036627     1.007825032230
         H            3.011742985290    -0.792246813092    -1.584149563373     1.007825032230
         H            2.218433885290    -1.782726613092    -0.312203963373     1.007825032230
         H            3.878402885290    -1.184207613092    -0.172957963373     1.007825032230
         H            3.448679885290     1.731526386908    -1.085567963373     1.007825032230
         H            3.058835885290     2.394562386908     0.513433036627     1.007825032230
         H            4.369044885290     1.216656386908     0.335638036627     1.007825032230
         H           -2.847814114710    -0.782157613092    -0.952930963373     1.007825032230
         H           -2.936901114710    -0.624395613092     0.821174036627     1.007825032230
         H           -3.815986114710     1.702273386908     0.581040036627     1.007825032230
         H           -3.722885114710     1.562538386908    -1.187512963373     1.007825032230
         H           -4.868472114710     0.557657386908    -0.277005963373     1.007825032230

  Basis Set: AUG-CC-PVTZ
    Blend: AUG-CC-PVTZ
  Basis Set: (AUG-CC-PVTZ AUX)
    Blend: AUG-CC-PVTZ-JKFIT
	 Reference Energy          =    -857.6253700266644273 [Eh]
	 Singles Energy            =      -0.0000000000000000 [Eh]
	 Same-Spin Energy          =      -0.5252856060837519 [Eh]
	 Opposite-Spin Energy      =      -1.6807790876736788 [Eh]
	 Correlation Energy        =      -2.2060646937574306 [Eh]
	 Total Energy              =    -859.8314347204218393 [Eh]

	 ================> DF-SCS-MP2 Energies <==================
	-----------------------------------------------------------
	 SCS Same-Spin Scale       =       0.3333333333333333 [-]
	 SCS Opposite-Spin Scale   =       1.2000000000000000 [-]
	 SCS Same-Spin Energy      =      -0.1750952020279173 [Eh]
	 SCS Opposite-Spin Energy  =      -2.0169349052084145 [Eh]
	 SCS Correlation Energy    =      -2.1920301072363317 [Eh]
	 SCS Total Energy          =    -859.8174001339007191 [Eh]
	-----------------------------------------------------------

  Dipole Moment: [D]
     X:    -0.0316      Y:     2.7144      Z:    -1.0575     Total:     2.9133

*** Psi4 exiting successfully. Buy a developer a beer!
