                               Psi4 1.4a3.dev225

  ==> Input File <==

--------------------------------------------------------------------------
#psi4
#
memory 32 gb

molecule  {
0 1
  S       -0.2946600    -0.4360860     0.1655790
  O       -1.5657890     0.5673500    -0.1009940
  O       -0.3508230    -1.5212030    -0.8163730
  O       -0.2159750    -0.7550950     1.5921100
  C        2.3621670     0.3010360     0.2220870
  C        0.9741440     0.7483390    -0.2426020
  C        2.8380310    -0.9649040    -0.4891310
  C        3.3410260     1.4538450    -0.0023010
  C       -2.8589370    -0.1133030    -0.1019100
  C       -3.9021700     0.9699320    -0.2416680
  H        2.2983390     0.1006560     1.2981690
  H        0.9320730     0.8904060    -1.3271310
  H        0.6744950     1.6778970     0.2503870
  H        2.8691440    -0.8060450    -1.5725570
  H        2.1878640    -1.8202610    -0.2948070
  H        3.8478330    -1.2217420    -0.1555610
  H        3.4181100     1.6939920    -1.0681710
  H        3.0282660     2.3570280     0.5308300
  H        4.3384750     1.1791220     0.3530350
  H       -2.8783840    -0.8196920    -0.9355340
  H       -2.9674710    -0.6619300     0.8385710
  H       -3.8465560     1.6647390     0.5984370
  H       -3.7670749     1.4741684    -1.0850852
  H       -4.8990420     0.5201230    -0.2596090
units angstrom
no_reorient  #important for SAPT in psi4, default
symmetry c1  #important for SAPT in psi4, default
}

set PROPERTIES_ORIGIN ["COM"]
properties('MP2/aug-cc-pvtz', properties = ['dipole'])
--------------------------------------------------------------------------

    Molecular point group: c1
  Charge       = 0
  Multiplicity = 1
  Basis Set: AUG-CC-PVTZ
    Blend: AUG-CC-PVTZ
  Basis Set: (AUG-CC-PVTZ AUX)
    Blend: AUG-CC-PVTZ-JKFIT

    Orbital Energies [Eh]
    ---------------------

    Doubly Occupied:

       1A    -92.213745     2A    -20.614727     3A    -20.553584
       4A    -20.553434     5A    -11.300947     6A    -11.278087
       7A    -11.251455     8A    -11.229510     9A    -11.220729
      10A    -11.218586    11A     -9.177989    12A     -6.863445
      13A     -6.861999    14A     -6.861825    15A     -1.480906
      16A     -1.374957    17A     -1.337310    18A     -1.120929
      19A     -1.055332    20A     -0.998485    21A     -0.942318
      22A     -0.882775    23A     -0.832336    24A     -0.788002
      25A     -0.725034    26A     -0.694056    27A     -0.690760
      28A     -0.658582    29A     -0.635455    30A     -0.616341
      31A     -0.609400    32A     -0.586624    33A     -0.571763
      34A     -0.562451    35A     -0.554228    36A     -0.543859
      37A     -0.540848    38A     -0.510065    39A     -0.500016
      40A     -0.497956    41A     -0.490666    42A     -0.485408
      43A     -0.482586    44A     -0.463256    45A     -0.453579

  @DF-RHF Final Energy:  -857.62023586678606

   => Energetics <=

    Nuclear Repulsion Energy =            723.0228794104231156
    One-Electron Energy =               -2613.5135446024992234
    Two-Electron Energy =                1032.8704293252899333
    Total Energy =                       -857.6202358667860608
  Basis Set: (AUG-CC-PVTZ AUX)
    Blend: AUG-CC-PVTZ-RI
    Molecular point group: c1

    Geometry (in Angstrom), charge = 0, multiplicity = 1:

       Center              X                  Y                   Z               Mass
    ------------   -----------------  -----------------  -----------------  -----------------
         S           -0.263327574944    -0.398387152012     0.147701226748    31.972071174400
         O           -1.534456574944     0.605048847988    -0.118871773252    15.994914619570
         O           -0.319490574944    -1.483504152012    -0.834250773252    15.994914619570
         O           -0.184642574944    -0.717396152012     1.574232226748    15.994914619570
         C            2.393499425056     0.338734847988     0.204209226748    12.000000000000
         C            1.005476425056     0.786037847988    -0.260479773252    12.000000000000
         C            2.869363425056    -0.927205152012    -0.507008773252    12.000000000000
         C            3.372358425056     1.491543847988    -0.020178773252    12.000000000000
         C           -2.827604574944    -0.075604152012    -0.119787773252    12.000000000000
         C           -3.870837574944     1.007630847988    -0.259545773252    12.000000000000
         H            2.329671425056     0.138354847988     1.280291226748     1.007825032230
         H            0.963405425056     0.928104847988    -1.345008773252     1.007825032230
         H            0.705827425056     1.715595847988     0.232509226748     1.007825032230
         H            2.900476425056    -0.768346152012    -1.590434773252     1.007825032230
         H            2.219196425056    -1.782562152012    -0.312684773252     1.007825032230
         H            3.879165425056    -1.184043152012    -0.173438773252     1.007825032230
         H            3.449442425056     1.731690847988    -1.086048773252     1.007825032230
         H            3.059598425056     2.394726847988     0.512952226748     1.007825032230
         H            4.369807425056     1.216820847988     0.335157226748     1.007825032230
         H           -2.847051574944    -0.781993152012    -0.953411773252     1.007825032230
         H           -2.936138574944    -0.624231152012     0.820693226748     1.007825032230
         H           -3.815223574944     1.702437847988     0.580559226748     1.007825032230
         H           -3.735742474944     1.511867247988    -1.102962973252     1.007825032230
         H           -4.867709574944     0.557821847988    -0.277486773252     1.007825032230

  Basis Set: AUG-CC-PVTZ
    Blend: AUG-CC-PVTZ
  Basis Set: (AUG-CC-PVTZ AUX)
    Blend: AUG-CC-PVTZ-JKFIT
	 Reference Energy          =    -857.6202358667860608 [Eh]
	 Singles Energy            =      -0.0000000000000000 [Eh]
	 Same-Spin Energy          =      -0.5253571738230316 [Eh]
	 Opposite-Spin Energy      =      -1.6803812821328750 [Eh]
	 Correlation Energy        =      -2.2057384559559066 [Eh]
	 Total Energy              =    -859.8259743227420131 [Eh]

	 ================> DF-SCS-MP2 Energies <==================
	-----------------------------------------------------------
	 SCS Same-Spin Scale       =       0.3333333333333333 [-]
	 SCS Opposite-Spin Scale   =       1.2000000000000000 [-]
	 SCS Same-Spin Energy      =      -0.1751190579410105 [Eh]
	 SCS Opposite-Spin Energy  =      -2.0164575385594499 [Eh]
	 SCS Correlation Energy    =      -2.1915765965004605 [Eh]
	 SCS Total Energy          =    -859.8118124632865147 [Eh]
	-----------------------------------------------------------

  Dipole Moment: [D]
     X:    -0.0738      Y:     2.7329      Z:    -1.0738     Total:     2.9372

*** Psi4 exiting successfully. Buy a developer a beer!
