                               Psi4 1.4a3.dev225

  ==> Input File <==

--------------------------------------------------------------------------
#psi4
#
memory 32 gb

molecule  {
0 1
  S       -0.2946600    -0.4360860     0.1655790
  O       -1.5657890     0.5673500    -0.1009940
  O       -0.3508230    -1.5212030    -0.8163730
  O       -0.2159750    -0.7550950     1.5921100
  C        2.3621670     0.3010360     0.2220870
  C        0.9741440     0.7483390    -0.2426020
  C        2.8380310    -0.9649040    -0.4891310
  C        3.3410260     1.4538450    -0.0023010
  C       -2.8589370    -0.1133030    -0.1019100
  C       -3.9021700     0.9699320    -0.2416680
  H        2.2983390     0.1006560     1.2981690
  H        0.9320730     0.8904060    -1.3271310
  H        0.6744950     1.6778970     0.2503870
  H        2.8691440    -0.8060450    -1.5725570
  H        2.1878640    -1.8202610    -0.2948070
  H        3.8478330    -1.2217420    -0.1555610
  H        3.4181100     1.6939920    -1.0681710
  H        3.0282660     2.3570280     0.5308300
  H        4.3384750     1.1791220     0.3530350
  H       -2.8783840    -0.8196920    -0.9355340
  H       -2.9674710    -0.6619300     0.8385710
  H       -3.8465560     1.6647390     0.5984370
  H       -3.7534550     1.5250040    -1.1701160
  H       -4.9446111     0.4995613    -0.2604291
units angstrom
no_reorient  #important for SAPT in psi4, default
symmetry c1  #important for SAPT in psi4, default
}

set PROPERTIES_ORIGIN ["COM"]
properties('MP2/aug-cc-pvtz', properties = ['dipole'])
--------------------------------------------------------------------------

    Molecular point group: c1
  Charge       = 0
  Multiplicity = 1
  Basis Set: AUG-CC-PVTZ
    Blend: AUG-CC-PVTZ
  Basis Set: (AUG-CC-PVTZ AUX)
    Blend: AUG-CC-PVTZ-JKFIT

    Orbital Energies [Eh]
    ---------------------

    Doubly Occupied:

       1A    -92.214091     2A    -20.615245     3A    -20.553891
       4A    -20.553754     5A    -11.302345     6A    -11.278317
       7A    -11.251629     8A    -11.239033     9A    -11.229641
      10A    -11.218729    11A     -9.178336    12A     -6.863794
      13A     -6.862344    14A     -6.862169    15A     -1.481302
      16A     -1.375404    17A     -1.337624    18A     -1.121084
      19A     -1.050267    20A     -0.996027    21A     -0.942458
      22A     -0.874663    23A     -0.830705    24A     -0.788128
      25A     -0.724850    26A     -0.693163    27A     -0.690884
      28A     -0.657015    29A     -0.635248    30A     -0.616227
      31A     -0.606409    32A     -0.586376    33A     -0.564981
      34A     -0.559186    35A     -0.551052    36A     -0.542964
      37A     -0.535825    38A     -0.510191    39A     -0.500215
      40A     -0.497095    41A     -0.490629    42A     -0.485589
      43A     -0.482705    44A     -0.463547    45A     -0.453678

  @DF-RHF Final Energy:  -857.62444366884222

   => Energetics <=

    Nuclear Repulsion Energy =            722.3466214324575958
    One-Electron Energy =               -2612.2045144947246627
    Two-Electron Energy =                1032.2334493934249622
    Total Energy =                       -857.6244436688421047
  Basis Set: (AUG-CC-PVTZ AUX)
    Blend: AUG-CC-PVTZ-RI
    Molecular point group: c1

    Geometry (in Angstrom), charge = 0, multiplicity = 1:

       Center              X                  Y                   Z               Mass
    ------------   -----------------  -----------------  -----------------  -----------------
         S           -0.263133681355    -0.398570878525     0.148222239451    31.972071174400
         O           -1.534262681355     0.604865121475    -0.118350760549    15.994914619570
         O           -0.319296681355    -1.483687878525    -0.833729760549    15.994914619570
         O           -0.184448681355    -0.717579878525     1.574753239451    15.994914619570
         C            2.393693318645     0.338551121475     0.204730239451    12.000000000000
         C            1.005670318645     0.785854121475    -0.259958760549    12.000000000000
         C            2.869557318645    -0.927388878525    -0.506487760549    12.000000000000
         C            3.372552318645     1.491360121475    -0.019657760549    12.000000000000
         C           -2.827410681355    -0.075787878525    -0.119266760549    12.000000000000
         C           -3.870643681355     1.007447121475    -0.259024760549    12.000000000000
         H            2.329865318645     0.138171121475     1.280812239451     1.007825032230
         H            0.963599318645     0.927921121475    -1.344487760549     1.007825032230
         H            0.706021318645     1.715412121475     0.233030239451     1.007825032230
         H            2.900670318645    -0.768529878525    -1.589913760549     1.007825032230
         H            2.219390318645    -1.782745878525    -0.312163760549     1.007825032230
         H            3.879359318645    -1.184226878525    -0.172917760549     1.007825032230
         H            3.449636318645     1.731507121475    -1.085527760549     1.007825032230
         H            3.059792318645     2.394543121475     0.513473239451     1.007825032230
         H            4.370001318645     1.216637121475     0.335678239451     1.007825032230
         H           -2.846857681355    -0.782176878525    -0.952890760549     1.007825032230
         H           -2.935944681355    -0.624414878525     0.821214239451     1.007825032230
         H           -3.815029681355     1.702254121475     0.581080239451     1.007825032230
         H           -3.721928681355     1.562519121475    -1.187472760549     1.007825032230
         H           -4.913084781355     0.537076421475    -0.277785860549     1.007825032230

  Basis Set: AUG-CC-PVTZ
    Blend: AUG-CC-PVTZ
  Basis Set: (AUG-CC-PVTZ AUX)
    Blend: AUG-CC-PVTZ-JKFIT
	 Reference Energy          =    -857.6244436688422184 [Eh]
	 Singles Energy            =      -0.0000000000000000 [Eh]
	 Same-Spin Energy          =      -0.5252665604424723 [Eh]
	 Opposite-Spin Energy      =      -1.6811029358183487 [Eh]
	 Correlation Energy        =      -2.2063694962608209 [Eh]
	 Total Energy              =    -859.8308131651029953 [Eh]

	 ================> DF-SCS-MP2 Energies <==================
	-----------------------------------------------------------
	 SCS Same-Spin Scale       =       0.3333333333333333 [-]
	 SCS Opposite-Spin Scale   =       1.2000000000000000 [-]
	 SCS Same-Spin Energy      =      -0.1750888534808241 [Eh]
	 SCS Opposite-Spin Energy  =      -2.0173235229820183 [Eh]
	 SCS Correlation Energy    =      -2.1924123764628423 [Eh]
	 SCS Total Energy          =    -859.8168560453050304 [Eh]
	-----------------------------------------------------------

  Dipole Moment: [D]
     X:    -0.0359      Y:     2.7136      Z:    -1.0430     Total:     2.9073

*** Psi4 exiting successfully. Buy a developer a beer!
