                               Psi4 1.4a3.dev225

  ==> Input File <==

--------------------------------------------------------------------------
#psi4
#
memory 32 gb

molecule  {
0 1
  S       -0.3128168    -0.4581532     0.1675534
  O       -1.5657890     0.5673500    -0.1009940
  O       -0.3508230    -1.5212030    -0.8163730
  O       -0.2159750    -0.7550950     1.5921100
  C        2.3621670     0.3010360     0.2220870
  C        0.9741440     0.7483390    -0.2426020
  C        2.8380310    -0.9649040    -0.4891310
  C        3.3410260     1.4538450    -0.0023010
  C       -2.8589370    -0.1133030    -0.1019100
  C       -3.9021700     0.9699320    -0.2416680
  H        2.2983390     0.1006560     1.2981690
  H        0.9320730     0.8904060    -1.3271310
  H        0.6744950     1.6778970     0.2503870
  H        2.8691440    -0.8060450    -1.5725570
  H        2.1878640    -1.8202610    -0.2948070
  H        3.8478330    -1.2217420    -0.1555610
  H        3.4181100     1.6939920    -1.0681710
  H        3.0282660     2.3570280     0.5308300
  H        4.3384750     1.1791220     0.3530350
  H       -2.8783840    -0.8196920    -0.9355340
  H       -2.9674710    -0.6619300     0.8385710
  H       -3.8465560     1.6647390     0.5984370
  H       -3.7534550     1.5250040    -1.1701160
  H       -4.8990420     0.5201230    -0.2596090
units angstrom
no_reorient  #important for SAPT in psi4, default
symmetry c1  #important for SAPT in psi4, default
}

set PROPERTIES_ORIGIN ["COM"]
properties('MP2/aug-cc-pvtz', properties = ['dipole'])
--------------------------------------------------------------------------

    Molecular point group: c1
  Charge       = 0
  Multiplicity = 1
  Basis Set: AUG-CC-PVTZ
    Blend: AUG-CC-PVTZ
  Basis Set: (AUG-CC-PVTZ AUX)
    Blend: AUG-CC-PVTZ-JKFIT

    Orbital Energies [Eh]
    ---------------------

    Doubly Occupied:

       1A    -92.212829     2A    -20.615743     3A    -20.557322
       4A    -20.554717     5A    -11.302601     6A    -11.275447
       7A    -11.248889     8A    -11.233517     9A    -11.227839
      10A    -11.217529    11A     -9.177141    12A     -6.862612
      13A     -6.861166    14A     -6.861062    15A     -1.486040
      16A     -1.378940    17A     -1.345643    18A     -1.116208
      19A     -1.050782    20A     -0.990374    21A     -0.940861
      22A     -0.876538    23A     -0.831317    24A     -0.786266
      25A     -0.725046    26A     -0.694130    27A     -0.690819
      28A     -0.655945    29A     -0.636795    30A     -0.615212
      31A     -0.607652    32A     -0.586052    33A     -0.567411
      34A     -0.559711    35A     -0.554648    36A     -0.542862
      37A     -0.538615    38A     -0.510649    39A     -0.502581
      40A     -0.498309    41A     -0.489413    42A     -0.487099
      43A     -0.481150    44A     -0.466565    45A     -0.449535

  @DF-RHF Final Energy:  -857.62675115283196

   => Energetics <=

    Nuclear Repulsion Energy =            722.5408875616844853
    One-Electron Energy =               -2612.5921123706489198
    Two-Electron Energy =                1032.4244736561324771
    Total Energy =                       -857.6267511528319574
  Basis Set: (AUG-CC-PVTZ AUX)
    Blend: AUG-CC-PVTZ-RI
    Molecular point group: c1

    Geometry (in Angstrom), charge = 0, multiplicity = 1:

       Center              X                  Y                   Z               Mass
    ------------   -----------------  -----------------  -----------------  -----------------
         S           -0.278071377832    -0.416514356717     0.149811539347    31.972071174400
         O           -1.531043577832     0.608988843283    -0.118735860653    15.994914619570
         O           -0.316077577832    -1.479564156717    -0.834114860653    15.994914619570
         O           -0.181229577832    -0.713456156717     1.574368139347    15.994914619570
         C            2.396912422168     0.342674843283     0.204345139347    12.000000000000
         C            1.008889422168     0.789977843283    -0.260343860653    12.000000000000
         C            2.872776422168    -0.923265156717    -0.506872860653    12.000000000000
         C            3.375771422168     1.495483843283    -0.020042860653    12.000000000000
         C           -2.824191577832    -0.071664156717    -0.119651860653    12.000000000000
         C           -3.867424577832     1.011570843283    -0.259409860653    12.000000000000
         H            2.333084422168     0.142294843283     1.280427139347     1.007825032230
         H            0.966818422168     0.932044843283    -1.344872860653     1.007825032230
         H            0.709240422168     1.719535843283     0.232645139347     1.007825032230
         H            2.903889422168    -0.764406156717    -1.590298860653     1.007825032230
         H            2.222609422168    -1.778622156717    -0.312548860653     1.007825032230
         H            3.882578422168    -1.180103156717    -0.173302860653     1.007825032230
         H            3.452855422168     1.735630843283    -1.085912860653     1.007825032230
         H            3.063011422168     2.398666843283     0.513088139347     1.007825032230
         H            4.373220422168     1.220760843283     0.335293139347     1.007825032230
         H           -2.843638577832    -0.778053156717    -0.953275860653     1.007825032230
         H           -2.932725577832    -0.620291156717     0.820829139347     1.007825032230
         H           -3.811810577832     1.706377843283     0.580695139347     1.007825032230
         H           -3.718709577832     1.566642843283    -1.187857860653     1.007825032230
         H           -4.864296577832     0.561761843283    -0.277350860653     1.007825032230

  Basis Set: AUG-CC-PVTZ
    Blend: AUG-CC-PVTZ
  Basis Set: (AUG-CC-PVTZ AUX)
    Blend: AUG-CC-PVTZ-JKFIT
	 Reference Energy          =    -857.6267511528319574 [Eh]
	 Singles Energy            =      -0.0000000000000000 [Eh]
	 Same-Spin Energy          =      -0.5249121702775864 [Eh]
	 Opposite-Spin Energy      =      -1.6803389711514516 [Eh]
	 Correlation Energy        =      -2.2052511414290379 [Eh]
	 Total Energy              =    -859.8320022942609739 [Eh]

	 ================> DF-SCS-MP2 Energies <==================
	-----------------------------------------------------------
	 SCS Same-Spin Scale       =       0.3333333333333333 [-]
	 SCS Opposite-Spin Scale   =       1.2000000000000000 [-]
	 SCS Same-Spin Energy      =      -0.1749707234258621 [Eh]
	 SCS Opposite-Spin Energy  =      -2.0164067653817419 [Eh]
	 SCS Correlation Energy    =      -2.1913774888076039 [Eh]
	 SCS Total Energy          =    -859.8181286416395324 [Eh]
	-----------------------------------------------------------

  Dipole Moment: [D]
     X:    -0.2415      Y:     2.5366      Z:    -1.0362     Total:     2.7507

*** Psi4 exiting successfully. Buy a developer a beer!
