                               Psi4 1.4a3.dev225

  ==> Input File <==

--------------------------------------------------------------------------
#psi4
#
memory 32 gb

molecule  {
0 1
  S       -0.2946600    -0.4360860     0.1655790
  O       -1.5657890     0.5673500    -0.1009940
  O       -0.3508230    -1.5212030    -0.8163730
  O       -0.2159750    -0.7550950     1.5921100
  C        2.3621670     0.3010360     0.2220870
  C        0.9741440     0.7483390    -0.2426020
  C        2.8380310    -0.9649040    -0.4891310
  C        3.3410260     1.4538450    -0.0023010
  C       -2.8589370    -0.1133030    -0.1019100
  C       -3.9021700     0.9699320    -0.2416680
  H        2.2983390     0.1006560     1.2981690
  H        0.9320730     0.8904060    -1.3271310
  H        0.6744950     1.6778970     0.2503870
  H        2.8691440    -0.8060450    -1.5725570
  H        2.1878640    -1.8202610    -0.2948070
  H        3.8478330    -1.2217420    -0.1555610
  H        3.4181100     1.6939920    -1.0681710
  H        3.0282660     2.3570280     0.5308300
  H        4.3384750     1.1791220     0.3530350
  H       -2.8909898    -0.9022858    -0.8574041
  H       -2.9674710    -0.6619300     0.8385710
  H       -3.8465560     1.6647390     0.5984370
  H       -3.7534550     1.5250040    -1.1701160
  H       -4.8990420     0.5201230    -0.2596090
units angstrom
no_reorient  #important for SAPT in psi4, default
symmetry c1  #important for SAPT in psi4, default
}

set PROPERTIES_ORIGIN ["COM"]
properties('MP2/aug-cc-pvtz', properties = ['dipole'])
--------------------------------------------------------------------------

    Molecular point group: c1
  Charge       = 0
  Multiplicity = 1
  Basis Set: AUG-CC-PVTZ
    Blend: AUG-CC-PVTZ
  Basis Set: (AUG-CC-PVTZ AUX)
    Blend: AUG-CC-PVTZ-JKFIT

    Orbital Energies [Eh]
    ---------------------

    Doubly Occupied:

       1A    -92.214164     2A    -20.616143     3A    -20.554019
       4A    -20.553722     5A    -11.301569     6A    -11.278325
       7A    -11.251619     8A    -11.233762     9A    -11.229621
      10A    -11.218728    11A     -9.178413    12A     -6.863874
      13A     -6.862421    14A     -6.862245    15A     -1.481368
      16A     -1.375367    17A     -1.337670    18A     -1.121074
      19A     -1.051038    20A     -0.996807    21A     -0.942449
      22A     -0.877797    23A     -0.833381    24A     -0.788261
      25A     -0.726511    26A     -0.691366    27A     -0.689616
      28A     -0.655074    29A     -0.634039    30A     -0.616254
      31A     -0.607364    32A     -0.587017    33A     -0.567471
      34A     -0.558997    35A     -0.554829    36A     -0.544302
      37A     -0.540285    38A     -0.510079    39A     -0.501925
      40A     -0.494640    41A     -0.489985    42A     -0.484834
      43A     -0.482290    44A     -0.462658    45A     -0.453935

  @DF-RHF Final Energy:  -857.62496601952228

   => Energetics <=

    Nuclear Repulsion Energy =            722.5313100349229671
    One-Electron Energy =               -2612.5579395787890462
    Two-Electron Energy =                1032.4016635243435758
    Total Energy =                       -857.6249660195223896
  Basis Set: (AUG-CC-PVTZ AUX)
    Blend: AUG-CC-PVTZ-RI
    Molecular point group: c1

    Geometry (in Angstrom), charge = 0, multiplicity = 1:

       Center              X                  Y                   Z               Mass
    ------------   -----------------  -----------------  -----------------  -----------------
         S           -0.263333729323    -0.398194417566     0.147743106991    31.972071174400
         O           -1.534462729323     0.605241582434    -0.118829893009    15.994914619570
         O           -0.319496729323    -1.483311417566    -0.834208893009    15.994914619570
         O           -0.184648729323    -0.717203417566     1.574274106991    15.994914619570
         C            2.393493270677     0.338927582434     0.204251106991    12.000000000000
         C            1.005470270677     0.786230582434    -0.260437893009    12.000000000000
         C            2.869357270677    -0.927012417566    -0.506966893009    12.000000000000
         C            3.372352270677     1.491736582434    -0.020136893009    12.000000000000
         C           -2.827610729323    -0.075411417566    -0.119745893009    12.000000000000
         C           -3.870843729323     1.007823582434    -0.259503893009    12.000000000000
         H            2.329665270677     0.138547582434     1.280333106991     1.007825032230
         H            0.963399270677     0.928297582434    -1.344966893009     1.007825032230
         H            0.705821270677     1.715788582434     0.232551106991     1.007825032230
         H            2.900470270677    -0.768153417566    -1.590392893009     1.007825032230
         H            2.219190270677    -1.782369417566    -0.312642893009     1.007825032230
         H            3.879159270677    -1.183850417566    -0.173396893009     1.007825032230
         H            3.449436270677     1.731883582434    -1.086006893009     1.007825032230
         H            3.059592270677     2.394919582434     0.512994106991     1.007825032230
         H            4.369801270677     1.217013582434     0.335199106991     1.007825032230
         H           -2.859663529323    -0.864394217566    -0.875239993009     1.007825032230
         H           -2.936144729323    -0.624038417566     0.820735106991     1.007825032230
         H           -3.815229729323     1.702630582434     0.580601106991     1.007825032230
         H           -3.722128729323     1.562895582434    -1.187951893009     1.007825032230
         H           -4.867715729323     0.558014582434    -0.277444893009     1.007825032230

  Basis Set: AUG-CC-PVTZ
    Blend: AUG-CC-PVTZ
  Basis Set: (AUG-CC-PVTZ AUX)
    Blend: AUG-CC-PVTZ-JKFIT
	 Reference Energy          =    -857.6249660195222759 [Eh]
	 Singles Energy            =      -0.0000000000000000 [Eh]
	 Same-Spin Energy          =      -0.5253616136391560 [Eh]
	 Opposite-Spin Energy      =      -1.6808484074584398 [Eh]
	 Correlation Energy        =      -2.2062100210975957 [Eh]
	 Total Energy              =    -859.8311760406198800 [Eh]

	 ================> DF-SCS-MP2 Energies <==================
	-----------------------------------------------------------
	 SCS Same-Spin Scale       =       0.3333333333333333 [-]
	 SCS Opposite-Spin Scale   =       1.2000000000000000 [-]
	 SCS Same-Spin Energy      =      -0.1751205378797187 [Eh]
	 SCS Opposite-Spin Energy  =      -2.0170180889501275 [Eh]
	 SCS Correlation Energy    =      -2.1921386268298462 [Eh]
	 SCS Total Energy          =    -859.8171046463521634 [Eh]
	-----------------------------------------------------------

  Dipole Moment: [D]
     X:    -0.0456      Y:     2.6842      Z:    -1.0265     Total:     2.8742

*** Psi4 exiting successfully. Buy a developer a beer!
