                               Psi4 1.4a3.dev225

  ==> Input File <==

--------------------------------------------------------------------------
#psi4
#
memory 32 gb

molecule  {
0 1
  S       -0.4092112    -0.5636727     0.1761871
  O       -1.5657890     0.5673500    -0.1009940
  O       -0.3508230    -1.5212030    -0.8163730
  O       -0.2159750    -0.7550950     1.5921100
  C        2.3621670     0.3010360     0.2220870
  C        0.9741440     0.7483390    -0.2426020
  C        2.8380310    -0.9649040    -0.4891310
  C        3.3410260     1.4538450    -0.0023010
  C       -2.8589370    -0.1133030    -0.1019100
  C       -3.9021700     0.9699320    -0.2416680
  H        2.2983390     0.1006560     1.2981690
  H        0.9320730     0.8904060    -1.3271310
  H        0.6744950     1.6778970     0.2503870
  H        2.8691440    -0.8060450    -1.5725570
  H        2.1878640    -1.8202610    -0.2948070
  H        3.8478330    -1.2217420    -0.1555610
  H        3.4181100     1.6939920    -1.0681710
  H        3.0282660     2.3570280     0.5308300
  H        4.3384750     1.1791220     0.3530350
  H       -2.8783840    -0.8196920    -0.9355340
  H       -2.9674710    -0.6619300     0.8385710
  H       -3.8465560     1.6647390     0.5984370
  H       -3.7534550     1.5250040    -1.1701160
  H       -4.8990420     0.5201230    -0.2596090
units angstrom
no_reorient  #important for SAPT in psi4, default
symmetry c1  #important for SAPT in psi4, default
}

set PROPERTIES_ORIGIN ["COM"]
properties('MP2/aug-cc-pvtz', properties = ['dipole'])
--------------------------------------------------------------------------

    Molecular point group: c1
  Charge       = 0
  Multiplicity = 1
  Basis Set: AUG-CC-PVTZ
    Blend: AUG-CC-PVTZ
  Basis Set: (AUG-CC-PVTZ AUX)
    Blend: AUG-CC-PVTZ-JKFIT

    Orbital Energies [Eh]
    ---------------------

    Doubly Occupied:

       1A    -92.209553     2A    -20.621674     3A    -20.575859
       4A    -20.561482     5A    -11.307397     6A    -11.258264
       7A    -11.236724     8A    -11.235951     9A    -11.218937
      10A    -11.211485    11A     -9.175110    12A     -6.860550
      13A     -6.859725    14A     -6.858679    15A     -1.514987
      16A     -1.401447    17A     -1.372694    18A     -1.096326
      19A     -1.050362    20A     -0.958179    21A     -0.932906
      22A     -0.875161    23A     -0.837612    24A     -0.776124
      25A     -0.729630    26A     -0.703127    27A     -0.694279
      28A     -0.659226    29A     -0.637380    30A     -0.619451
      31A     -0.603767    32A     -0.583051    33A     -0.569711
      34A     -0.563853    35A     -0.553304    36A     -0.546452
      37A     -0.535746    38A     -0.519469    39A     -0.513366
      40A     -0.509080    41A     -0.488459    42A     -0.479902
      43A     -0.476799    44A     -0.470837    45A     -0.416184

  @DF-RHF Final Energy:  -857.59790732286831

   => Energetics <=

    Nuclear Repulsion Energy =            722.1296970578034689
    One-Electron Energy =               -2611.6946877388290886
    Two-Electron Energy =                1031.9670833581571969
    Total Energy =                       -857.5979073228684229
  Basis Set: (AUG-CC-PVTZ AUX)
    Blend: AUG-CC-PVTZ-RI
    Molecular point group: c1

    Geometry (in Angstrom), charge = 0, multiplicity = 1:

       Center              X                  Y                   Z               Mass
    ------------   -----------------  -----------------  -----------------  -----------------
         S           -0.355907362293    -0.501718623379     0.156783028760    31.972071174400
         O           -1.512485162293     0.629304076621    -0.120398071240    15.994914619570
         O           -0.297519162293    -1.459248923379    -0.835777071240    15.994914619570
         O           -0.162671162293    -0.693140923379     1.572705928760    15.994914619570
         C            2.415470837707     0.362990076621     0.202682928760    12.000000000000
         C            1.027447837707     0.810293076621    -0.262006071240    12.000000000000
         C            2.891334837707    -0.902949923379    -0.508535071240    12.000000000000
         C            3.394329837707     1.515799076621    -0.021705071240    12.000000000000
         C           -2.805633162293    -0.051348923379    -0.121314071240    12.000000000000
         C           -3.848866162293     1.031886076621    -0.261072071240    12.000000000000
         H            2.351642837707     0.162610076621     1.278764928760     1.007825032230
         H            0.985376837707     0.952360076621    -1.346535071240     1.007825032230
         H            0.727798837707     1.739851076621     0.230982928760     1.007825032230
         H            2.922447837707    -0.744090923379    -1.591961071240     1.007825032230
         H            2.241167837707    -1.758306923379    -0.314211071240     1.007825032230
         H            3.901136837707    -1.159787923379    -0.174965071240     1.007825032230
         H            3.471413837707     1.755946076621    -1.087575071240     1.007825032230
         H            3.081569837707     2.418982076621     0.511425928760     1.007825032230
         H            4.391778837707     1.241076076621     0.333630928760     1.007825032230
         H           -2.825080162293    -0.757737923379    -0.954938071240     1.007825032230
         H           -2.914167162293    -0.599975923379     0.819166928760     1.007825032230
         H           -3.793252162293     1.726693076621     0.579032928760     1.007825032230
         H           -3.700151162293     1.586958076621    -1.189520071240     1.007825032230
         H           -4.845738162293     0.582077076621    -0.279013071240     1.007825032230

  Basis Set: AUG-CC-PVTZ
    Blend: AUG-CC-PVTZ
  Basis Set: (AUG-CC-PVTZ AUX)
    Blend: AUG-CC-PVTZ-JKFIT
	 Reference Energy          =    -857.5979073228683092 [Eh]
	 Singles Energy            =      -0.0000000000000000 [Eh]
	 Same-Spin Energy          =      -0.5244880293225392 [Eh]
	 Opposite-Spin Energy      =      -1.6809470867108218 [Eh]
	 Correlation Energy        =      -2.2054351160333612 [Eh]
	 Total Energy              =    -859.8033424389017227 [Eh]

	 ================> DF-SCS-MP2 Energies <==================
	-----------------------------------------------------------
	 SCS Same-Spin Scale       =       0.3333333333333333 [-]
	 SCS Opposite-Spin Scale   =       1.2000000000000000 [-]
	 SCS Same-Spin Energy      =      -0.1748293431075131 [Eh]
	 SCS Opposite-Spin Energy  =      -2.0171365040529863 [Eh]
	 SCS Correlation Energy    =      -2.1919658471604992 [Eh]
	 SCS Total Energy          =    -859.7898731700288408 [Eh]
	-----------------------------------------------------------

  Dipole Moment: [D]
     X:    -1.2218      Y:     1.6814      Z:    -0.9850     Total:     2.3000

*** Psi4 exiting successfully. Buy a developer a beer!
