                               Psi4 1.4a3.dev225

  ==> Input File <==

--------------------------------------------------------------------------
#psi4
#
memory 32 gb

molecule  {
0 1
  S       -0.2946600    -0.4360860     0.1655790
  O       -1.5657890     0.5673500    -0.1009940
  O       -0.3508230    -1.5212030    -0.8163730
  O       -0.2159750    -0.7550950     1.5921100
  C        2.3621670     0.3010360     0.2220870
  C        0.9741440     0.7483390    -0.2426020
  C        2.8380310    -0.9649040    -0.4891310
  C        3.3410260     1.4538450    -0.0023010
  C       -2.8589370    -0.1133030    -0.1019100
  C       -3.9021700     0.9699320    -0.2416680
  H        2.2983390     0.1006560     1.2981690
  H        0.9320730     0.8904060    -1.3271310
  H        0.6744950     1.6778970     0.2503870
  H        2.8691440    -0.8060450    -1.5725570
  H        2.1878640    -1.8202610    -0.2948070
  H        3.8478330    -1.2217420    -0.1555610
  H        3.4181100     1.6939920    -1.0681710
  H        3.0282660     2.3570280     0.5308300
  H        4.3384750     1.1791220     0.3530350
  H       -2.8783840    -0.8196920    -0.9355340
  H       -2.9674710    -0.6619300     0.8385710
  H       -3.8527387     1.6355442     0.6221277
  H       -3.7534550     1.5250040    -1.1701160
  H       -4.8990420     0.5201230    -0.2596090
units angstrom
no_reorient  #important for SAPT in psi4, default
symmetry c1  #important for SAPT in psi4, default
}

set PROPERTIES_ORIGIN ["COM"]
properties('MP2/aug-cc-pvtz', properties = ['dipole'])
--------------------------------------------------------------------------

    Molecular point group: c1
  Charge       = 0
  Multiplicity = 1
  Basis Set: AUG-CC-PVTZ
    Blend: AUG-CC-PVTZ
  Basis Set: (AUG-CC-PVTZ AUX)
    Blend: AUG-CC-PVTZ-JKFIT

    Orbital Energies [Eh]
    ---------------------

    Doubly Occupied:

       1A    -92.213802     2A    -20.614840     3A    -20.553633
       4A    -20.553522     5A    -11.301639     6A    -11.278100
       7A    -11.251472     8A    -11.233129     9A    -11.229511
      10A    -11.218600    11A     -9.178049    12A     -6.863505
      13A     -6.862060    14A     -6.861886    15A     -1.480996
      16A     -1.375040    17A     -1.337389    18A     -1.120918
      19A     -1.051699    20A     -0.996773    21A     -0.942326
      22A     -0.876794    23A     -0.830481    24A     -0.788016
      25A     -0.725185    26A     -0.693145    27A     -0.690534
      28A     -0.657068    29A     -0.635226    30A     -0.616062
      31A     -0.606091    32A     -0.586690    33A     -0.567816
      34A     -0.560131    35A     -0.554445    36A     -0.543361
      37A     -0.535937    38A     -0.510022    39A     -0.499768
      40A     -0.497291    41A     -0.490530    42A     -0.485444
      43A     -0.482563    44A     -0.463307    45A     -0.453627

  @DF-RHF Final Energy:  -857.62634404268044

   => Energetics <=

    Nuclear Repulsion Energy =            722.5922301237609418
    One-Electron Energy =               -2612.7003020264155566
    Two-Electron Energy =                1032.4817278599739439
    Total Energy =                       -857.6263440426805573
  Basis Set: (AUG-CC-PVTZ AUX)
    Blend: AUG-CC-PVTZ-RI
    Molecular point group: c1

    Geometry (in Angstrom), charge = 0, multiplicity = 1:

       Center              X                  Y                   Z               Mass
    ------------   -----------------  -----------------  -----------------  -----------------
         S           -0.263372709889    -0.398518485891     0.148073488091    31.972071174400
         O           -1.534501709889     0.604917514109    -0.118499511909    15.994914619570
         O           -0.319535709889    -1.483635485891    -0.833878511909    15.994914619570
         O           -0.184687709889    -0.717527485891     1.574604488091    15.994914619570
         C            2.393454290111     0.338603514109     0.204581488091    12.000000000000
         C            1.005431290111     0.785906514109    -0.260107511909    12.000000000000
         C            2.869318290111    -0.927336485891    -0.506636511909    12.000000000000
         C            3.372313290111     1.491412514109    -0.019806511909    12.000000000000
         C           -2.827649709889    -0.075735485891    -0.119415511909    12.000000000000
         C           -3.870882709889     1.007499514109    -0.259173511909    12.000000000000
         H            2.329626290111     0.138223514109     1.280663488091     1.007825032230
         H            0.963360290111     0.927973514109    -1.344636511909     1.007825032230
         H            0.705782290111     1.715464514109     0.232881488091     1.007825032230
         H            2.900431290111    -0.768477485891    -1.590062511909     1.007825032230
         H            2.219151290111    -1.782693485891    -0.312312511909     1.007825032230
         H            3.879120290111    -1.184174485891    -0.173066511909     1.007825032230
         H            3.449397290111     1.731559514109    -1.085676511909     1.007825032230
         H            3.059553290111     2.394595514109     0.513324488091     1.007825032230
         H            4.369762290111     1.216689514109     0.335529488091     1.007825032230
         H           -2.847096709889    -0.782124485891    -0.953039511909     1.007825032230
         H           -2.936183709889    -0.624362485891     0.821065488091     1.007825032230
         H           -3.821451409889     1.673111714109     0.604622188091     1.007825032230
         H           -3.722167709889     1.562571514109    -1.187621511909     1.007825032230
         H           -4.867754709889     0.557690514109    -0.277114511909     1.007825032230

  Basis Set: AUG-CC-PVTZ
    Blend: AUG-CC-PVTZ
  Basis Set: (AUG-CC-PVTZ AUX)
    Blend: AUG-CC-PVTZ-JKFIT
	 Reference Energy          =    -857.6263440426804436 [Eh]
	 Singles Energy            =      -0.0000000000000000 [Eh]
	 Same-Spin Energy          =      -0.5253066678514124 [Eh]
	 Opposite-Spin Energy      =      -1.6808333053318560 [Eh]
	 Correlation Energy        =      -2.2061399731832685 [Eh]
	 Total Energy              =    -859.8324840158636562 [Eh]

	 ================> DF-SCS-MP2 Energies <==================
	-----------------------------------------------------------
	 SCS Same-Spin Scale       =       0.3333333333333333 [-]
	 SCS Opposite-Spin Scale   =       1.2000000000000000 [-]
	 SCS Same-Spin Energy      =      -0.1751022226171375 [Eh]
	 SCS Opposite-Spin Energy  =      -2.0169999663982270 [Eh]
	 SCS Correlation Energy    =      -2.1921021890153645 [Eh]
	 SCS Total Energy          =    -859.8184462316958161 [Eh]
	-----------------------------------------------------------

  Dipole Moment: [D]
     X:    -0.0737      Y:     2.7015      Z:    -1.0401     Total:     2.8957

*** Psi4 exiting successfully. Buy a developer a beer!
