                               Psi4 1.4a3.dev225

  ==> Input File <==

--------------------------------------------------------------------------
#psi4
#
memory 32 gb

molecule  {
0 1
  S       -0.2946600    -0.4360860     0.1655790
  O       -1.5657890     0.5673500    -0.1009940
  O       -0.3508230    -1.5212030    -0.8163730
  O       -0.2159750    -0.7550950     1.5921100
  C        2.3621670     0.3010360     0.2220870
  C        0.9741440     0.7483390    -0.2426020
  C        2.8380310    -0.9649040    -0.4891310
  C        3.3410260     1.4538450    -0.0023010
  C       -2.8589370    -0.1133030    -0.1019100
  C       -3.9021700     0.9699320    -0.2416680
  H        2.2983390     0.1006560     1.2981690
  H        0.9320730     0.8904060    -1.3271310
  H        0.6744950     1.6778970     0.2503870
  H        2.8691440    -0.8060450    -1.5725570
  H        2.1878640    -1.8202610    -0.2948070
  H        3.8478330    -1.2217420    -0.1555610
  H        3.4181100     1.6939920    -1.0681710
  H        3.0282660     2.3570280     0.5308300
  H        4.3384750     1.1791220     0.3530350
  H       -2.8819430    -0.9489682    -1.0880955
  H       -2.9674710    -0.6619300     0.8385710
  H       -3.8465560     1.6647390     0.5984370
  H       -3.7534550     1.5250040    -1.1701160
  H       -4.8990420     0.5201230    -0.2596090
units angstrom
no_reorient  #important for SAPT in psi4, default
symmetry c1  #important for SAPT in psi4, default
}

set PROPERTIES_ORIGIN ["COM"]
properties('MP2/aug-cc-pvtz', properties = ['dipole'])
--------------------------------------------------------------------------

    Molecular point group: c1
  Charge       = 0
  Multiplicity = 1
  Basis Set: AUG-CC-PVTZ
    Blend: AUG-CC-PVTZ
  Basis Set: (AUG-CC-PVTZ AUX)
    Blend: AUG-CC-PVTZ-JKFIT

    Orbital Energies [Eh]
    ---------------------

    Doubly Occupied:

       1A    -92.214460     2A    -20.617985     3A    -20.554202
       4A    -20.553545     5A    -11.322569     6A    -11.278655
       7A    -11.251846     8A    -11.234586     9A    -11.229801
      10A    -11.218805    11A     -9.178704    12A     -6.864180
      13A     -6.862703    14A     -6.862523    15A     -1.481843
      16A     -1.376253    17A     -1.337632    18A     -1.121225
      19A     -1.047791    20A     -0.996775    21A     -0.942576
      22A     -0.873763    23A     -0.821344    24A     -0.788424
      25A     -0.725596    26A     -0.691684    27A     -0.682376
      28A     -0.654176    29A     -0.630210    30A     -0.616644
      31A     -0.607123    32A     -0.586785    33A     -0.567932
      34A     -0.559670    35A     -0.555296    36A     -0.543577
      37A     -0.535710    38A     -0.509794    39A     -0.499260
      40A     -0.491532    41A     -0.488284    42A     -0.483902
      43A     -0.476363    44A     -0.458357    45A     -0.454245

  @DF-RHF Final Energy:  -857.60530595145838

   => Energetics <=

    Nuclear Repulsion Energy =            721.6883892887459524
    One-Electron Energy =               -2610.8859751040058654
    Two-Electron Energy =                1031.5922798638016502
    Total Energy =                       -857.6053059514583765
  Basis Set: (AUG-CC-PVTZ AUX)
    Blend: AUG-CC-PVTZ-RI
    Molecular point group: c1

    Geometry (in Angstrom), charge = 0, multiplicity = 1:

       Center              X                  Y                   Z               Mass
    ------------   -----------------  -----------------  -----------------  -----------------
         S           -0.263388632623    -0.397911111003     0.149143129006    31.972071174400
         O           -1.534517632623     0.605524888997    -0.117429870994    15.994914619570
         O           -0.319551632623    -1.483028111003    -0.832808870994    15.994914619570
         O           -0.184703632623    -0.716920111003     1.575674129006    15.994914619570
         C            2.393438367377     0.339210888997     0.205651129006    12.000000000000
         C            1.005415367377     0.786513888997    -0.259037870994    12.000000000000
         C            2.869302367377    -0.926729111003    -0.505566870994    12.000000000000
         C            3.372297367377     1.492019888997    -0.018736870994    12.000000000000
         C           -2.827665632623    -0.075128111003    -0.118345870994    12.000000000000
         C           -3.870898632623     1.008106888997    -0.258103870994    12.000000000000
         H            2.329610367377     0.138830888997     1.281733129006     1.007825032230
         H            0.963344367377     0.928580888997    -1.343566870994     1.007825032230
         H            0.705766367377     1.716071888997     0.233951129006     1.007825032230
         H            2.900415367377    -0.767870111003    -1.588992870994     1.007825032230
         H            2.219135367377    -1.782086111003    -0.311242870994     1.007825032230
         H            3.879104367377    -1.183567111003    -0.171996870994     1.007825032230
         H            3.449381367377     1.732166888997    -1.084606870994     1.007825032230
         H            3.059537367377     2.395202888997     0.514394129006     1.007825032230
         H            4.369746367377     1.217296888997     0.336599129006     1.007825032230
         H           -2.850671632623    -0.910793311003    -1.104531370994     1.007825032230
         H           -2.936199632623    -0.623755111003     0.822135129006     1.007825032230
         H           -3.815284632623     1.702913888997     0.582001129006     1.007825032230
         H           -3.722183632623     1.563178888997    -1.186551870994     1.007825032230
         H           -4.867770632623     0.558297888997    -0.276044870994     1.007825032230

  Basis Set: AUG-CC-PVTZ
    Blend: AUG-CC-PVTZ
  Basis Set: (AUG-CC-PVTZ AUX)
    Blend: AUG-CC-PVTZ-JKFIT
	 Reference Energy          =    -857.6053059514583765 [Eh]
	 Singles Energy            =      -0.0000000000000000 [Eh]
	 Same-Spin Energy          =      -0.5258375536940101 [Eh]
	 Opposite-Spin Energy      =      -1.6830459978174022 [Eh]
	 Correlation Energy        =      -2.2088835515114122 [Eh]
	 Total Energy              =    -859.8141895029698389 [Eh]

	 ================> DF-SCS-MP2 Energies <==================
	-----------------------------------------------------------
	 SCS Same-Spin Scale       =       0.3333333333333333 [-]
	 SCS Opposite-Spin Scale   =       1.2000000000000000 [-]
	 SCS Same-Spin Energy      =      -0.1752791845646700 [Eh]
	 SCS Opposite-Spin Energy  =      -2.0196551973808825 [Eh]
	 SCS Correlation Energy    =      -2.1949343819455525 [Eh]
	 SCS Total Energy          =    -859.8002403334039627 [Eh]
	-----------------------------------------------------------

  Dipole Moment: [D]
     X:     0.0045      Y:     2.7781      Z:    -0.9838     Total:     2.9472

*** Psi4 exiting successfully. Buy a developer a beer!
