                               Psi4 1.4a3.dev225

  ==> Input File <==

--------------------------------------------------------------------------
#psi4
#
memory 32 gb

molecule  {
0 1
  S       -0.2946600    -0.4360860     0.1655790
  O       -1.5657890     0.5673500    -0.1009940
  O       -0.3508230    -1.5212030    -0.8163730
  O       -0.2159750    -0.7550950     1.5921100
  C        2.3621670     0.3010360     0.2220870
  C        0.9741440     0.7483390    -0.2426020
  C        2.8380310    -0.9649040    -0.4891310
  C        3.3410260     1.4538450    -0.0023010
  C       -2.8589370    -0.1133030    -0.1019100
  C       -3.9021700     0.9699320    -0.2416680
  H        2.2983390     0.1006560     1.2981690
  H        0.9320730     0.8904060    -1.3271310
  H        0.6744950     1.6778970     0.2503870
  H        2.8691440    -0.8060450    -1.5725570
  H        2.1878640    -1.8202610    -0.2948070
  H        3.8478330    -1.2217420    -0.1555610
  H        3.4181100     1.6939920    -1.0681710
  H        3.0282660     2.3570280     0.5308300
  H        4.3384750     1.1791220     0.3530350
  H       -2.8783840    -0.8196920    -0.9355340
  H       -2.9674710    -0.6619300     0.8385710
  H       -3.8285613     1.6687978     0.5936729
  H       -3.7534550     1.5250040    -1.1701160
  H       -4.8990420     0.5201230    -0.2596090
units angstrom
no_reorient  #important for SAPT in psi4, default
symmetry c1  #important for SAPT in psi4, default
}

set PROPERTIES_ORIGIN ["COM"]
properties('MP2/aug-cc-pvtz', properties = ['dipole'])
--------------------------------------------------------------------------

    Molecular point group: c1
  Charge       = 0
  Multiplicity = 1
  Basis Set: AUG-CC-PVTZ
    Blend: AUG-CC-PVTZ
  Basis Set: (AUG-CC-PVTZ AUX)
    Blend: AUG-CC-PVTZ-JKFIT

    Orbital Energies [Eh]
    ---------------------

    Doubly Occupied:

       1A    -92.213857     2A    -20.614939     3A    -20.553689
       4A    -20.553561     5A    -11.301784     6A    -11.278150
       7A    -11.251508     8A    -11.233032     9A    -11.229543
      10A    -11.218629    11A     -9.178104    12A     -6.863560
      13A     -6.862115    14A     -6.861940    15A     -1.481057
      16A     -1.375112    17A     -1.337434    18A     -1.120957
      19A     -1.051601    20A     -0.996744    21A     -0.942357
      22A     -0.876871    23A     -0.830792    24A     -0.788050
      25A     -0.725212    26A     -0.692893    27A     -0.690705
      28A     -0.656751    29A     -0.635060    30A     -0.616112
      31A     -0.606961    32A     -0.586855    33A     -0.566723
      34A     -0.558673    35A     -0.555328    36A     -0.543720
      37A     -0.537603    38A     -0.509987    39A     -0.499751
      40A     -0.496834    41A     -0.490484    42A     -0.485455
      43A     -0.482560    44A     -0.463351    45A     -0.453682

  @DF-RHF Final Energy:  -857.62646448418604

   => Energetics <=

    Nuclear Repulsion Energy =            722.6075403015164511
    One-Electron Energy =               -2612.7278316982524302
    Two-Electron Energy =                1032.4938269125498209
    Total Energy =                       -857.6264644841860445
  Basis Set: (AUG-CC-PVTZ AUX)
    Blend: AUG-CC-PVTZ-RI
    Molecular point group: c1

    Geometry (in Angstrom), charge = 0, multiplicity = 1:

       Center              X                  Y                   Z               Mass
    ------------   -----------------  -----------------  -----------------  -----------------
         S           -0.263519437909    -0.398720295634     0.148246174834    31.972071174400
         O           -1.534648437909     0.604715704366    -0.118326825166    15.994914619570
         O           -0.319682437909    -1.483837295634    -0.833705825166    15.994914619570
         O           -0.184834437909    -0.717729295634     1.574777174834    15.994914619570
         C            2.393307562091     0.338401704366     0.204754174834    12.000000000000
         C            1.005284562091     0.785704704366    -0.259934825166    12.000000000000
         C            2.869171562091    -0.927538295634    -0.506463825166    12.000000000000
         C            3.372166562091     1.491210704366    -0.019633825166    12.000000000000
         C           -2.827796437909    -0.075937295634    -0.119242825166    12.000000000000
         C           -3.871029437909     1.007297704366    -0.259000825166    12.000000000000
         H            2.329479562091     0.138021704366     1.280836174834     1.007825032230
         H            0.963213562091     0.927771704366    -1.344463825166     1.007825032230
         H            0.705635562091     1.715262704366     0.233054174834     1.007825032230
         H            2.900284562091    -0.768679295634    -1.589889825166     1.007825032230
         H            2.219004562091    -1.782895295634    -0.312139825166     1.007825032230
         H            3.878973562091    -1.184376295634    -0.172893825166     1.007825032230
         H            3.449250562091     1.731357704366    -1.085503825166     1.007825032230
         H            3.059406562091     2.394393704366     0.513497174834     1.007825032230
         H            4.369615562091     1.216487704366     0.335702174834     1.007825032230
         H           -2.847243437909    -0.782326295634    -0.952866825166     1.007825032230
         H           -2.936330437909    -0.624564295634     0.821238174834     1.007825032230
         H           -3.797420737909     1.706163504366     0.576340074834     1.007825032230
         H           -3.722314437909     1.562369704366    -1.187448825166     1.007825032230
         H           -4.867901437909     0.557488704366    -0.276941825166     1.007825032230

  Basis Set: AUG-CC-PVTZ
    Blend: AUG-CC-PVTZ
  Basis Set: (AUG-CC-PVTZ AUX)
    Blend: AUG-CC-PVTZ-JKFIT
	 Reference Energy          =    -857.6264644841860445 [Eh]
	 Singles Energy            =      -0.0000000000000000 [Eh]
	 Same-Spin Energy          =      -0.5252957128507464 [Eh]
	 Opposite-Spin Energy      =      -1.6808125596682109 [Eh]
	 Correlation Energy        =      -2.2061082725189571 [Eh]
	 Total Energy              =    -859.8325727567049626 [Eh]

	 ================> DF-SCS-MP2 Energies <==================
	-----------------------------------------------------------
	 SCS Same-Spin Scale       =       0.3333333333333333 [-]
	 SCS Opposite-Spin Scale   =       1.2000000000000000 [-]
	 SCS Same-Spin Energy      =      -0.1750985709502488 [Eh]
	 SCS Opposite-Spin Energy  =      -2.0169750716018529 [Eh]
	 SCS Correlation Energy    =      -2.1920736425521015 [Eh]
	 SCS Total Energy          =    -859.8185381267381899 [Eh]
	-----------------------------------------------------------

  Dipole Moment: [D]
     X:    -0.0596      Y:     2.7094      Z:    -1.0475     Total:     2.9054

*** Psi4 exiting successfully. Buy a developer a beer!
