                               Psi4 1.4a3.dev225

  ==> Input File <==

--------------------------------------------------------------------------
#psi4
#
memory 32 gb

molecule  {
0 1
  S       -0.2946600    -0.4360860     0.1655790
  O       -1.5657890     0.5673500    -0.1009940
  O       -0.2741117    -1.4754063    -0.8660479
  O       -0.2159750    -0.7550950     1.5921100
  C        2.3621670     0.3010360     0.2220870
  C        0.9741440     0.7483390    -0.2426020
  C        2.8380310    -0.9649040    -0.4891310
  C        3.3410260     1.4538450    -0.0023010
  C       -2.8589370    -0.1133030    -0.1019100
  C       -3.9021700     0.9699320    -0.2416680
  H        2.2983390     0.1006560     1.2981690
  H        0.9320730     0.8904060    -1.3271310
  H        0.6744950     1.6778970     0.2503870
  H        2.8691440    -0.8060450    -1.5725570
  H        2.1878640    -1.8202610    -0.2948070
  H        3.8478330    -1.2217420    -0.1555610
  H        3.4181100     1.6939920    -1.0681710
  H        3.0282660     2.3570280     0.5308300
  H        4.3384750     1.1791220     0.3530350
  H       -2.8783840    -0.8196920    -0.9355340
  H       -2.9674710    -0.6619300     0.8385710
  H       -3.8465560     1.6647390     0.5984370
  H       -3.7534550     1.5250040    -1.1701160
  H       -4.8990420     0.5201230    -0.2596090
units angstrom
no_reorient  #important for SAPT in psi4, default
symmetry c1  #important for SAPT in psi4, default
}

set PROPERTIES_ORIGIN ["COM"]
properties('MP2/aug-cc-pvtz', properties = ['dipole'])
--------------------------------------------------------------------------

    Molecular point group: c1
  Charge       = 0
  Multiplicity = 1
  Basis Set: AUG-CC-PVTZ
    Blend: AUG-CC-PVTZ
  Basis Set: (AUG-CC-PVTZ AUX)
    Blend: AUG-CC-PVTZ-JKFIT

    Orbital Energies [Eh]
    ---------------------

    Doubly Occupied:

       1A    -92.214502     2A    -20.617448     3A    -20.557953
       4A    -20.554786     5A    -11.304181     6A    -11.273044
       7A    -11.249066     8A    -11.234470     9A    -11.227568
      10A    -11.216084    11A     -9.178681    12A     -6.864124
      13A     -6.862750    14A     -6.862478    15A     -1.482134
      16A     -1.377314    17A     -1.341467    18A     -1.117590
      19A     -1.052386    20A     -0.994153    21A     -0.940041
      22A     -0.877627    23A     -0.832069    24A     -0.786587
      25A     -0.725466    26A     -0.694616    27A     -0.689926
      28A     -0.656867    29A     -0.635342    30A     -0.614372
      31A     -0.607234    32A     -0.585046    33A     -0.568302
      34A     -0.559954    35A     -0.554365    36A     -0.542301
      37A     -0.538060    38A     -0.508921    39A     -0.501678
      40A     -0.498116    41A     -0.489074    42A     -0.487093
      43A     -0.481032    44A     -0.465759    45A     -0.450278

  @DF-RHF Final Energy:  -857.62441128782814

   => Energetics <=

    Nuclear Repulsion Energy =            722.8927582777073440
    One-Electron Energy =               -2613.2897246401867051
    Two-Electron Energy =                1032.7725550746513363
    Total Energy =                       -857.6244112878280248
  Basis Set: (AUG-CC-PVTZ AUX)
    Blend: AUG-CC-PVTZ-RI
    Molecular point group: c1

    Geometry (in Angstrom), charge = 0, multiplicity = 1:

       Center              X                  Y                   Z               Mass
    ------------   -----------------  -----------------  -----------------  -----------------
         S           -0.270798787831    -0.403106636866     0.153001770000    31.972071174400
         O           -1.541927787831     0.600329363134    -0.113571230000    15.994914619570
         O           -0.250250487831    -1.442426936866    -0.878625130000    15.994914619570
         O           -0.192113787831    -0.722115636866     1.579532770000    15.994914619570
         C            2.386028212169     0.334015363134     0.209509770000    12.000000000000
         C            0.998005212169     0.781318363134    -0.255179230000    12.000000000000
         C            2.861892212169    -0.931924636866    -0.501708230000    12.000000000000
         C            3.364887212169     1.486824363134    -0.014878230000    12.000000000000
         C           -2.835075787831    -0.080323636866    -0.114487230000    12.000000000000
         C           -3.878308787831     1.002911363134    -0.254245230000    12.000000000000
         H            2.322200212169     0.133635363134     1.285591770000     1.007825032230
         H            0.955934212169     0.923385363134    -1.339708230000     1.007825032230
         H            0.698356212169     1.710876363134     0.237809770000     1.007825032230
         H            2.893005212169    -0.773065636866    -1.585134230000     1.007825032230
         H            2.211725212169    -1.787281636866    -0.307384230000     1.007825032230
         H            3.871694212169    -1.188762636866    -0.168138230000     1.007825032230
         H            3.441971212169     1.726971363134    -1.080748230000     1.007825032230
         H            3.052127212169     2.390007363134     0.518252770000     1.007825032230
         H            4.362336212169     1.212101363134     0.340457770000     1.007825032230
         H           -2.854522787831    -0.786712636866    -0.948111230000     1.007825032230
         H           -2.943609787831    -0.628950636866     0.825993770000     1.007825032230
         H           -3.822694787831     1.697718363134     0.585859770000     1.007825032230
         H           -3.729593787831     1.557983363134    -1.182693230000     1.007825032230
         H           -4.875180787831     0.553102363134    -0.272186230000     1.007825032230

  Basis Set: AUG-CC-PVTZ
    Blend: AUG-CC-PVTZ
  Basis Set: (AUG-CC-PVTZ AUX)
    Blend: AUG-CC-PVTZ-JKFIT
	 Reference Energy          =    -857.6244112878281385 [Eh]
	 Singles Energy            =      -0.0000000000000000 [Eh]
	 Same-Spin Energy          =      -0.5255541463916036 [Eh]
	 Opposite-Spin Energy      =      -1.6814428428198305 [Eh]
	 Correlation Energy        =      -2.2069969892114338 [Eh]
	 Total Energy              =    -859.8314082770395999 [Eh]

	 ================> DF-SCS-MP2 Energies <==================
	-----------------------------------------------------------
	 SCS Same-Spin Scale       =       0.3333333333333333 [-]
	 SCS Opposite-Spin Scale   =       1.2000000000000000 [-]
	 SCS Same-Spin Energy      =      -0.1751847154638679 [Eh]
	 SCS Opposite-Spin Energy  =      -2.0177314113837963 [Eh]
	 SCS Correlation Energy    =      -2.1929161268476642 [Eh]
	 SCS Total Energy          =    -859.8173274146757876 [Eh]
	-----------------------------------------------------------

  Dipole Moment: [D]
     X:    -0.3405      Y:     2.5826      Z:    -0.9285     Total:     2.7655

*** Psi4 exiting successfully. Buy a developer a beer!
