                               Psi4 1.4a3.dev225

  ==> Input File <==

--------------------------------------------------------------------------
#psi4
#
memory 32 gb

molecule  {
0 1
  S       -0.2946600    -0.4360860     0.1655790
  O       -1.5657890     0.5673500    -0.1009940
  O       -0.3508230    -1.5212030    -0.8163730
  O       -0.2159750    -0.7550950     1.5921100
  C        2.3621670     0.3010360     0.2220870
  C        0.9741440     0.7483390    -0.2426020
  C        2.8380310    -0.9649040    -0.4891310
  C        3.3410260     1.4538450    -0.0023010
  C       -2.8589370    -0.1133030    -0.1019100
  C       -3.9021700     0.9699320    -0.2416680
  H        2.2983390     0.1006560     1.2981690
  H        0.9301513     0.8968954    -1.3766708
  H        0.6744950     1.6778970     0.2503870
  H        2.8691440    -0.8060450    -1.5725570
  H        2.1878640    -1.8202610    -0.2948070
  H        3.8478330    -1.2217420    -0.1555610
  H        3.4181100     1.6939920    -1.0681710
  H        3.0282660     2.3570280     0.5308300
  H        4.3384750     1.1791220     0.3530350
  H       -2.8783840    -0.8196920    -0.9355340
  H       -2.9674710    -0.6619300     0.8385710
  H       -3.8465560     1.6647390     0.5984370
  H       -3.7534550     1.5250040    -1.1701160
  H       -4.8990420     0.5201230    -0.2596090
units angstrom
no_reorient  #important for SAPT in psi4, default
symmetry c1  #important for SAPT in psi4, default
}

set PROPERTIES_ORIGIN ["COM"]
properties('MP2/aug-cc-pvtz', properties = ['dipole'])
--------------------------------------------------------------------------

    Molecular point group: c1
  Charge       = 0
  Multiplicity = 1
  Basis Set: AUG-CC-PVTZ
    Blend: AUG-CC-PVTZ
  Basis Set: (AUG-CC-PVTZ AUX)
    Blend: AUG-CC-PVTZ-JKFIT

    Orbital Energies [Eh]
    ---------------------

    Doubly Occupied:

       1A    -92.214067     2A    -20.614850     3A    -20.553861
       4A    -20.553551     5A    -11.301896     6A    -11.283380
       7A    -11.251841     8A    -11.233011     9A    -11.229510
      10A    -11.218607    11A     -9.178279    12A     -6.863738
      13A     -6.862298    14A     -6.862116    15A     -1.481052
      16A     -1.375083    17A     -1.337488    18A     -1.119691
      19A     -1.051429    20A     -0.994944    21A     -0.942316
      22A     -0.876492    23A     -0.830735    24A     -0.785587
      25A     -0.724686    26A     -0.692794    27A     -0.688816
      28A     -0.656304    29A     -0.635078    30A     -0.615464
      31A     -0.606499    32A     -0.582339    33A     -0.566825
      34A     -0.558365    35A     -0.554558    36A     -0.543248
      37A     -0.537363    38A     -0.510128    39A     -0.500038
      40A     -0.496818    41A     -0.490635    42A     -0.484451
      43A     -0.482402    44A     -0.463355    45A     -0.453693

  @DF-RHF Final Energy:  -857.62423079527912

   => Energetics <=

    Nuclear Repulsion Energy =            722.3007781169181953
    One-Electron Energy =               -2612.1306497746013520
    Two-Electron Energy =                1032.2056408624041524
    Total Energy =                       -857.6242307952791180
  Basis Set: (AUG-CC-PVTZ AUX)
    Blend: AUG-CC-PVTZ-RI
    Molecular point group: c1

    Geometry (in Angstrom), charge = 0, multiplicity = 1:

       Center              X                  Y                   Z               Mass
    ------------   -----------------  -----------------  -----------------  -----------------
         S           -0.263398569083    -0.398735046481     0.148517909999    31.972071174400
         O           -1.534527569083     0.604700953519    -0.118055090001    15.994914619570
         O           -0.319561569083    -1.483852046481    -0.833434090001    15.994914619570
         O           -0.184713569083    -0.717744046481     1.575048909999    15.994914619570
         C            2.393428430917     0.338386953519     0.205025909999    12.000000000000
         C            1.005405430917     0.785689953519    -0.259663090001    12.000000000000
         C            2.869292430917    -0.927553046481    -0.506192090001    12.000000000000
         C            3.372287430917     1.491195953519    -0.019362090001    12.000000000000
         C           -2.827675569083    -0.075952046481    -0.118971090001    12.000000000000
         C           -3.870908569083     1.007282953519    -0.258729090001    12.000000000000
         H            2.329600430917     0.138006953519     1.281107909999     1.007825032230
         H            0.961412730917     0.934246353519    -1.393731890001     1.007825032230
         H            0.705756430917     1.715247953519     0.233325909999     1.007825032230
         H            2.900405430917    -0.768694046481    -1.589618090001     1.007825032230
         H            2.219125430917    -1.782910046481    -0.311868090001     1.007825032230
         H            3.879094430917    -1.184391046481    -0.172622090001     1.007825032230
         H            3.449371430917     1.731342953519    -1.085232090001     1.007825032230
         H            3.059527430917     2.394378953519     0.513768909999     1.007825032230
         H            4.369736430917     1.216472953519     0.335973909999     1.007825032230
         H           -2.847122569083    -0.782341046481    -0.952595090001     1.007825032230
         H           -2.936209569083    -0.624579046481     0.821509909999     1.007825032230
         H           -3.815294569083     1.702089953519     0.581375909999     1.007825032230
         H           -3.722193569083     1.562354953519    -1.187177090001     1.007825032230
         H           -4.867780569083     0.557473953519    -0.276670090001     1.007825032230

  Basis Set: AUG-CC-PVTZ
    Blend: AUG-CC-PVTZ
  Basis Set: (AUG-CC-PVTZ AUX)
    Blend: AUG-CC-PVTZ-JKFIT
	 Reference Energy          =    -857.6242307952791180 [Eh]
	 Singles Energy            =      -0.0000000000000000 [Eh]
	 Same-Spin Energy          =      -0.5253966502654812 [Eh]
	 Opposite-Spin Energy      =      -1.6812230817874649 [Eh]
	 Correlation Energy        =      -2.2066197320529461 [Eh]
	 Total Energy              =    -859.8308505273320179 [Eh]

	 ================> DF-SCS-MP2 Energies <==================
	-----------------------------------------------------------
	 SCS Same-Spin Scale       =       0.3333333333333333 [-]
	 SCS Opposite-Spin Scale   =       1.2000000000000000 [-]
	 SCS Same-Spin Energy      =      -0.1751322167551604 [Eh]
	 SCS Opposite-Spin Energy  =      -2.0174676981449577 [Eh]
	 SCS Correlation Energy    =      -2.1925999149001183 [Eh]
	 SCS Total Energy          =    -859.8168307101792607 [Eh]
	-----------------------------------------------------------

  Dipole Moment: [D]
     X:    -0.0636      Y:     2.7039      Z:    -1.0375     Total:     2.8968

*** Psi4 exiting successfully. Buy a developer a beer!
