                               Psi4 1.4a3.dev225

  ==> Input File <==

--------------------------------------------------------------------------
#psi4
#
memory 32 gb

molecule  {
0 1
  S       -0.2946600    -0.4360860     0.1655790
  O       -1.5657890     0.5673500    -0.1009940
  O       -0.3508230    -1.5212030    -0.8163730
  O       -0.2159750    -0.7550950     1.5921100
  C        2.3621670     0.3010360     0.2220870
  C        0.9741440     0.7483390    -0.2426020
  C        2.8380310    -0.9649040    -0.4891310
  C        3.3410260     1.4538450    -0.0023010
  C       -2.8589370    -0.1133030    -0.1019100
  C       -3.9021700     0.9699320    -0.2416680
  H        2.2983390     0.1006560     1.2981690
  H        0.9320730     0.8904060    -1.3271310
  H        0.6744950     1.6778970     0.2503870
  H        2.8691440    -0.8060450    -1.5725570
  H        2.1878640    -1.8202610    -0.2948070
  H        3.8478330    -1.2217420    -0.1555610
  H        3.4181100     1.6939920    -1.0681710
  H        3.0282660     2.3570280     0.5308300
  H        4.3384750     1.1791220     0.3530350
  H       -2.8783840    -0.8196920    -0.9355340
  H       -2.9674710    -0.6619300     0.8385710
  H       -3.8465560     1.6647390     0.5984370
  H       -3.7561790     1.5148369    -1.1531098
  H       -4.8990420     0.5201230    -0.2596090
units angstrom
no_reorient  #important for SAPT in psi4, default
symmetry c1  #important for SAPT in psi4, default
}

set PROPERTIES_ORIGIN ["COM"]
properties('MP2/aug-cc-pvtz', properties = ['dipole'])
--------------------------------------------------------------------------

    Molecular point group: c1
  Charge       = 0
  Multiplicity = 1
  Basis Set: AUG-CC-PVTZ
    Blend: AUG-CC-PVTZ
  Basis Set: (AUG-CC-PVTZ AUX)
    Blend: AUG-CC-PVTZ-JKFIT

    Orbital Energies [Eh]
    ---------------------

    Doubly Occupied:

       1A    -92.213812     2A    -20.614859     3A    -20.553660
       4A    -20.553517     5A    -11.301699     6A    -11.278118
       7A    -11.251484     8A    -11.230605     9A    -11.229525
      10A    -11.218611    11A     -9.178059    12A     -6.863514
      13A     -6.862069    14A     -6.861895    15A     -1.481006
      16A     -1.375051    17A     -1.337397    18A     -1.120934
      19A     -1.052129    20A     -0.997033    21A     -0.942339
      22A     -0.878019    23A     -0.831074    24A     -0.788029
      25A     -0.725169    26A     -0.693036    27A     -0.690709
      28A     -0.657090    29A     -0.635116    30A     -0.616164
      31A     -0.607181    32A     -0.586698    33A     -0.567677
      34A     -0.559855    35A     -0.554559    36A     -0.543638
      37A     -0.538386    38A     -0.510044    39A     -0.499995
      40A     -0.497189    41A     -0.490545    42A     -0.485425
      43A     -0.482575    44A     -0.463315    45A     -0.453641

  @DF-RHF Final Energy:  -857.62650846349902

   => Energetics <=

    Nuclear Repulsion Energy =            722.6604607486838177
    One-Electron Energy =               -2612.8290447832987411
    Two-Electron Energy =                1032.5420755711159018
    Total Energy =                       -857.6265084634990217
  Basis Set: (AUG-CC-PVTZ AUX)
    Blend: AUG-CC-PVTZ-RI
    Molecular point group: c1

    Geometry (in Angstrom), charge = 0, multiplicity = 1:

       Center              X                  Y                   Z               Mass
    ------------   -----------------  -----------------  -----------------  -----------------
         S           -0.263393700078    -0.398633961366     0.148114055044    31.972071174400
         O           -1.534522700078     0.604802038634    -0.118458944956    15.994914619570
         O           -0.319556700078    -1.483750961366    -0.833837944956    15.994914619570
         O           -0.184708700078    -0.717642961366     1.574645055044    15.994914619570
         C            2.393433299922     0.338488038634     0.204622055044    12.000000000000
         C            1.005410299922     0.785791038634    -0.260066944956    12.000000000000
         C            2.869297299922    -0.927451961366    -0.506595944956    12.000000000000
         C            3.372292299922     1.491297038634    -0.019765944956    12.000000000000
         C           -2.827670700078    -0.075850961366    -0.119374944956    12.000000000000
         C           -3.870903700078     1.007384038634    -0.259132944956    12.000000000000
         H            2.329605299922     0.138108038634     1.280704055044     1.007825032230
         H            0.963339299922     0.927858038634    -1.344595944956     1.007825032230
         H            0.705761299922     1.715349038634     0.232922055044     1.007825032230
         H            2.900410299922    -0.768592961366    -1.590021944956     1.007825032230
         H            2.219130299922    -1.782808961366    -0.312271944956     1.007825032230
         H            3.879099299922    -1.184289961366    -0.173025944956     1.007825032230
         H            3.449376299922     1.731444038634    -1.085635944956     1.007825032230
         H            3.059532299922     2.394480038634     0.513365055044     1.007825032230
         H            4.369741299922     1.216574038634     0.335570055044     1.007825032230
         H           -2.847117700078    -0.782239961366    -0.952998944956     1.007825032230
         H           -2.936204700078    -0.624477961366     0.821106055044     1.007825032230
         H           -3.815289700078     1.702191038634     0.580972055044     1.007825032230
         H           -3.724912700078     1.552288938634    -1.170574744956     1.007825032230
         H           -4.867775700078     0.557575038634    -0.277073944956     1.007825032230

  Basis Set: AUG-CC-PVTZ
    Blend: AUG-CC-PVTZ
  Basis Set: (AUG-CC-PVTZ AUX)
    Blend: AUG-CC-PVTZ-JKFIT
	 Reference Energy          =    -857.6265084634990217 [Eh]
	 Singles Energy            =      -0.0000000000000000 [Eh]
	 Same-Spin Energy          =      -0.5253001331051845 [Eh]
	 Opposite-Spin Energy      =      -1.6806935998911923 [Eh]
	 Correlation Energy        =      -2.2059937329963768 [Eh]
	 Total Energy              =    -859.8325021964953976 [Eh]

	 ================> DF-SCS-MP2 Energies <==================
	-----------------------------------------------------------
	 SCS Same-Spin Scale       =       0.3333333333333333 [-]
	 SCS Opposite-Spin Scale   =       1.2000000000000000 [-]
	 SCS Same-Spin Energy      =      -0.1751000443683948 [Eh]
	 SCS Opposite-Spin Energy  =      -2.0168323198694305 [Eh]
	 SCS Correlation Energy    =      -2.1919323642378252 [Eh]
	 SCS Total Energy          =    -859.8184408277368220 [Eh]
	-----------------------------------------------------------

  Dipole Moment: [D]
     X:    -0.0676      Y:     2.7145      Z:    -1.0511     Total:     2.9117

*** Psi4 exiting successfully. Buy a developer a beer!
