                               Psi4 1.4a3.dev225

  ==> Input File <==

--------------------------------------------------------------------------
#psi4
#
memory 32 gb

molecule  {
0 1
  S       -0.2946600    -0.4360860     0.1655790
  O       -1.5657890     0.5673500    -0.1009940
  O       -0.3508230    -1.5212030    -0.8163730
  O       -0.2159750    -0.7550950     1.5921100
  C        2.3621670     0.3010360     0.2220870
  C        0.9741440     0.7483390    -0.2426020
  C        2.8380310    -0.9649040    -0.4891310
  C        3.3410260     1.4538450    -0.0023010
  C       -2.8589370    -0.1133030    -0.1019100
  C       -3.9021700     0.9699320    -0.2416680
  H        2.2983390     0.1006560     1.2981690
  H        0.9320730     0.8904060    -1.3271310
  H        0.6744950     1.6778970     0.2503870
  H        2.8634636    -0.8350484    -1.3747527
  H        2.1878640    -1.8202610    -0.2948070
  H        3.8478330    -1.2217420    -0.1555610
  H        3.4181100     1.6939920    -1.0681710
  H        3.0282660     2.3570280     0.5308300
  H        4.3384750     1.1791220     0.3530350
  H       -2.8783840    -0.8196920    -0.9355340
  H       -2.9674710    -0.6619300     0.8385710
  H       -3.8465560     1.6647390     0.5984370
  H       -3.7534550     1.5250040    -1.1701160
  H       -4.8990420     0.5201230    -0.2596090
units angstrom
no_reorient  #important for SAPT in psi4, default
symmetry c1  #important for SAPT in psi4, default
}

set PROPERTIES_ORIGIN ["COM"]
properties('MP2/aug-cc-pvtz', properties = ['dipole'])
--------------------------------------------------------------------------

    Molecular point group: c1
  Charge       = 0
  Multiplicity = 1
  Basis Set: AUG-CC-PVTZ
    Blend: AUG-CC-PVTZ
  Basis Set: (AUG-CC-PVTZ AUX)
    Blend: AUG-CC-PVTZ-JKFIT

    Orbital Energies [Eh]
    ---------------------

    Doubly Occupied:

       1A    -92.213684     2A    -20.614789     3A    -20.553636
       4A    -20.553244     5A    -11.301841     6A    -11.277998
       7A    -11.249590     8A    -11.232984     9A    -11.229368
      10A    -11.193270    11A     -9.177929    12A     -6.863384
      13A     -6.861941    14A     -6.861765    15A     -1.480887
      16A     -1.374944    17A     -1.337259    18A     -1.123121
      19A     -1.052285    20A     -1.000694    21A     -0.957734
      22A     -0.878095    23A     -0.832085    24A     -0.795145
      25A     -0.725310    26A     -0.692978    27A     -0.691276
      28A     -0.656685    29A     -0.636311    30A     -0.616812
      31A     -0.608403    32A     -0.598014    33A     -0.568226
      34A     -0.565528    35A     -0.557905    36A     -0.548988
      37A     -0.537245    38A     -0.509475    39A     -0.499980
      40A     -0.497405    41A     -0.489910    42A     -0.486394
      43A     -0.484756    44A     -0.463196    45A     -0.453228

  @DF-RHF Final Energy:  -857.59268637902971

   => Energetics <=

    Nuclear Repulsion Energy =            723.6040990869822735
    One-Electron Energy =               -2614.5821746394817637
    Two-Electron Energy =                1033.3853891734695480
    Total Energy =                       -857.5926863790298285
  Basis Set: (AUG-CC-PVTZ AUX)
    Blend: AUG-CC-PVTZ-RI
    Molecular point group: c1

    Geometry (in Angstrom), charge = 0, multiplicity = 1:

       Center              X                  Y                   Z               Mass
    ------------   -----------------  -----------------  -----------------  -----------------
         S           -0.263375758252    -0.398519647461     0.147016825930    31.972071174400
         O           -1.534504758252     0.604916352539    -0.119556174070    15.994914619570
         O           -0.319538758252    -1.483636647461    -0.834935174070    15.994914619570
         O           -0.184690758252    -0.717528647461     1.573547825930    15.994914619570
         C            2.393451241748     0.338602352539     0.203524825930    12.000000000000
         C            1.005428241748     0.785905352539    -0.261164174070    12.000000000000
         C            2.869315241748    -0.927337647461    -0.507693174070    12.000000000000
         C            3.372310241748     1.491411352539    -0.020863174070    12.000000000000
         C           -2.827652758252    -0.075736647461    -0.120472174070    12.000000000000
         C           -3.870885758252     1.007498352539    -0.260230174070    12.000000000000
         H            2.329623241748     0.138222352539     1.279606825930     1.007825032230
         H            0.963357241748     0.927972352539    -1.345693174070     1.007825032230
         H            0.705779241748     1.715463352539     0.231824825930     1.007825032230
         H            2.894747841748    -0.797482047461    -1.393314874070     1.007825032230
         H            2.219148241748    -1.782694647461    -0.313369174070     1.007825032230
         H            3.879117241748    -1.184175647461    -0.174123174070     1.007825032230
         H            3.449394241748     1.731558352539    -1.086733174070     1.007825032230
         H            3.059550241748     2.394594352539     0.512267825930     1.007825032230
         H            4.369759241748     1.216688352539     0.334472825930     1.007825032230
         H           -2.847099758252    -0.782125647461    -0.954096174070     1.007825032230
         H           -2.936186758252    -0.624363647461     0.820008825930     1.007825032230
         H           -3.815271758252     1.702305352539     0.579874825930     1.007825032230
         H           -3.722170758252     1.562570352539    -1.188678174070     1.007825032230
         H           -4.867757758252     0.557689352539    -0.278171174070     1.007825032230

  Basis Set: AUG-CC-PVTZ
    Blend: AUG-CC-PVTZ
  Basis Set: (AUG-CC-PVTZ AUX)
    Blend: AUG-CC-PVTZ-JKFIT
	 Reference Energy          =    -857.5926863790297148 [Eh]
	 Singles Energy            =      -0.0000000000000000 [Eh]
	 Same-Spin Energy          =      -0.5253800603814228 [Eh]
	 Opposite-Spin Energy      =      -1.6802224719442092 [Eh]
	 Correlation Energy        =      -2.2056025323256319 [Eh]
	 Total Energy              =    -859.7982889113553711 [Eh]

	 ================> DF-SCS-MP2 Energies <==================
	-----------------------------------------------------------
	 SCS Same-Spin Scale       =       0.3333333333333333 [-]
	 SCS Opposite-Spin Scale   =       1.2000000000000000 [-]
	 SCS Same-Spin Energy      =      -0.1751266867938076 [Eh]
	 SCS Opposite-Spin Energy  =      -2.0162669663330508 [Eh]
	 SCS Correlation Energy    =      -2.1913936531268585 [Eh]
	 SCS Total Energy          =    -859.7840800321565666 [Eh]
	-----------------------------------------------------------

  Dipole Moment: [D]
     X:    -0.0514      Y:     2.7092      Z:    -1.1263     Total:     2.9344

*** Psi4 exiting successfully. Buy a developer a beer!
