                               Psi4 1.4a3.dev225

  ==> Input File <==

--------------------------------------------------------------------------
#psi4
#
memory 32 gb

molecule  {
0 1
  S       -0.2946600    -0.4360860     0.1655790
  O       -1.5657890     0.5673500    -0.1009940
  O       -0.3508230    -1.5212030    -0.8163730
  O       -0.2159750    -0.7550950     1.5921100
  C        2.3242129     0.2997539     0.3219412
  C        0.9741440     0.7483390    -0.2426020
  C        2.8380310    -0.9649040    -0.4891310
  C        3.3410260     1.4538450    -0.0023010
  C       -2.8589370    -0.1133030    -0.1019100
  C       -3.9021700     0.9699320    -0.2416680
  H        2.2983390     0.1006560     1.2981690
  H        0.9320730     0.8904060    -1.3271310
  H        0.6744950     1.6778970     0.2503870
  H        2.8691440    -0.8060450    -1.5725570
  H        2.1878640    -1.8202610    -0.2948070
  H        3.8478330    -1.2217420    -0.1555610
  H        3.4181100     1.6939920    -1.0681710
  H        3.0282660     2.3570280     0.5308300
  H        4.3384750     1.1791220     0.3530350
  H       -2.8783840    -0.8196920    -0.9355340
  H       -2.9674710    -0.6619300     0.8385710
  H       -3.8465560     1.6647390     0.5984370
  H       -3.7534550     1.5250040    -1.1701160
  H       -4.8990420     0.5201230    -0.2596090
units angstrom
no_reorient  #important for SAPT in psi4, default
symmetry c1  #important for SAPT in psi4, default
}

set PROPERTIES_ORIGIN ["COM"]
properties('MP2/aug-cc-pvtz', properties = ['dipole'])
--------------------------------------------------------------------------

    Molecular point group: c1
  Charge       = 0
  Multiplicity = 1
  Basis Set: AUG-CC-PVTZ
    Blend: AUG-CC-PVTZ
  Basis Set: (AUG-CC-PVTZ AUX)
    Blend: AUG-CC-PVTZ-JKFIT

    Orbital Energies [Eh]
    ---------------------

    Doubly Occupied:

       1A    -92.212791     2A    -20.614156     3A    -20.553774
       4A    -20.553409     5A    -11.301408     6A    -11.279174
       7A    -11.249168     8A    -11.232752     9A    -11.231085
      10A    -11.220160    11A     -9.177205    12A     -6.862662
      13A     -6.861156    14A     -6.861031    15A     -1.480765
      16A     -1.374731    17A     -1.337437    18A     -1.116588
      19A     -1.049938    20A     -0.992542    21A     -0.933855
      22A     -0.876944    23A     -0.833009    24A     -0.803987
      25A     -0.724762    26A     -0.693083    27A     -0.690386
      28A     -0.654791    29A     -0.635032    30A     -0.611069
      31A     -0.605785    32A     -0.585891    33A     -0.567213
      34A     -0.558679    35A     -0.554218    36A     -0.542194
      37A     -0.535946    38A     -0.517402    39A     -0.506991
      40A     -0.498031    41A     -0.493956    42A     -0.485982
      43A     -0.472444    44A     -0.463024    45A     -0.445482

  @DF-RHF Final Energy:  -857.61371852529419

   => Energetics <=

    Nuclear Repulsion Energy =            722.3825242342111324
    One-Electron Energy =               -2612.2883121615054733
    Two-Electron Energy =                1032.2920694020001520
    Total Energy =                       -857.6137185252941890
  Basis Set: (AUG-CC-PVTZ AUX)
    Blend: AUG-CC-PVTZ-RI
    Molecular point group: c1

    Geometry (in Angstrom), charge = 0, multiplicity = 1:

       Center              X                  Y                   Z               Mass
    ------------   -----------------  -----------------  -----------------  -----------------
         S           -0.260667658093    -0.398603018664     0.141001771214    31.972071174400
         O           -1.531796658093     0.604832981336    -0.125571228786    15.994914619570
         O           -0.316830658093    -1.483720018664    -0.840950228786    15.994914619570
         O           -0.181982658093    -0.717612018664     1.567532771214    15.994914619570
         C            2.358205241907     0.337236881336     0.297363971214    12.000000000000
         C            1.008136341907     0.785821981336    -0.267179228786    12.000000000000
         C            2.872023341907    -0.927421018664    -0.513708228786    12.000000000000
         C            3.375018341907     1.491327981336    -0.026878228786    12.000000000000
         C           -2.824944658093    -0.075820018664    -0.126487228786    12.000000000000
         C           -3.868177658093     1.007414981336    -0.266245228786    12.000000000000
         H            2.332331341907     0.138138981336     1.273591771214     1.007825032230
         H            0.966065341907     0.927888981336    -1.351708228786     1.007825032230
         H            0.708487341907     1.715379981336     0.225809771214     1.007825032230
         H            2.903136341907    -0.768562018664    -1.597134228786     1.007825032230
         H            2.221856341907    -1.782778018664    -0.319384228786     1.007825032230
         H            3.881825341907    -1.184259018664    -0.180138228786     1.007825032230
         H            3.452102341907     1.731474981336    -1.092748228786     1.007825032230
         H            3.062258341907     2.394510981336     0.506252771214     1.007825032230
         H            4.372467341907     1.216604981336     0.328457771214     1.007825032230
         H           -2.844391658093    -0.782209018664    -0.960111228786     1.007825032230
         H           -2.933478658093    -0.624447018664     0.813993771214     1.007825032230
         H           -3.812563658093     1.702221981336     0.573859771214     1.007825032230
         H           -3.719462658093     1.562486981336    -1.194693228786     1.007825032230
         H           -4.865049658093     0.557605981336    -0.284186228786     1.007825032230

  Basis Set: AUG-CC-PVTZ
    Blend: AUG-CC-PVTZ
  Basis Set: (AUG-CC-PVTZ AUX)
    Blend: AUG-CC-PVTZ-JKFIT
	 Reference Energy          =    -857.6137185252941890 [Eh]
	 Singles Energy            =      -0.0000000000000000 [Eh]
	 Same-Spin Energy          =      -0.5249801270725705 [Eh]
	 Opposite-Spin Energy      =      -1.6809923651531191 [Eh]
	 Correlation Energy        =      -2.2059724922256896 [Eh]
	 Total Energy              =    -859.8196910175198582 [Eh]

	 ================> DF-SCS-MP2 Energies <==================
	-----------------------------------------------------------
	 SCS Same-Spin Scale       =       0.3333333333333333 [-]
	 SCS Opposite-Spin Scale   =       1.2000000000000000 [-]
	 SCS Same-Spin Energy      =      -0.1749933756908568 [Eh]
	 SCS Opposite-Spin Energy  =      -2.0171908381837427 [Eh]
	 SCS Correlation Energy    =      -2.1921842138745995 [Eh]
	 SCS Total Energy          =    -859.8059027391688005 [Eh]
	-----------------------------------------------------------

  Dipole Moment: [D]
     X:    -0.0560      Y:     2.7307      Z:    -1.0405     Total:     2.9228

*** Psi4 exiting successfully. Buy a developer a beer!
