                               Psi4 1.4a3.dev225

  ==> Input File <==

--------------------------------------------------------------------------
#psi4
#
memory 32 gb

molecule  {
0 1
  S       -0.2946600    -0.4360860     0.1655790
  O       -1.5657890     0.5673500    -0.1009940
  O       -0.3508230    -1.5212030    -0.8163730
  O       -0.2159750    -0.7550950     1.5921100
  C        2.3621670     0.3010360     0.2220870
  C        0.9741440     0.7483390    -0.2426020
  C        2.8380310    -0.9649040    -0.4891310
  C        3.3410260     1.4538450    -0.0023010
  C       -2.8589370    -0.1133030    -0.1019100
  C       -3.9021700     0.9699320    -0.2416680
  H        2.2983390     0.1006560     1.2981690
  H        0.9320730     0.8904060    -1.3271310
  H        0.6744950     1.6778970     0.2503870
  H        2.8691440    -0.8060450    -1.5725570
  H        2.1878640    -1.8202610    -0.2948070
  H        3.8478330    -1.2217420    -0.1555610
  H        3.4181100     1.6939920    -1.0681710
  H        3.0282660     2.3570280     0.5308300
  H        4.3384750     1.1791220     0.3530350
  H       -2.8783840    -0.8196920    -0.9355340
  H       -2.9674710    -0.6619300     0.8385710
  H       -3.8284441     1.7471072     0.5213453
  H       -3.7534550     1.5250040    -1.1701160
  H       -4.8990420     0.5201230    -0.2596090
units angstrom
no_reorient  #important for SAPT in psi4, default
symmetry c1  #important for SAPT in psi4, default
}

set PROPERTIES_ORIGIN ["COM"]
properties('MP2/aug-cc-pvtz', properties = ['dipole'])
--------------------------------------------------------------------------

    Molecular point group: c1
  Charge       = 0
  Multiplicity = 1
  Basis Set: AUG-CC-PVTZ
    Blend: AUG-CC-PVTZ
  Basis Set: (AUG-CC-PVTZ AUX)
    Blend: AUG-CC-PVTZ-JKFIT

    Orbital Energies [Eh]
    ---------------------

    Doubly Occupied:

       1A    -92.213939     2A    -20.615108     3A    -20.553841
       4A    -20.553614     5A    -11.302794     6A    -11.278224
       7A    -11.251560     8A    -11.232783     9A    -11.229589
      10A    -11.218678    11A     -9.178188    12A     -6.863643
      13A     -6.862198    14A     -6.862023    15A     -1.481173
      16A     -1.375231    17A     -1.337533    18A     -1.121013
      19A     -1.051171    20A     -0.996677    21A     -0.942406
      22A     -0.877904    23A     -0.831690    24A     -0.788114
      25A     -0.725316    26A     -0.692167    27A     -0.691157
      28A     -0.656123    29A     -0.634582    30A     -0.616532
      31A     -0.609008    32A     -0.586833    33A     -0.566415
      34A     -0.556521    35A     -0.554168    36A     -0.544821
      37A     -0.539837    38A     -0.509983    39A     -0.500450
      40A     -0.495225    41A     -0.490237    42A     -0.485272
      43A     -0.482522    44A     -0.463364    45A     -0.453768

  @DF-RHF Final Energy:  -857.62530037386671

   => Energetics <=

    Nuclear Repulsion Energy =            722.5308915511899386
    One-Electron Energy =               -2612.5655897225451554
    Two-Electron Energy =                1032.4093977974882819
    Total Energy =                       -857.6253003738668212
  Basis Set: (AUG-CC-PVTZ AUX)
    Blend: AUG-CC-PVTZ-RI
    Molecular point group: c1

    Geometry (in Angstrom), charge = 0, multiplicity = 1:

       Center              X                  Y                   Z               Mass
    ------------   -----------------  -----------------  -----------------  -----------------
         S           -0.263520149173    -0.399195540416     0.148685117214    31.972071174400
         O           -1.534649149173     0.604240459584    -0.117887882786    15.994914619570
         O           -0.319683149173    -1.484312540416    -0.833266882786    15.994914619570
         O           -0.184835149173    -0.718204540416     1.575216117214    15.994914619570
         C            2.393306850827     0.337926459584     0.205193117214    12.000000000000
         C            1.005283850827     0.785229459584    -0.259495882786    12.000000000000
         C            2.869170850827    -0.928013540416    -0.506024882786    12.000000000000
         C            3.372165850827     1.490735459584    -0.019194882786    12.000000000000
         C           -2.827797149173    -0.076412540416    -0.118803882786    12.000000000000
         C           -3.871030149173     1.006822459584    -0.258561882786    12.000000000000
         H            2.329478850827     0.137546459584     1.281275117214     1.007825032230
         H            0.963212850827     0.927296459584    -1.344024882786     1.007825032230
         H            0.705634850827     1.714787459584     0.233493117214     1.007825032230
         H            2.900283850827    -0.769154540416    -1.589450882786     1.007825032230
         H            2.219003850827    -1.783370540416    -0.311700882786     1.007825032230
         H            3.878972850827    -1.184851540416    -0.172454882786     1.007825032230
         H            3.449249850827     1.730882459584    -1.085064882786     1.007825032230
         H            3.059405850827     2.393918459584     0.513936117214     1.007825032230
         H            4.369614850827     1.216012459584     0.336141117214     1.007825032230
         H           -2.847244149173    -0.782801540416    -0.952427882786     1.007825032230
         H           -2.936331149173    -0.625039540416     0.821677117214     1.007825032230
         H           -3.797304249173     1.783997659584     0.504451417214     1.007825032230
         H           -3.722315149173     1.561894459584    -1.187009882786     1.007825032230
         H           -4.867902149173     0.557013459584    -0.276502882786     1.007825032230

  Basis Set: AUG-CC-PVTZ
    Blend: AUG-CC-PVTZ
  Basis Set: (AUG-CC-PVTZ AUX)
    Blend: AUG-CC-PVTZ-JKFIT
	 Reference Energy          =    -857.6253003738667076 [Eh]
	 Singles Energy            =      -0.0000000000000000 [Eh]
	 Same-Spin Energy          =      -0.5253134863074993 [Eh]
	 Opposite-Spin Energy      =      -1.6808146096715939 [Eh]
	 Correlation Energy        =      -2.2061280959790932 [Eh]
	 Total Energy              =    -859.8314284698458323 [Eh]

	 ================> DF-SCS-MP2 Energies <==================
	-----------------------------------------------------------
	 SCS Same-Spin Scale       =       0.3333333333333333 [-]
	 SCS Opposite-Spin Scale   =       1.2000000000000000 [-]
	 SCS Same-Spin Energy      =      -0.1751044954358331 [Eh]
	 SCS Opposite-Spin Energy  =      -2.0169775316059124 [Eh]
	 SCS Correlation Energy    =      -2.1920820270417454 [Eh]
	 SCS Total Energy          =    -859.8173824009084001 [Eh]
	-----------------------------------------------------------

  Dipole Moment: [D]
     X:    -0.0414      Y:     2.7319      Z:    -1.0617     Total:     2.9312

*** Psi4 exiting successfully. Buy a developer a beer!
