                               Psi4 1.4a3.dev225

  ==> Input File <==

--------------------------------------------------------------------------
#psi4
#
memory 32 gb

molecule  {
0 1
  S       -0.2946600    -0.4360860     0.1655790
  O       -1.5657890     0.5673500    -0.1009940
  O       -0.3508230    -1.5212030    -0.8163730
  O       -0.2159750    -0.7550950     1.5921100
  C        2.3621670     0.3010360     0.2220870
  C        0.9407207     0.7365665    -0.1418185
  C        2.8380310    -0.9649040    -0.4891310
  C        3.3410260     1.4538450    -0.0023010
  C       -2.8589370    -0.1133030    -0.1019100
  C       -3.9021700     0.9699320    -0.2416680
  H        2.2983390     0.1006560     1.2981690
  H        0.9320730     0.8904060    -1.3271310
  H        0.6744950     1.6778970     0.2503870
  H        2.8691440    -0.8060450    -1.5725570
  H        2.1878640    -1.8202610    -0.2948070
  H        3.8478330    -1.2217420    -0.1555610
  H        3.4181100     1.6939920    -1.0681710
  H        3.0282660     2.3570280     0.5308300
  H        4.3384750     1.1791220     0.3530350
  H       -2.8783840    -0.8196920    -0.9355340
  H       -2.9674710    -0.6619300     0.8385710
  H       -3.8465560     1.6647390     0.5984370
  H       -3.7534550     1.5250040    -1.1701160
  H       -4.8990420     0.5201230    -0.2596090
units angstrom
no_reorient  #important for SAPT in psi4, default
symmetry c1  #important for SAPT in psi4, default
}

set PROPERTIES_ORIGIN ["COM"]
properties('MP2/aug-cc-pvtz', properties = ['dipole'])
--------------------------------------------------------------------------

    Molecular point group: c1
  Charge       = 0
  Multiplicity = 1
  Basis Set: AUG-CC-PVTZ
    Blend: AUG-CC-PVTZ
  Basis Set: (AUG-CC-PVTZ AUX)
    Blend: AUG-CC-PVTZ-JKFIT

    Orbital Energies [Eh]
    ---------------------

    Doubly Occupied:

       1A    -92.215731     2A    -20.615428     3A    -20.557528
       4A    -20.550197     5A    -11.302344     6A    -11.279125
       7A    -11.252587     8A    -11.233273     9A    -11.230429
      10A    -11.219721    11A     -9.180252    12A     -6.865768
      13A     -6.864458    14A     -6.864044    15A     -1.483112
      16A     -1.375934    17A     -1.338340    18A     -1.122371
      19A     -1.053403    20A     -1.002082    21A     -0.942768
      22A     -0.877661    23A     -0.833339    24A     -0.785306
      25A     -0.730452    26A     -0.693914    27A     -0.688733
      28A     -0.660420    29A     -0.635545    30A     -0.617559
      31A     -0.607977    32A     -0.575384    33A     -0.566106
      34A     -0.557022    35A     -0.554784    36A     -0.542566
      37A     -0.538148    38A     -0.515091    39A     -0.500375
      40A     -0.497257    41A     -0.494839    42A     -0.482527
      43A     -0.471966    44A     -0.465165    45A     -0.459480

  @DF-RHF Final Energy:  -857.61499127031334

   => Energetics <=

    Nuclear Repulsion Energy =            723.6982684796524836
    One-Electron Energy =               -2614.8254895764684989
    Two-Electron Energy =                1033.5122298265025620
    Total Energy =                       -857.6149912703133396
  Basis Set: (AUG-CC-PVTZ AUX)
    Blend: AUG-CC-PVTZ-RI
    Molecular point group: c1

    Geometry (in Angstrom), charge = 0, multiplicity = 1:

       Center              X                  Y                   Z               Mass
    ------------   -----------------  -----------------  -----------------  -----------------
         S           -0.260995054913    -0.397844979553     0.140934619747    31.972071174400
         O           -1.532124054913     0.605591020447    -0.125638380253    15.994914619570
         O           -0.317158054913    -1.482961979553    -0.841017380253    15.994914619570
         O           -0.182310054913    -0.716853979553     1.567465619747    15.994914619570
         C            2.395831945087     0.339277020447     0.197442619747    12.000000000000
         C            0.974385645087     0.774807520447    -0.166462880253    12.000000000000
         C            2.871695945087    -0.926662979553    -0.513775380253    12.000000000000
         C            3.374690945087     1.492086020447    -0.026945380253    12.000000000000
         C           -2.825272054913    -0.075061979553    -0.126554380253    12.000000000000
         C           -3.868505054913     1.008173020447    -0.266312380253    12.000000000000
         H            2.332003945087     0.138897020447     1.273524619747     1.007825032230
         H            0.965737945087     0.928647020447    -1.351775380253     1.007825032230
         H            0.708159945087     1.716138020447     0.225742619747     1.007825032230
         H            2.902808945087    -0.767803979553    -1.597201380253     1.007825032230
         H            2.221528945087    -1.782019979553    -0.319451380253     1.007825032230
         H            3.881497945087    -1.183500979553    -0.180205380253     1.007825032230
         H            3.451774945087     1.732233020447    -1.092815380253     1.007825032230
         H            3.061930945087     2.395269020447     0.506185619747     1.007825032230
         H            4.372139945087     1.217363020447     0.328390619747     1.007825032230
         H           -2.844719054913    -0.781450979553    -0.960178380253     1.007825032230
         H           -2.933806054913    -0.623688979553     0.813926619747     1.007825032230
         H           -3.812891054913     1.702980020447     0.573792619747     1.007825032230
         H           -3.719790054913     1.563245020447    -1.194760380253     1.007825032230
         H           -4.865377054913     0.558364020447    -0.284253380253     1.007825032230

  Basis Set: AUG-CC-PVTZ
    Blend: AUG-CC-PVTZ
  Basis Set: (AUG-CC-PVTZ AUX)
    Blend: AUG-CC-PVTZ-JKFIT
	 Reference Energy          =    -857.6149912703133396 [Eh]
	 Singles Energy            =      -0.0000000000000000 [Eh]
	 Same-Spin Energy          =      -0.5258061001343265 [Eh]
	 Opposite-Spin Energy      =      -1.6815140738816940 [Eh]
	 Correlation Energy        =      -2.2073201740160204 [Eh]
	 Total Energy              =    -859.8223114443293298 [Eh]

	 ================> DF-SCS-MP2 Energies <==================
	-----------------------------------------------------------
	 SCS Same-Spin Scale       =       0.3333333333333333 [-]
	 SCS Opposite-Spin Scale   =       1.2000000000000000 [-]
	 SCS Same-Spin Energy      =      -0.1752687000447755 [Eh]
	 SCS Opposite-Spin Energy  =      -2.0178168886580328 [Eh]
	 SCS Correlation Energy    =      -2.1930855887028082 [Eh]
	 SCS Total Energy          =    -859.8080768590161824 [Eh]
	-----------------------------------------------------------

  Dipole Moment: [D]
     X:    -0.0331      Y:     2.7112      Z:    -1.0637     Total:     2.9126

*** Psi4 exiting successfully. Buy a developer a beer!
