                               Psi4 1.4a3.dev225

  ==> Input File <==

--------------------------------------------------------------------------
#psi4
#
memory 32 gb

molecule  {
0 1
  S       -0.2946600    -0.4360860     0.1655790
  O       -1.5657890     0.5673500    -0.1009940
  O       -0.3508230    -1.5212030    -0.8163730
  O       -0.2159750    -0.7550950     1.5921100
  C        2.3621670     0.3010360     0.2220870
  C        0.9741440     0.7483390    -0.2426020
  C        2.8380310    -0.9649040    -0.4891310
  C        3.3410260     1.4538450    -0.0023010
  C       -2.8589370    -0.1133030    -0.1019100
  C       -3.9021700     0.9699320    -0.2416680
  H        2.2983390     0.1006560     1.2981690
  H        0.9320730     0.8904060    -1.3271310
  H        0.6744950     1.6778970     0.2503870
  H        2.8691440    -0.8060450    -1.5725570
  H        2.1878640    -1.8202610    -0.2948070
  H        3.8478330    -1.2217420    -0.1555610
  H        3.4181100     1.6939920    -1.0681710
  H        3.0282660     2.3570280     0.5308300
  H        4.4296569     1.1540082     0.3855181
  H       -2.8783840    -0.8196920    -0.9355340
  H       -2.9674710    -0.6619300     0.8385710
  H       -3.8465560     1.6647390     0.5984370
  H       -3.7534550     1.5250040    -1.1701160
  H       -4.8990420     0.5201230    -0.2596090
units angstrom
no_reorient  #important for SAPT in psi4, default
symmetry c1  #important for SAPT in psi4, default
}

set PROPERTIES_ORIGIN ["COM"]
properties('MP2/aug-cc-pvtz', properties = ['dipole'])
--------------------------------------------------------------------------

    Molecular point group: c1
  Charge       = 0
  Multiplicity = 1
  Basis Set: AUG-CC-PVTZ
    Blend: AUG-CC-PVTZ
  Basis Set: (AUG-CC-PVTZ AUX)
    Blend: AUG-CC-PVTZ-JKFIT

    Orbital Energies [Eh]
    ---------------------

    Doubly Occupied:

       1A    -92.214492     2A    -20.615384     3A    -20.554164
       4A    -20.554019     5A    -11.302261     6A    -11.279061
       7A    -11.252490     8A    -11.241321     9A    -11.233306
      10A    -11.218605    11A     -9.178715    12A     -6.864171
      13A     -6.862735    14A     -6.862551    15A     -1.481523
      16A     -1.375542    17A     -1.337885    18A     -1.121003
      19A     -1.051596    20A     -0.995530    21A     -0.938498
      22A     -0.876353    23A     -0.830181    24A     -0.787458
      25A     -0.725221    26A     -0.693301    27A     -0.690440
      28A     -0.657345    29A     -0.635267    30A     -0.616001
      31A     -0.605491    32A     -0.584820    33A     -0.567125
      34A     -0.558911    35A     -0.555269    36A     -0.539811
      37A     -0.530876    38A     -0.510595    39A     -0.500415
      40A     -0.497015    41A     -0.488172    42A     -0.485908
      43A     -0.482698    44A     -0.463715    45A     -0.453554

  @DF-RHF Final Energy:  -857.61997069031997

   => Energetics <=

    Nuclear Repulsion Energy =            722.1284187275830391
    One-Electron Energy =               -2611.7551913117481490
    Two-Electron Energy =                1032.0068018938452497
    Total Energy =                       -857.6199706903198603
  Basis Set: (AUG-CC-PVTZ AUX)
    Blend: AUG-CC-PVTZ-RI
    Molecular point group: c1

    Geometry (in Angstrom), charge = 0, multiplicity = 1:

       Center              X                  Y                   Z               Mass
    ------------   -----------------  -----------------  -----------------  -----------------
         S           -0.263963597037    -0.398543252700     0.148020128696    31.972071174400
         O           -1.535092597037     0.604892747300    -0.118552871304    15.994914619570
         O           -0.320126597037    -1.483660252700    -0.833931871304    15.994914619570
         O           -0.185278597037    -0.717552252700     1.574551128696    15.994914619570
         C            2.392863402963     0.338578747300     0.204528128696    12.000000000000
         C            1.004840402963     0.785881747300    -0.260160871304    12.000000000000
         C            2.868727402963    -0.927361252700    -0.506689871304    12.000000000000
         C            3.371722402963     1.491387747300    -0.019859871304    12.000000000000
         C           -2.828240597037    -0.075760252700    -0.119468871304    12.000000000000
         C           -3.871473597037     1.007474747300    -0.259226871304    12.000000000000
         H            2.329035402963     0.138198747300     1.280610128696     1.007825032230
         H            0.962769402963     0.927948747300    -1.344689871304     1.007825032230
         H            0.705191402963     1.715439747300     0.232828128696     1.007825032230
         H            2.899840402963    -0.768502252700    -1.590115871304     1.007825032230
         H            2.218560402963    -1.782718252700    -0.312365871304     1.007825032230
         H            3.878529402963    -1.184199252700    -0.173119871304     1.007825032230
         H            3.448806402963     1.731534747300    -1.085729871304     1.007825032230
         H            3.058962402963     2.394570747300     0.513271128696     1.007825032230
         H            4.460353302963     1.191550947300     0.367959228696     1.007825032230
         H           -2.847687597037    -0.782149252700    -0.953092871304     1.007825032230
         H           -2.936774597037    -0.624387252700     0.821012128696     1.007825032230
         H           -3.815859597037     1.702281747300     0.580878128696     1.007825032230
         H           -3.722758597037     1.562546747300    -1.187674871304     1.007825032230
         H           -4.868345597037     0.557665747300    -0.277167871304     1.007825032230

  Basis Set: AUG-CC-PVTZ
    Blend: AUG-CC-PVTZ
  Basis Set: (AUG-CC-PVTZ AUX)
    Blend: AUG-CC-PVTZ-JKFIT
	 Reference Energy          =    -857.6199706903199740 [Eh]
	 Singles Energy            =      -0.0000000000000000 [Eh]
	 Same-Spin Energy          =      -0.5253071552864148 [Eh]
	 Opposite-Spin Energy      =      -1.6815494862676612 [Eh]
	 Correlation Energy        =      -2.2068566415540758 [Eh]
	 Total Energy              =    -859.8268273318740285 [Eh]

	 ================> DF-SCS-MP2 Energies <==================
	-----------------------------------------------------------
	 SCS Same-Spin Scale       =       0.3333333333333333 [-]
	 SCS Opposite-Spin Scale   =       1.2000000000000000 [-]
	 SCS Same-Spin Energy      =      -0.1751023850954716 [Eh]
	 SCS Opposite-Spin Energy  =      -2.0178593835211935 [Eh]
	 SCS Correlation Energy    =      -2.1929617686166649 [Eh]
	 SCS Total Energy          =    -859.8129324589366433 [Eh]
	-----------------------------------------------------------

  Dipole Moment: [D]
     X:    -0.1462      Y:     2.7041      Z:    -1.0591     Total:     2.9078

*** Psi4 exiting successfully. Buy a developer a beer!
