                               Psi4 1.4a3.dev225

  ==> Input File <==

--------------------------------------------------------------------------
#psi4
#
memory 32 gb

molecule  {
0 1
  S       -0.2946600    -0.4360860     0.1655790
  O       -1.5657890     0.5673500    -0.1009940
  O       -0.3508230    -1.5212030    -0.8163730
  O       -0.2159750    -0.7550950     1.5921100
  C        2.3621670     0.3010360     0.2220870
  C        0.9741440     0.7483390    -0.2426020
  C        2.8380310    -0.9649040    -0.4891310
  C        3.3410260     1.4538450    -0.0023010
  C       -2.8589370    -0.1133030    -0.1019100
  C       -3.9021700     0.9699320    -0.2416680
  H        2.2983390     0.1006560     1.2981690
  H        0.9320730     0.8904060    -1.3271310
  H        0.6744950     1.6778970     0.2503870
  H        2.8691440    -0.8060450    -1.5725570
  H        2.1580901    -1.8594314    -0.2859081
  H        3.8478330    -1.2217420    -0.1555610
  H        3.4181100     1.6939920    -1.0681710
  H        3.0282660     2.3570280     0.5308300
  H        4.3384750     1.1791220     0.3530350
  H       -2.8783840    -0.8196920    -0.9355340
  H       -2.9674710    -0.6619300     0.8385710
  H       -3.8465560     1.6647390     0.5984370
  H       -3.7534550     1.5250040    -1.1701160
  H       -4.8990420     0.5201230    -0.2596090
units angstrom
no_reorient  #important for SAPT in psi4, default
symmetry c1  #important for SAPT in psi4, default
}

set PROPERTIES_ORIGIN ["COM"]
properties('MP2/aug-cc-pvtz', properties = ['dipole'])
--------------------------------------------------------------------------

    Molecular point group: c1
  Charge       = 0
  Multiplicity = 1
  Basis Set: AUG-CC-PVTZ
    Blend: AUG-CC-PVTZ
  Basis Set: (AUG-CC-PVTZ AUX)
    Blend: AUG-CC-PVTZ-JKFIT

    Orbital Energies [Eh]
    ---------------------

    Doubly Occupied:

       1A    -92.213756     2A    -20.614840     3A    -20.553451
       4A    -20.553424     5A    -11.301867     6A    -11.278178
       7A    -11.251894     8A    -11.233002     9A    -11.229902
      10A    -11.224167    11A     -9.177999    12A     -6.863455
      13A     -6.862011    14A     -6.861835    15A     -1.480933
      16A     -1.374996    17A     -1.337287    18A     -1.120757
      19A     -1.051422    20A     -0.996464    21A     -0.939251
      22A     -0.876846    23A     -0.830570    24A     -0.787331
      25A     -0.725140    26A     -0.692755    27A     -0.690602
      28A     -0.656430    29A     -0.634867    30A     -0.613767
      31A     -0.606491    32A     -0.585506    33A     -0.567136
      34A     -0.558841    35A     -0.553637    36A     -0.543933
      37A     -0.537203    38A     -0.507626    39A     -0.499988
      40A     -0.496886    41A     -0.489800    42A     -0.485157
      43A     -0.482010    44A     -0.463240    45A     -0.452486

  @DF-RHF Final Energy:  -857.62429732633211

   => Energetics <=

    Nuclear Repulsion Energy =            722.4121619419640865
    One-Electron Energy =               -2612.3546365162155780
    Two-Electron Energy =                1032.3181772479194933
    Total Energy =                       -857.6242973263319982
  Basis Set: (AUG-CC-PVTZ AUX)
    Blend: AUG-CC-PVTZ-RI
    Molecular point group: c1

    Geometry (in Angstrom), charge = 0, multiplicity = 1:

       Center              X                  Y                   Z               Mass
    ------------   -----------------  -----------------  -----------------  -----------------
         S           -0.263229539405    -0.398457945882     0.148163256698    31.972071174400
         O           -1.534358539405     0.604978054118    -0.118409743302    15.994914619570
         O           -0.319392539405    -1.483574945882    -0.833788743302    15.994914619570
         O           -0.184544539405    -0.717466945882     1.574694256698    15.994914619570
         C            2.393597460595     0.338664054118     0.204671256698    12.000000000000
         C            1.005574460595     0.785967054118    -0.260017743302    12.000000000000
         C            2.869461460595    -0.927275945882    -0.506546743302    12.000000000000
         C            3.372456460595     1.491473054118    -0.019716743302    12.000000000000
         C           -2.827506539405    -0.075674945882    -0.119325743302    12.000000000000
         C           -3.870739539405     1.007560054118    -0.259083743302    12.000000000000
         H            2.329769460595     0.138284054118     1.280753256698     1.007825032230
         H            0.963503460595     0.928034054118    -1.344546743302     1.007825032230
         H            0.705925460595     1.715525054118     0.232971256698     1.007825032230
         H            2.900574460595    -0.768416945882    -1.589972743302     1.007825032230
         H            2.189520560595    -1.821803345882    -0.303323843302     1.007825032230
         H            3.879263460595    -1.184113945882    -0.172976743302     1.007825032230
         H            3.449540460595     1.731620054118    -1.085586743302     1.007825032230
         H            3.059696460595     2.394656054118     0.513414256698     1.007825032230
         H            4.369905460595     1.216750054118     0.335619256698     1.007825032230
         H           -2.846953539405    -0.782063945882    -0.952949743302     1.007825032230
         H           -2.936040539405    -0.624301945882     0.821155256698     1.007825032230
         H           -3.815125539405     1.702367054118     0.581021256698     1.007825032230
         H           -3.722024539405     1.562632054118    -1.187531743302     1.007825032230
         H           -4.867611539405     0.557751054118    -0.277024743302     1.007825032230

  Basis Set: AUG-CC-PVTZ
    Blend: AUG-CC-PVTZ
  Basis Set: (AUG-CC-PVTZ AUX)
    Blend: AUG-CC-PVTZ-JKFIT
	 Reference Energy          =    -857.6242973263321119 [Eh]
	 Singles Energy            =      -0.0000000000000000 [Eh]
	 Same-Spin Energy          =      -0.5253614736353351 [Eh]
	 Opposite-Spin Energy      =      -1.6812104326097912 [Eh]
	 Correlation Energy        =      -2.2065719062451263 [Eh]
	 Total Energy              =    -859.8308692325772427 [Eh]

	 ================> DF-SCS-MP2 Energies <==================
	-----------------------------------------------------------
	 SCS Same-Spin Scale       =       0.3333333333333333 [-]
	 SCS Opposite-Spin Scale   =       1.2000000000000000 [-]
	 SCS Same-Spin Energy      =      -0.1751204912117784 [Eh]
	 SCS Opposite-Spin Energy  =      -2.0174525191317492 [Eh]
	 SCS Correlation Energy    =      -2.1925730103435277 [Eh]
	 SCS Total Energy          =    -859.8168703366756063 [Eh]
	-----------------------------------------------------------

  Dipole Moment: [D]
     X:    -0.0598      Y:     2.7272      Z:    -1.0455     Total:     2.9213

*** Psi4 exiting successfully. Buy a developer a beer!
