                               Psi4 1.4a3.dev225

  ==> Input File <==

--------------------------------------------------------------------------
#psi4
#
memory 32 gb

molecule  {
0 1
  S       -0.2946600    -0.4360860     0.1655790
  O       -1.5657890     0.5673500    -0.1009940
  O       -0.3508230    -1.5212030    -0.8163730
  O       -0.2159750    -0.7550950     1.5921100
  C        2.3621670     0.3010360     0.2220870
  C        0.9741440     0.7483390    -0.2426020
  C        2.8380310    -0.9649040    -0.4891310
  C        3.3410260     1.4538450    -0.0023010
  C       -2.8589370    -0.1133030    -0.1019100
  C       -3.9021700     0.9699320    -0.2416680
  H        2.2983390     0.1006560     1.2981690
  H        0.9320730     0.8904060    -1.3271310
  H        0.6744950     1.6778970     0.2503870
  H        2.8691440    -0.8060450    -1.5725570
  H        2.1878640    -1.8202610    -0.2948070
  H        3.8478330    -1.2217420    -0.1555610
  H        3.4181100     1.6939920    -1.0681710
  H        3.0282660     2.3570280     0.5308300
  H        4.3384750     1.1791220     0.3530350
  H       -2.8783840    -0.8196920    -0.9355340
  H       -2.9674710    -0.6619300     0.8385710
  H       -3.8465560     1.6647390     0.5984370
  H       -3.7534550     1.5250040    -1.1701160
  H       -4.8990420     0.5201230    -0.2596090
units angstrom
no_reorient  #important for SAPT in psi4, default
symmetry c1  #important for SAPT in psi4, default
}

set PROPERTIES_ORIGIN ["COM"]
properties('MP2/aug-cc-pvtz', properties = ['dipole'])
--------------------------------------------------------------------------

    Molecular point group: c1
  Charge       = 0
  Multiplicity = 1
  Basis Set: AUG-CC-PVTZ
    Blend: AUG-CC-PVTZ
  Basis Set: (AUG-CC-PVTZ AUX)
    Blend: AUG-CC-PVTZ-JKFIT

    Orbital Energies [Eh]
    ---------------------

    Doubly Occupied:

       1A    -92.213834     2A    -20.614902     3A    -20.553685
       4A    -20.553544     5A    -11.301916     6A    -11.278129
       7A    -11.251493     8A    -11.233034     9A    -11.229530
      10A    -11.218619    11A     -9.178082    12A     -6.863538
      13A     -6.862093    14A     -6.861918    15A     -1.481038
      16A     -1.375084    17A     -1.337424    18A     -1.120940
      19A     -1.051527    20A     -0.996733    21A     -0.942346
      22A     -0.877031    23A     -0.830777    24A     -0.788039
      25A     -0.725212    26A     -0.692871    27A     -0.690683
      28A     -0.656788    29A     -0.635060    30A     -0.616150
      31A     -0.606750    32A     -0.586725    33A     -0.567217
      34A     -0.558880    35A     -0.554660    36A     -0.543600
      37A     -0.537405    38A     -0.510036    39A     -0.500020
      40A     -0.496893    41A     -0.490495    42A     -0.485426
      43A     -0.482569    44A     -0.463334    45A     -0.453661

  @DF-RHF Final Energy:  -857.62651200733967

   => Energetics <=

    Nuclear Repulsion Energy =            722.5754616461321120
    One-Electron Energy =               -2612.6645677999326836
    Two-Electron Energy =                1032.4625941464607877
    Total Energy =                       -857.6265120073396702
  Basis Set: (AUG-CC-PVTZ AUX)
    Blend: AUG-CC-PVTZ-RI
    Molecular point group: c1

    Geometry (in Angstrom), charge = 0, multiplicity = 1:

       Center              X                  Y                   Z               Mass
    ------------   -----------------  -----------------  -----------------  -----------------
         S           -0.263410231513    -0.398695663553     0.148217262421    31.972071174400
         O           -1.534539231513     0.604740336447    -0.118355737579    15.994914619570
         O           -0.319573231513    -1.483812663553    -0.833734737579    15.994914619570
         O           -0.184725231513    -0.717704663553     1.574748262421    15.994914619570
         C            2.393416768487     0.338426336447     0.204725262421    12.000000000000
         C            1.005393768487     0.785729336447    -0.259963737579    12.000000000000
         C            2.869280768487    -0.927513663553    -0.506492737579    12.000000000000
         C            3.372275768487     1.491235336447    -0.019662737579    12.000000000000
         C           -2.827687231513    -0.075912663553    -0.119271737579    12.000000000000
         C           -3.870920231513     1.007322336447    -0.259029737579    12.000000000000
         H            2.329588768487     0.138046336447     1.280807262421     1.007825032230
         H            0.963322768487     0.927796336447    -1.344492737579     1.007825032230
         H            0.705744768487     1.715287336447     0.233025262421     1.007825032230
         H            2.900393768487    -0.768654663553    -1.589918737579     1.007825032230
         H            2.219113768487    -1.782870663553    -0.312168737579     1.007825032230
         H            3.879082768487    -1.184351663553    -0.172922737579     1.007825032230
         H            3.449359768487     1.731382336447    -1.085532737579     1.007825032230
         H            3.059515768487     2.394418336447     0.513468262421     1.007825032230
         H            4.369724768487     1.216512336447     0.335673262421     1.007825032230
         H           -2.847134231513    -0.782301663553    -0.952895737579     1.007825032230
         H           -2.936221231513    -0.624539663553     0.821209262421     1.007825032230
         H           -3.815306231513     1.702129336447     0.581075262421     1.007825032230
         H           -3.722205231513     1.562394336447    -1.187477737579     1.007825032230
         H           -4.867792231513     0.557513336447    -0.276970737579     1.007825032230

  Basis Set: AUG-CC-PVTZ
    Blend: AUG-CC-PVTZ
  Basis Set: (AUG-CC-PVTZ AUX)
    Blend: AUG-CC-PVTZ-JKFIT
	 Reference Energy          =    -857.6265120073396702 [Eh]
	 Singles Energy            =      -0.0000000000000000 [Eh]
	 Same-Spin Energy          =      -0.5252899371982487 [Eh]
	 Opposite-Spin Energy      =      -1.6808001056578303 [Eh]
	 Correlation Energy        =      -2.2060900428560792 [Eh]
	 Total Energy              =    -859.8326020501957601 [Eh]

	 ================> DF-SCS-MP2 Energies <==================
	-----------------------------------------------------------
	 SCS Same-Spin Scale       =       0.3333333333333333 [-]
	 SCS Opposite-Spin Scale   =       1.2000000000000000 [-]
	 SCS Same-Spin Energy      =      -0.1750966457327496 [Eh]
	 SCS Opposite-Spin Energy  =      -2.0169601267893964 [Eh]
	 SCS Correlation Energy    =      -2.1920567725221458 [Eh]
	 SCS Total Energy          =    -859.8185687798618346 [Eh]
	-----------------------------------------------------------

  Dipole Moment: [D]
     X:    -0.0658      Y:     2.7091      Z:    -1.0443     Total:     2.9041

*** Psi4 exiting successfully. Buy a developer a beer!
