                               Psi4 1.4a3.dev225

  ==> Input File <==

--------------------------------------------------------------------------
#psi4
#
memory 32 gb

molecule  {
0 1
  S       -0.2946600    -0.4360860     0.1655790
  O       -1.5807194     0.5937493    -0.0599823
  O       -0.3508230    -1.5212030    -0.8163730
  O       -0.2159750    -0.7550950     1.5921100
  C        2.3621670     0.3010360     0.2220870
  C        0.9741440     0.7483390    -0.2426020
  C        2.8380310    -0.9649040    -0.4891310
  C        3.3410260     1.4538450    -0.0023010
  C       -2.8589370    -0.1133030    -0.1019100
  C       -3.9021700     0.9699320    -0.2416680
  H        2.2983390     0.1006560     1.2981690
  H        0.9320730     0.8904060    -1.3271310
  H        0.6744950     1.6778970     0.2503870
  H        2.8691440    -0.8060450    -1.5725570
  H        2.1878640    -1.8202610    -0.2948070
  H        3.8478330    -1.2217420    -0.1555610
  H        3.4181100     1.6939920    -1.0681710
  H        3.0282660     2.3570280     0.5308300
  H        4.3384750     1.1791220     0.3530350
  H       -2.8783840    -0.8196920    -0.9355340
  H       -2.9674710    -0.6619300     0.8385710
  H       -3.8465560     1.6647390     0.5984370
  H       -3.7534550     1.5250040    -1.1701160
  H       -4.8990420     0.5201230    -0.2596090
units angstrom
no_reorient  #important for SAPT in psi4, default
symmetry c1  #important for SAPT in psi4, default
}

set PROPERTIES_ORIGIN ["COM"]
properties('MP2/aug-cc-pvtz', properties = ['dipole'])
--------------------------------------------------------------------------

    Molecular point group: c1
  Charge       = 0
  Multiplicity = 1
  Basis Set: AUG-CC-PVTZ
    Blend: AUG-CC-PVTZ
  Basis Set: (AUG-CC-PVTZ AUX)
    Blend: AUG-CC-PVTZ-JKFIT

    Orbital Energies [Eh]
    ---------------------

    Doubly Occupied:

       1A    -92.214725     2A    -20.614569     3A    -20.557884
       4A    -20.553202     5A    -11.300258     6A    -11.279109
       7A    -11.252160     8A    -11.231502     9A    -11.230018
      10A    -11.219307    11A     -9.178996    12A     -6.864379
      13A     -6.862963    14A     -6.862805    15A     -1.477682
      16A     -1.373109    17A     -1.338745    18A     -1.121534
      19A     -1.049005    20A     -0.997073    21A     -0.942945
      22A     -0.873911    23A     -0.832140    24A     -0.788136
      25A     -0.724005    26A     -0.690965    27A     -0.690426
      28A     -0.656528    29A     -0.636033    30A     -0.615972
      31A     -0.606548    32A     -0.587393    33A     -0.565594
      34A     -0.557834    35A     -0.554177    36A     -0.544146
      37A     -0.537171    38A     -0.511223    39A     -0.500290
      40A     -0.496704    41A     -0.490704    42A     -0.485087
      43A     -0.483001    44A     -0.464251    45A     -0.453928

  @DF-RHF Final Energy:  -857.62355468570047

   => Energetics <=

    Nuclear Repulsion Energy =            721.7851015376174928
    One-Electron Energy =               -2611.0810374612083251
    Two-Electron Energy =                1031.6723812378902494
    Total Energy =                       -857.6235546857005829
  Basis Set: (AUG-CC-PVTZ AUX)
    Blend: AUG-CC-PVTZ-RI
    Molecular point group: c1

    Geometry (in Angstrom), charge = 0, multiplicity = 1:

       Center              X                  Y                   Z               Mass
    ------------   -----------------  -----------------  -----------------  -----------------
         S           -0.261972189123    -0.401238349113     0.144267163086    31.972071174400
         O           -1.548031589123     0.628596950887    -0.081294136914    15.994914619570
         O           -0.318135189123    -1.486355349113    -0.837684836914    15.994914619570
         O           -0.183287189123    -0.720247349113     1.570798163086    15.994914619570
         C            2.394854810877     0.335883650887     0.200775163086    12.000000000000
         C            1.006831810877     0.783186650887    -0.263913836914    12.000000000000
         C            2.870718810877    -0.930056349113    -0.510442836914    12.000000000000
         C            3.373713810877     1.488692650887    -0.023612836914    12.000000000000
         C           -2.826249189123    -0.078455349113    -0.123221836914    12.000000000000
         C           -3.869482189123     1.004779650887    -0.262979836914    12.000000000000
         H            2.331026810877     0.135503650887     1.276857163086     1.007825032230
         H            0.964760810877     0.925253650887    -1.348442836914     1.007825032230
         H            0.707182810877     1.712744650887     0.229075163086     1.007825032230
         H            2.901831810877    -0.771197349113    -1.593868836914     1.007825032230
         H            2.220551810877    -1.785413349113    -0.316118836914     1.007825032230
         H            3.880520810877    -1.186894349113    -0.176872836914     1.007825032230
         H            3.450797810877     1.728839650887    -1.089482836914     1.007825032230
         H            3.060953810877     2.391875650887     0.509518163086     1.007825032230
         H            4.371162810877     1.213969650887     0.331723163086     1.007825032230
         H           -2.845696189123    -0.784844349113    -0.956845836914     1.007825032230
         H           -2.934783189123    -0.627082349113     0.817259163086     1.007825032230
         H           -3.813868189123     1.699586650887     0.577125163086     1.007825032230
         H           -3.720767189123     1.559851650887    -1.191427836914     1.007825032230
         H           -4.866354189123     0.554970650887    -0.280920836914     1.007825032230

  Basis Set: AUG-CC-PVTZ
    Blend: AUG-CC-PVTZ
  Basis Set: (AUG-CC-PVTZ AUX)
    Blend: AUG-CC-PVTZ-JKFIT
	 Reference Energy          =    -857.6235546857004692 [Eh]
	 Singles Energy            =      -0.0000000000000000 [Eh]
	 Same-Spin Energy          =      -0.5257926136785280 [Eh]
	 Opposite-Spin Energy      =      -1.6821119248580252 [Eh]
	 Correlation Energy        =      -2.2079045385365532 [Eh]
	 Total Energy              =    -859.8314592242370509 [Eh]

	 ================> DF-SCS-MP2 Energies <==================
	-----------------------------------------------------------
	 SCS Same-Spin Scale       =       0.3333333333333333 [-]
	 SCS Opposite-Spin Scale   =       1.2000000000000000 [-]
	 SCS Same-Spin Energy      =      -0.1752642045595093 [Eh]
	 SCS Opposite-Spin Energy  =      -2.0185343098296302 [Eh]
	 SCS Correlation Energy    =      -2.1937985143891394 [Eh]
	 SCS Total Energy          =    -859.8173532000896557 [Eh]
	-----------------------------------------------------------

  Dipole Moment: [D]
     X:     0.0782      Y:     2.6226      Z:    -1.1156     Total:     2.8511

*** Psi4 exiting successfully. Buy a developer a beer!
