                               Psi4 1.4a3.dev225

  ==> Input File <==

--------------------------------------------------------------------------
#psi4
#
memory 32 gb

molecule  {
0 1
  S       -0.2946600    -0.4360860     0.1655790
  O       -1.5657890     0.5673500    -0.1009940
  O       -0.3508230    -1.5212030    -0.8163730
  O       -0.2159750    -0.7550950     1.5921100
  C        2.3621670     0.3010360     0.2220870
  C        1.0143296     0.7579323    -0.3411216
  C        2.8380310    -0.9649040    -0.4891310
  C        3.3410260     1.4538450    -0.0023010
  C       -2.8589370    -0.1133030    -0.1019100
  C       -3.9021700     0.9699320    -0.2416680
  H        2.2983390     0.1006560     1.2981690
  H        0.9320730     0.8904060    -1.3271310
  H        0.6744950     1.6778970     0.2503870
  H        2.8691440    -0.8060450    -1.5725570
  H        2.1878640    -1.8202610    -0.2948070
  H        3.8478330    -1.2217420    -0.1555610
  H        3.4181100     1.6939920    -1.0681710
  H        3.0282660     2.3570280     0.5308300
  H        4.3384750     1.1791220     0.3530350
  H       -2.8783840    -0.8196920    -0.9355340
  H       -2.9674710    -0.6619300     0.8385710
  H       -3.8465560     1.6647390     0.5984370
  H       -3.7534550     1.5250040    -1.1701160
  H       -4.8990420     0.5201230    -0.2596090
units angstrom
no_reorient  #important for SAPT in psi4, default
symmetry c1  #important for SAPT in psi4, default
}

set PROPERTIES_ORIGIN ["COM"]
properties('MP2/aug-cc-pvtz', properties = ['dipole'])
--------------------------------------------------------------------------

    Molecular point group: c1
  Charge       = 0
  Multiplicity = 1
  Basis Set: AUG-CC-PVTZ
    Blend: AUG-CC-PVTZ
  Basis Set: (AUG-CC-PVTZ AUX)
    Blend: AUG-CC-PVTZ-JKFIT

    Orbital Energies [Eh]
    ---------------------

    Doubly Occupied:

       1A    -92.211526     2A    -20.614179     3A    -20.556419
       4A    -20.549694     5A    -11.301332     6A    -11.279984
       7A    -11.251986     8A    -11.232669     9A    -11.229117
      10A    -11.217959    11A     -9.175568    12A     -6.860947
      13A     -6.859543    14A     -6.859259    15A     -1.478861
      16A     -1.374111    17A     -1.336279    18A     -1.120884
      19A     -1.049736    20A     -0.992355    21A     -0.942449
      22A     -0.877145    23A     -0.828529    24A     -0.795689
      25A     -0.722139    26A     -0.692932    27A     -0.691205
      28A     -0.651476    29A     -0.634412    30A     -0.621963
      31A     -0.605830    32A     -0.595453    33A     -0.566883
      34A     -0.558927    35A     -0.554224    36A     -0.544449
      37A     -0.536687    38A     -0.506203    39A     -0.500289
      40A     -0.498957    41A     -0.490432    42A     -0.486132
      43A     -0.481928    44A     -0.462512    45A     -0.442653

  @DF-RHF Final Energy:  -857.61378057413128

   => Energetics <=

    Nuclear Repulsion Energy =            721.3720195708033316
    One-Electron Energy =               -2610.2877846999494977
    Two-Electron Energy =                1031.3019845550147693
    Total Energy =                       -857.6137805741313969
  Basis Set: (AUG-CC-PVTZ AUX)
    Blend: AUG-CC-PVTZ-RI
    Molecular point group: c1

    Geometry (in Angstrom), charge = 0, multiplicity = 1:

       Center              X                  Y                   Z               Mass
    ------------   -----------------  -----------------  -----------------  -----------------
         S           -0.266314053721    -0.399388877977     0.155336315076    31.972071174400
         O           -1.537443053721     0.604047122023    -0.111236684924    15.994914619570
         O           -0.322477053721    -1.484505877977    -0.826615684924    15.994914619570
         O           -0.187629053721    -0.718397877977     1.581867315076    15.994914619570
         C            2.390512946279     0.337733122023     0.211844315076    12.000000000000
         C            1.042675546279     0.794629422023    -0.351364284924    12.000000000000
         C            2.866376946279    -0.928206877977    -0.499373684924    12.000000000000
         C            3.369371946279     1.490542122023    -0.012543684924    12.000000000000
         C           -2.830591053721    -0.076605877977    -0.112152684924    12.000000000000
         C           -3.873824053721     1.006629122023    -0.251910684924    12.000000000000
         H            2.326684946279     0.137353122023     1.287926315076     1.007825032230
         H            0.960418946279     0.927103122023    -1.337373684924     1.007825032230
         H            0.702840946279     1.714594122023     0.240144315076     1.007825032230
         H            2.897489946279    -0.769347877977    -1.582799684924     1.007825032230
         H            2.216209946279    -1.783563877977    -0.305049684924     1.007825032230
         H            3.876178946279    -1.185044877977    -0.165803684924     1.007825032230
         H            3.446455946279     1.730689122023    -1.078413684924     1.007825032230
         H            3.056611946279     2.393725122023     0.520587315076     1.007825032230
         H            4.366820946279     1.215819122023     0.342792315076     1.007825032230
         H           -2.850038053721    -0.782994877977    -0.945776684924     1.007825032230
         H           -2.939125053721    -0.625232877977     0.828328315076     1.007825032230
         H           -3.818210053721     1.701436122023     0.588194315076     1.007825032230
         H           -3.725109053721     1.561701122023    -1.180358684924     1.007825032230
         H           -4.870696053721     0.556820122023    -0.269851684924     1.007825032230

  Basis Set: AUG-CC-PVTZ
    Blend: AUG-CC-PVTZ
  Basis Set: (AUG-CC-PVTZ AUX)
    Blend: AUG-CC-PVTZ-JKFIT
	 Reference Energy          =    -857.6137805741312832 [Eh]
	 Singles Energy            =      -0.0000000000000000 [Eh]
	 Same-Spin Energy          =      -0.5253542952072228 [Eh]
	 Opposite-Spin Energy      =      -1.6815445109144416 [Eh]
	 Correlation Energy        =      -2.2068988061216643 [Eh]
	 Total Energy              =    -859.8206793802529546 [Eh]

	 ================> DF-SCS-MP2 Energies <==================
	-----------------------------------------------------------
	 SCS Same-Spin Scale       =       0.3333333333333333 [-]
	 SCS Opposite-Spin Scale   =       1.2000000000000000 [-]
	 SCS Same-Spin Energy      =      -0.1751180984024076 [Eh]
	 SCS Opposite-Spin Energy  =      -2.0178534130973298 [Eh]
	 SCS Correlation Energy    =      -2.1929715114997372 [Eh]
	 SCS Total Energy          =    -859.8067520856310466 [Eh]
	-----------------------------------------------------------

  Dipole Moment: [D]
     X:    -0.0770      Y:     2.6912      Z:    -1.0112     Total:     2.8759

*** Psi4 exiting successfully. Buy a developer a beer!
