                               Psi4 1.4a3.dev225

  ==> Input File <==

--------------------------------------------------------------------------
#psi4
#
memory 32 gb

molecule  {
0 1
  S       -0.2946600    -0.4360860     0.1655790
  O       -1.5524341     0.5401214    -0.1420069
  O       -0.3508230    -1.5212030    -0.8163730
  O       -0.2159750    -0.7550950     1.5921100
  C        2.3621670     0.3010360     0.2220870
  C        0.9741440     0.7483390    -0.2426020
  C        2.8380310    -0.9649040    -0.4891310
  C        3.3410260     1.4538450    -0.0023010
  C       -2.8589370    -0.1133030    -0.1019100
  C       -3.9021700     0.9699320    -0.2416680
  H        2.2983390     0.1006560     1.2981690
  H        0.9320730     0.8904060    -1.3271310
  H        0.6744950     1.6778970     0.2503870
  H        2.8691440    -0.8060450    -1.5725570
  H        2.1878640    -1.8202610    -0.2948070
  H        3.8478330    -1.2217420    -0.1555610
  H        3.4181100     1.6939920    -1.0681710
  H        3.0282660     2.3570280     0.5308300
  H        4.3384750     1.1791220     0.3530350
  H       -2.8783840    -0.8196920    -0.9355340
  H       -2.9674710    -0.6619300     0.8385710
  H       -3.8465560     1.6647390     0.5984370
  H       -3.7534550     1.5250040    -1.1701160
  H       -4.8990420     0.5201230    -0.2596090
units angstrom
no_reorient  #important for SAPT in psi4, default
symmetry c1  #important for SAPT in psi4, default
}

set PROPERTIES_ORIGIN ["COM"]
properties('MP2/aug-cc-pvtz', properties = ['dipole'])
--------------------------------------------------------------------------

    Molecular point group: c1
  Charge       = 0
  Multiplicity = 1
  Basis Set: AUG-CC-PVTZ
    Blend: AUG-CC-PVTZ
  Basis Set: (AUG-CC-PVTZ AUX)
    Blend: AUG-CC-PVTZ-JKFIT

    Orbital Energies [Eh]
    ---------------------

    Doubly Occupied:

       1A    -92.212906     2A    -20.615062     3A    -20.554065
       4A    -20.549405     5A    -11.303453     6A    -11.277269
       7A    -11.250899     8A    -11.234474     9A    -11.229095
      10A    -11.217972    11A     -9.177162    12A     -6.862690
      13A     -6.861212    14A     -6.861011    15A     -1.484584
      16A     -1.376737    17A     -1.335933    18A     -1.120416
      19A     -1.053835    20A     -0.996467    21A     -0.941794
      22A     -0.880066    23A     -0.829457    24A     -0.787997
      25A     -0.726318    26A     -0.695048    27A     -0.690535
      28A     -0.657130    29A     -0.634088    30A     -0.616332
      31A     -0.606842    32A     -0.586136    33A     -0.569125
      34A     -0.559816    35A     -0.554834    36A     -0.543065
      37A     -0.537586    38A     -0.509021    39A     -0.499812
      40A     -0.497268    41A     -0.490333    42A     -0.485370
      43A     -0.482186    44A     -0.461872    45A     -0.453103

  @DF-RHF Final Energy:  -857.62801434240828

   => Energetics <=

    Nuclear Repulsion Energy =            723.3095499618611939
    One-Electron Energy =               -2614.1355675562622309
    Two-Electron Energy =                1033.1980032519927590
    Total Energy =                       -857.6280143424082780
  Basis Set: (AUG-CC-PVTZ AUX)
    Blend: AUG-CC-PVTZ-RI
    Molecular point group: c1

    Geometry (in Angstrom), charge = 0, multiplicity = 1:

       Center              X                  Y                   Z               Mass
    ------------   -----------------  -----------------  -----------------  -----------------
         S           -0.264696527415    -0.396073102802     0.152167477336    31.972071174400
         O           -1.522470627415     0.580134297198    -0.155418422664    15.994914619570
         O           -0.320859527415    -1.481190102802    -0.829784522664    15.994914619570
         O           -0.186011527415    -0.715082102802     1.578698477336    15.994914619570
         C            2.392130472585     0.341048897198     0.208675477336    12.000000000000
         C            1.004107472585     0.788351897198    -0.256013522664    12.000000000000
         C            2.867994472585    -0.924891102802    -0.502542522664    12.000000000000
         C            3.370989472585     1.493857897198    -0.015712522664    12.000000000000
         C           -2.828973527415    -0.073290102802    -0.115321522664    12.000000000000
         C           -3.872206527415     1.009944897198    -0.255079522664    12.000000000000
         H            2.328302472585     0.140668897198     1.284757477336     1.007825032230
         H            0.962036472585     0.930418897198    -1.340542522664     1.007825032230
         H            0.704458472585     1.717909897198     0.236975477336     1.007825032230
         H            2.899107472585    -0.766032102802    -1.585968522664     1.007825032230
         H            2.217827472585    -1.780248102802    -0.308218522664     1.007825032230
         H            3.877796472585    -1.181729102802    -0.168972522664     1.007825032230
         H            3.448073472585     1.734004897198    -1.081582522664     1.007825032230
         H            3.058229472585     2.397040897198     0.517418477336     1.007825032230
         H            4.368438472585     1.219134897198     0.339623477336     1.007825032230
         H           -2.848420527415    -0.779679102802    -0.948945522664     1.007825032230
         H           -2.937507527415    -0.621917102802     0.825159477336     1.007825032230
         H           -3.816592527415     1.704751897198     0.585025477336     1.007825032230
         H           -3.723491527415     1.565016897198    -1.183527522664     1.007825032230
         H           -4.869078527415     0.560135897198    -0.273020522664     1.007825032230

  Basis Set: AUG-CC-PVTZ
    Blend: AUG-CC-PVTZ
  Basis Set: (AUG-CC-PVTZ AUX)
    Blend: AUG-CC-PVTZ-JKFIT
	 Reference Energy          =    -857.6280143424082780 [Eh]
	 Singles Energy            =      -0.0000000000000000 [Eh]
	 Same-Spin Energy          =      -0.5248711683412061 [Eh]
	 Opposite-Spin Energy      =      -1.6796824999735533 [Eh]
	 Correlation Energy        =      -2.2045536683147593 [Eh]
	 Total Energy              =    -859.8325680107230937 [Eh]

	 ================> DF-SCS-MP2 Energies <==================
	-----------------------------------------------------------
	 SCS Same-Spin Scale       =       0.3333333333333333 [-]
	 SCS Opposite-Spin Scale   =       1.2000000000000000 [-]
	 SCS Same-Spin Energy      =      -0.1749570561137354 [Eh]
	 SCS Opposite-Spin Energy  =      -2.0156189999682641 [Eh]
	 SCS Correlation Energy    =      -2.1905760560819996 [Eh]
	 SCS Total Energy          =    -859.8185903984903007 [Eh]
	-----------------------------------------------------------

  Dipole Moment: [D]
     X:    -0.1969      Y:     2.7952      Z:    -0.9715     Total:     2.9658

*** Psi4 exiting successfully. Buy a developer a beer!
