                               Psi4 1.4a3.dev225

  ==> Input File <==

--------------------------------------------------------------------------
#psi4
#
memory 32 gb

molecule  {
0 1
  S       -0.2946600    -0.4360860     0.1655790
  O       -1.5657890     0.5673500    -0.1009940
  O       -0.3508230    -1.5212030    -0.8163730
  O       -0.2159750    -0.7550950     1.5921100
  C        2.3621670     0.3010360     0.2220870
  C        0.9741440     0.7483390    -0.2426020
  C        2.8380310    -0.9649040    -0.4891310
  C        3.3410260     1.4538450    -0.0023010
  C       -2.8589370    -0.1133030    -0.1019100
  C       -3.9021700     0.9699320    -0.2416680
  H        2.2983390     0.1006560     1.2981690
  H        0.9320730     0.8904060    -1.3271310
  H        0.6744950     1.6778970     0.2503870
  H        2.8691440    -0.8060450    -1.5725570
  H        2.1878640    -1.8202610    -0.2948070
  H        3.8478330    -1.2217420    -0.1555610
  H        3.4181100     1.6939920    -1.0681710
  H        3.0282660     2.3570280     0.5308300
  H        4.3384750     1.1791220     0.3530350
  H       -2.8783840    -0.8196920    -0.9355340
  H       -2.9674710    -0.6619300     0.8385710
  H       -3.7390332     1.6858760     0.5660675
  H       -3.7534550     1.5250040    -1.1701160
  H       -4.8990420     0.5201230    -0.2596090
units angstrom
no_reorient  #important for SAPT in psi4, default
symmetry c1  #important for SAPT in psi4, default
}

set PROPERTIES_ORIGIN ["COM"]
properties('MP2/aug-cc-pvtz', properties = ['dipole'])
--------------------------------------------------------------------------

    Molecular point group: c1
  Charge       = 0
  Multiplicity = 1
  Basis Set: AUG-CC-PVTZ
    Blend: AUG-CC-PVTZ
  Basis Set: (AUG-CC-PVTZ AUX)
    Blend: AUG-CC-PVTZ-JKFIT

    Orbital Energies [Eh]
    ---------------------

    Doubly Occupied:

       1A    -92.213992     2A    -20.615148     3A    -20.553723
       4A    -20.553659     5A    -11.301158     6A    -11.278268
       7A    -11.251590     8A    -11.233031     9A    -11.229616
      10A    -11.218685    11A     -9.178233    12A     -6.863692
      13A     -6.862243    14A     -6.862068    15A     -1.481171
      16A     -1.375286    17A     -1.337494    18A     -1.121054
      19A     -1.052067    20A     -0.996840    21A     -0.942422
      22A     -0.876152    23A     -0.830914    24A     -0.788116
      25A     -0.725306    26A     -0.693022    27A     -0.690825
      28A     -0.656584    29A     -0.635099    30A     -0.615961
      31A     -0.608208    32A     -0.587635    33A     -0.567310
      34A     -0.557896    35A     -0.555526    36A     -0.544146
      37A     -0.538199    38A     -0.509770    39A     -0.498806
      40A     -0.495774    41A     -0.490362    42A     -0.485584
      43A     -0.482478    44A     -0.463436    45A     -0.453795

  @DF-RHF Final Energy:  -857.62519186680754

   => Energetics <=

    Nuclear Repulsion Energy =            722.7758062707409863
    One-Electron Energy =               -2613.0573034766416640
    Two-Electron Energy =                1032.6563053390932510
    Total Energy =                       -857.6251918668074268
  Basis Set: (AUG-CC-PVTZ AUX)
    Blend: AUG-CC-PVTZ-RI
    Molecular point group: c1

    Geometry (in Angstrom), charge = 0, multiplicity = 1:

       Center              X                  Y                   Z               Mass
    ------------   -----------------  -----------------  -----------------  -----------------
         S           -0.264062766836    -0.398823939966     0.148413706730    31.972071174400
         O           -1.535191766836     0.604612060034    -0.118159293270    15.994914619570
         O           -0.320225766836    -1.483940939966    -0.833538293270    15.994914619570
         O           -0.185377766836    -0.717832939966     1.574944706730    15.994914619570
         C            2.392764233164     0.338298060034     0.204921706730    12.000000000000
         C            1.004741233164     0.785601060034    -0.259767293270    12.000000000000
         C            2.868628233164    -0.927641939966    -0.506296293270    12.000000000000
         C            3.371623233164     1.491107060034    -0.019466293270    12.000000000000
         C           -2.828339766836    -0.076040939966    -0.119075293270    12.000000000000
         C           -3.871572766836     1.007194060034    -0.258833293270    12.000000000000
         H            2.328936233164     0.137918060034     1.281003706730     1.007825032230
         H            0.962670233164     0.927668060034    -1.344296293270     1.007825032230
         H            0.705092233164     1.715159060034     0.233221706730     1.007825032230
         H            2.899741233164    -0.768782939966    -1.589722293270     1.007825032230
         H            2.218461233164    -1.782998939966    -0.311972293270     1.007825032230
         H            3.878430233164    -1.184479939966    -0.172726293270     1.007825032230
         H            3.448707233164     1.731254060034    -1.085336293270     1.007825032230
         H            3.058863233164     2.394290060034     0.513664706730     1.007825032230
         H            4.369072233164     1.216384060034     0.335869706730     1.007825032230
         H           -2.847786766836    -0.782429939966    -0.952699293270     1.007825032230
         H           -2.936873766836    -0.624667939966     0.821405706730     1.007825032230
         H           -3.708435966836     1.723138060034     0.548902206730     1.007825032230
         H           -3.722857766836     1.562266060034    -1.187281293270     1.007825032230
         H           -4.868444766836     0.557385060034    -0.276774293270     1.007825032230

  Basis Set: AUG-CC-PVTZ
    Blend: AUG-CC-PVTZ
  Basis Set: (AUG-CC-PVTZ AUX)
    Blend: AUG-CC-PVTZ-JKFIT
	 Reference Energy          =    -857.6251918668075405 [Eh]
	 Singles Energy            =      -0.0000000000000000 [Eh]
	 Same-Spin Energy          =      -0.5253742283432405 [Eh]
	 Opposite-Spin Energy      =      -1.6809423631350608 [Eh]
	 Correlation Energy        =      -2.2063165914783012 [Eh]
	 Total Energy              =    -859.8315084582858390 [Eh]

	 ================> DF-SCS-MP2 Energies <==================
	-----------------------------------------------------------
	 SCS Same-Spin Scale       =       0.3333333333333333 [-]
	 SCS Opposite-Spin Scale   =       1.2000000000000000 [-]
	 SCS Same-Spin Energy      =      -0.1751247427810802 [Eh]
	 SCS Opposite-Spin Energy  =      -2.0171308357620727 [Eh]
	 SCS Correlation Energy    =      -2.1922555785431528 [Eh]
	 SCS Total Energy          =    -859.8174474453506946 [Eh]
	-----------------------------------------------------------

  Dipole Moment: [D]
     X:    -0.0290      Y:     2.7085      Z:    -1.0650     Total:     2.9105

*** Psi4 exiting successfully. Buy a developer a beer!
