                               Psi4 1.4a3.dev225

  ==> Input File <==

--------------------------------------------------------------------------
#psi4
#
memory 32 gb

molecule  {
0 1
  S       -0.2946600    -0.4360860     0.1655790
  O       -1.5657890     0.5673500    -0.1009940
  O       -0.3508230    -1.5212030    -0.8163730
  O       -0.2159750    -0.7550950     1.5921100
  C        2.3621670     0.3010360     0.2220870
  C        0.9883757     0.7616242    -0.2471804
  C        2.8380310    -0.9649040    -0.4891310
  C        3.3410260     1.4538450    -0.0023010
  C       -2.8589370    -0.1133030    -0.1019100
  C       -3.9021700     0.9699320    -0.2416680
  H        2.2983390     0.1006560     1.2981690
  H        0.9320730     0.8904060    -1.3271310
  H        0.6744950     1.6778970     0.2503870
  H        2.8691440    -0.8060450    -1.5725570
  H        2.1878640    -1.8202610    -0.2948070
  H        3.8478330    -1.2217420    -0.1555610
  H        3.4181100     1.6939920    -1.0681710
  H        3.0282660     2.3570280     0.5308300
  H        4.3384750     1.1791220     0.3530350
  H       -2.8783840    -0.8196920    -0.9355340
  H       -2.9674710    -0.6619300     0.8385710
  H       -3.8465560     1.6647390     0.5984370
  H       -3.7534550     1.5250040    -1.1701160
  H       -4.8990420     0.5201230    -0.2596090
units angstrom
no_reorient  #important for SAPT in psi4, default
symmetry c1  #important for SAPT in psi4, default
}

set PROPERTIES_ORIGIN ["COM"]
properties('MP2/aug-cc-pvtz', properties = ['dipole'])
--------------------------------------------------------------------------

    Molecular point group: c1
  Charge       = 0
  Multiplicity = 1
  Basis Set: AUG-CC-PVTZ
    Blend: AUG-CC-PVTZ
  Basis Set: (AUG-CC-PVTZ AUX)
    Blend: AUG-CC-PVTZ-JKFIT

    Orbital Energies [Eh]
    ---------------------

    Doubly Occupied:

       1A    -92.212994     2A    -20.614776     3A    -20.553469
       4A    -20.553370     5A    -11.301821     6A    -11.278793
       7A    -11.250866     8A    -11.232974     9A    -11.229347
      10A    -11.218852    11A     -9.177184    12A     -6.862618
      13A     -6.861134    14A     -6.861011    15A     -1.480318
      16A     -1.374783    17A     -1.337055    18A     -1.121532
      19A     -1.050962    20A     -0.994869    21A     -0.942559
      22A     -0.877264    23A     -0.830374    24A     -0.788919
      25A     -0.723924    26A     -0.692651    27A     -0.690403
      28A     -0.657390    29A     -0.635493    30A     -0.616614
      31A     -0.606574    32A     -0.587740    33A     -0.567169
      34A     -0.558973    35A     -0.554568    36A     -0.543774
      37A     -0.537275    38A     -0.510198    39A     -0.499777
      40A     -0.497430    41A     -0.491400    42A     -0.485762
      43A     -0.482805    44A     -0.463128    45A     -0.450408

  @DF-RHF Final Energy:  -857.62626564918105

   => Energetics <=

    Nuclear Repulsion Energy =            722.2047823821164911
    One-Electron Energy =               -2611.9394906285447178
    Two-Electron Energy =                1032.1084425972471763
    Total Energy =                       -857.6262656491810503
  Basis Set: (AUG-CC-PVTZ AUX)
    Blend: AUG-CC-PVTZ-RI
    Molecular point group: c1

    Geometry (in Angstrom), charge = 0, multiplicity = 1:

       Center              X                  Y                   Z               Mass
    ------------   -----------------  -----------------  -----------------  -----------------
         S           -0.264438617963    -0.399655655659     0.148548098830    31.972071174400
         O           -1.535567617963     0.603780344341    -0.118024901170    15.994914619570
         O           -0.320601617963    -1.484772655659    -0.833403901170    15.994914619570
         O           -0.185753617963    -0.718664655659     1.575079098830    15.994914619570
         C            2.392388382037     0.337466344341     0.205056098830    12.000000000000
         C            1.018597082037     0.798054544341    -0.264211301170    12.000000000000
         C            2.868252382037    -0.928473655659    -0.506161901170    12.000000000000
         C            3.371247382037     1.490275344341    -0.019331901170    12.000000000000
         C           -2.828715617963    -0.076872655659    -0.118940901170    12.000000000000
         C           -3.871948617963     1.006362344341    -0.258698901170    12.000000000000
         H            2.328560382037     0.137086344341     1.281138098830     1.007825032230
         H            0.962294382037     0.926836344341    -1.344161901170     1.007825032230
         H            0.704716382037     1.714327344341     0.233356098830     1.007825032230
         H            2.899365382037    -0.769614655659    -1.589587901170     1.007825032230
         H            2.218085382037    -1.783830655659    -0.311837901170     1.007825032230
         H            3.878054382037    -1.185311655659    -0.172591901170     1.007825032230
         H            3.448331382037     1.730422344341    -1.085201901170     1.007825032230
         H            3.058487382037     2.393458344341     0.513799098830     1.007825032230
         H            4.368696382037     1.215552344341     0.336004098830     1.007825032230
         H           -2.848162617963    -0.783261655659    -0.952564901170     1.007825032230
         H           -2.937249617963    -0.625499655659     0.821540098830     1.007825032230
         H           -3.816334617963     1.701169344341     0.581406098830     1.007825032230
         H           -3.723233617963     1.561434344341    -1.187146901170     1.007825032230
         H           -4.868820617963     0.556553344341    -0.276639901170     1.007825032230

  Basis Set: AUG-CC-PVTZ
    Blend: AUG-CC-PVTZ
  Basis Set: (AUG-CC-PVTZ AUX)
    Blend: AUG-CC-PVTZ-JKFIT
	 Reference Energy          =    -857.6262656491810503 [Eh]
	 Singles Energy            =      -0.0000000000000000 [Eh]
	 Same-Spin Energy          =      -0.5252840755591255 [Eh]
	 Opposite-Spin Energy      =      -1.6808634509841647 [Eh]
	 Correlation Energy        =      -2.2061475265432904 [Eh]
	 Total Energy              =    -859.8324131757243549 [Eh]

	 ================> DF-SCS-MP2 Energies <==================
	-----------------------------------------------------------
	 SCS Same-Spin Scale       =       0.3333333333333333 [-]
	 SCS Opposite-Spin Scale   =       1.2000000000000000 [-]
	 SCS Same-Spin Energy      =      -0.1750946918530418 [Eh]
	 SCS Opposite-Spin Energy  =      -2.0170361411809976 [Eh]
	 SCS Correlation Energy    =      -2.1921308330340392 [Eh]
	 SCS Total Energy          =    -859.8183964822151211 [Eh]
	-----------------------------------------------------------

  Dipole Moment: [D]
     X:    -0.0729      Y:     2.6993      Z:    -1.0429     Total:     2.8947

*** Psi4 exiting successfully. Buy a developer a beer!
