                               Psi4 1.4a3.dev225

  ==> Input File <==

--------------------------------------------------------------------------
#psi4
#
memory 32 gb

molecule  {
0 1
  S       -0.2946600    -0.4360860     0.1655790
  O       -1.5657890     0.5673500    -0.1009940
  O       -0.3508230    -1.5212030    -0.8163730
  O       -0.2159750    -0.7550950     1.5921100
  C        2.3621670     0.3010360     0.2220870
  C        0.9770781     0.7895013    -0.2086730
  C        2.8380310    -0.9649040    -0.4891310
  C        3.3410260     1.4538450    -0.0023010
  C       -2.8589370    -0.1133030    -0.1019100
  C       -3.9021700     0.9699320    -0.2416680
  H        2.2983390     0.1006560     1.2981690
  H        0.9320730     0.8904060    -1.3271310
  H        0.6744950     1.6778970     0.2503870
  H        2.8691440    -0.8060450    -1.5725570
  H        2.1878640    -1.8202610    -0.2948070
  H        3.8478330    -1.2217420    -0.1555610
  H        3.4181100     1.6939920    -1.0681710
  H        3.0282660     2.3570280     0.5308300
  H        4.3384750     1.1791220     0.3530350
  H       -2.8783840    -0.8196920    -0.9355340
  H       -2.9674710    -0.6619300     0.8385710
  H       -3.8465560     1.6647390     0.5984370
  H       -3.7534550     1.5250040    -1.1701160
  H       -4.8990420     0.5201230    -0.2596090
units angstrom
no_reorient  #important for SAPT in psi4, default
symmetry c1  #important for SAPT in psi4, default
}

set PROPERTIES_ORIGIN ["COM"]
properties('MP2/aug-cc-pvtz', properties = ['dipole'])
--------------------------------------------------------------------------

    Molecular point group: c1
  Charge       = 0
  Multiplicity = 1
  Basis Set: AUG-CC-PVTZ
    Blend: AUG-CC-PVTZ
  Basis Set: (AUG-CC-PVTZ AUX)
    Blend: AUG-CC-PVTZ-JKFIT

    Orbital Energies [Eh]
    ---------------------

    Doubly Occupied:

       1A    -92.212944     2A    -20.614271     3A    -20.555654
       4A    -20.552076     5A    -11.301538     6A    -11.278625
       7A    -11.251327     8A    -11.232808     9A    -11.229167
      10A    -11.219846    11A     -9.177136    12A     -6.862598
      13A     -6.861066    14A     -6.860945    15A     -1.480321
      16A     -1.374651    17A     -1.337353    18A     -1.120429
      19A     -1.050904    20A     -0.995390    21A     -0.942809
      22A     -0.877222    23A     -0.830346    24A     -0.788395
      25A     -0.724318    26A     -0.693196    27A     -0.688324
      28A     -0.662749    29A     -0.636094    30A     -0.616361
      31A     -0.606284    32A     -0.583847    33A     -0.567108
      34A     -0.559100    35A     -0.554608    36A     -0.543774
      37A     -0.537333    38A     -0.512432    39A     -0.499613
      40A     -0.497858    41A     -0.493100    42A     -0.483726
      43A     -0.480916    44A     -0.463421    45A     -0.450294

  @DF-RHF Final Energy:  -857.62334215028045

   => Energetics <=

    Nuclear Repulsion Energy =            722.0553506260367840
    One-Electron Energy =               -2611.6328292391981449
    Two-Electron Energy =                1031.9541364628810243
    Total Energy =                       -857.6233421502804504
  Basis Set: (AUG-CC-PVTZ AUX)
    Blend: AUG-CC-PVTZ-RI
    Molecular point group: c1

    Geometry (in Angstrom), charge = 0, multiplicity = 1:

       Center              X                  Y                   Z               Mass
    ------------   -----------------  -----------------  -----------------  -----------------
         S           -0.263622250364    -0.401670062363     0.145765543804    31.972071174400
         O           -1.534751250364     0.601765937637    -0.120807456196    15.994914619570
         O           -0.319785250364    -1.486787062363    -0.836186456196    15.994914619570
         O           -0.184937250364    -0.720679062363     1.572296543804    15.994914619570
         C            2.393204749636     0.335451937637     0.202273543804    12.000000000000
         C            1.008115849636     0.823917237637    -0.228486456196    12.000000000000
         C            2.869068749636    -0.930488062363    -0.508944456196    12.000000000000
         C            3.372063749636     1.488260937637    -0.022114456196    12.000000000000
         C           -2.827899250364    -0.078887062363    -0.121723456196    12.000000000000
         C           -3.871132250364     1.004347937637    -0.261481456196    12.000000000000
         H            2.329376749636     0.135071937637     1.278355543804     1.007825032230
         H            0.963110749636     0.924821937637    -1.346944456196     1.007825032230
         H            0.705532749636     1.712312937637     0.230573543804     1.007825032230
         H            2.900181749636    -0.771629062363    -1.592370456196     1.007825032230
         H            2.218901749636    -1.785845062363    -0.314620456196     1.007825032230
         H            3.878870749636    -1.187326062363    -0.175374456196     1.007825032230
         H            3.449147749636     1.728407937637    -1.087984456196     1.007825032230
         H            3.059303749636     2.391443937637     0.511016543804     1.007825032230
         H            4.369512749636     1.213537937637     0.333221543804     1.007825032230
         H           -2.847346250364    -0.785276062363    -0.955347456196     1.007825032230
         H           -2.936433250364    -0.627514062363     0.818757543804     1.007825032230
         H           -3.815518250364     1.699154937637     0.578623543804     1.007825032230
         H           -3.722417250364     1.559419937637    -1.189929456196     1.007825032230
         H           -4.868004250364     0.554538937637    -0.279422456196     1.007825032230

  Basis Set: AUG-CC-PVTZ
    Blend: AUG-CC-PVTZ
  Basis Set: (AUG-CC-PVTZ AUX)
    Blend: AUG-CC-PVTZ-JKFIT
	 Reference Energy          =    -857.6233421502804504 [Eh]
	 Singles Energy            =      -0.0000000000000000 [Eh]
	 Same-Spin Energy          =      -0.5252935780245780 [Eh]
	 Opposite-Spin Energy      =      -1.6810074502748069 [Eh]
	 Correlation Energy        =      -2.2063010282993849 [Eh]
	 Total Energy              =    -859.8296431785798859 [Eh]

	 ================> DF-SCS-MP2 Energies <==================
	-----------------------------------------------------------
	 SCS Same-Spin Scale       =       0.3333333333333333 [-]
	 SCS Opposite-Spin Scale   =       1.2000000000000000 [-]
	 SCS Same-Spin Energy      =      -0.1750978593415260 [Eh]
	 SCS Opposite-Spin Energy  =      -2.0172089403297684 [Eh]
	 SCS Correlation Energy    =      -2.1923067996712944 [Eh]
	 SCS Total Energy          =    -859.8156489499517647 [Eh]
	-----------------------------------------------------------

  Dipole Moment: [D]
     X:    -0.0651      Y:     2.6745      Z:    -1.0503     Total:     2.8741

*** Psi4 exiting successfully. Buy a developer a beer!
