                               Psi4 1.4a3.dev225

  ==> Input File <==

--------------------------------------------------------------------------
#psi4
#
memory 32 gb

molecule  {
0 1
  S       -0.2946600    -0.4360860     0.1655790
  O       -1.5657890     0.5673500    -0.1009940
  O       -0.3508230    -1.5212030    -0.8163730
  O       -0.2159750    -0.7550950     1.5921100
  C        2.3621670     0.3010360     0.2220870
  C        0.8318272     0.6154867    -0.1968179
  C        2.8380310    -0.9649040    -0.4891310
  C        3.3410260     1.4538450    -0.0023010
  C       -2.8589370    -0.1133030    -0.1019100
  C       -3.9021700     0.9699320    -0.2416680
  H        2.2983390     0.1006560     1.2981690
  H        0.9320730     0.8904060    -1.3271310
  H        0.6744950     1.6778970     0.2503870
  H        2.8691440    -0.8060450    -1.5725570
  H        2.1878640    -1.8202610    -0.2948070
  H        3.8478330    -1.2217420    -0.1555610
  H        3.4181100     1.6939920    -1.0681710
  H        3.0282660     2.3570280     0.5308300
  H        4.3384750     1.1791220     0.3530350
  H       -2.8783840    -0.8196920    -0.9355340
  H       -2.9674710    -0.6619300     0.8385710
  H       -3.8465560     1.6647390     0.5984370
  H       -3.7534550     1.5250040    -1.1701160
  H       -4.8990420     0.5201230    -0.2596090
units angstrom
no_reorient  #important for SAPT in psi4, default
symmetry c1  #important for SAPT in psi4, default
}

set PROPERTIES_ORIGIN ["COM"]
properties('MP2/aug-cc-pvtz', properties = ['dipole'])
--------------------------------------------------------------------------

    Molecular point group: c1
  Charge       = 0
  Multiplicity = 1
  Basis Set: AUG-CC-PVTZ
    Blend: AUG-CC-PVTZ
  Basis Set: (AUG-CC-PVTZ AUX)
    Blend: AUG-CC-PVTZ-JKFIT

    Orbital Energies [Eh]
    ---------------------

    Doubly Occupied:

       1A    -92.212351     2A    -20.611900     3A    -20.551277
       4A    -20.550992     5A    -11.299997     6A    -11.275534
       7A    -11.263669     8A    -11.235148     9A    -11.231799
      10A    -11.218384    11A     -9.179358    12A     -6.864895
      13A     -6.863929    14A     -6.862944    15A     -1.486252
      16A     -1.374542    17A     -1.337300    18A     -1.124152
      19A     -1.059355    20A     -1.016693    21A     -0.943326
      22A     -0.871833    23A     -0.832837    24A     -0.781251
      25A     -0.736207    26A     -0.692996    27A     -0.692782
      28A     -0.653533    29A     -0.629319    30A     -0.613229
      31A     -0.607518    32A     -0.577804    33A     -0.565912
      34A     -0.556028    35A     -0.555225    36A     -0.542662
      37A     -0.537250    38A     -0.509302    39A     -0.502179
      40A     -0.496609    41A     -0.485140    42A     -0.481571
      43A     -0.471517    44A     -0.466802    45A     -0.460017

  @DF-RHF Final Energy:  -857.58569523953793

   => Energetics <=

    Nuclear Repulsion Energy =            726.7122997993150193
    One-Electron Energy =               -2620.8293419896094747
    Two-Electron Energy =                1036.5313469507564150
    Total Energy =                       -857.5856952395379267
  Basis Set: (AUG-CC-PVTZ AUX)
    Blend: AUG-CC-PVTZ-RI
    Molecular point group: c1

    Geometry (in Angstrom), charge = 0, multiplicity = 1:

       Center              X                  Y                   Z               Mass
    ------------   -----------------  -----------------  -----------------  -----------------
         S           -0.253126381469    -0.389095720811     0.144908891106    31.972071174400
         O           -1.524255381469     0.614340279189    -0.121664108894    15.994914619570
         O           -0.309289381469    -1.474212720811    -0.837043108894    15.994914619570
         O           -0.174441381469    -0.708104720811     1.571439891106    15.994914619570
         C            2.403700618531     0.348026279189     0.201416891106    12.000000000000
         C            0.873360818531     0.662476979189    -0.217488008894    12.000000000000
         C            2.879564618531    -0.917913720811    -0.509801108894    12.000000000000
         C            3.382559618531     1.500835279189    -0.022971108894    12.000000000000
         C           -2.817403381469    -0.066312720811    -0.122580108894    12.000000000000
         C           -3.860636381469     1.016922279189    -0.262338108894    12.000000000000
         H            2.339872618531     0.147646279189     1.277498891106     1.007825032230
         H            0.973606618531     0.937396279189    -1.347801108894     1.007825032230
         H            0.716028618531     1.724887279189     0.229716891106     1.007825032230
         H            2.910677618531    -0.759054720811    -1.593227108894     1.007825032230
         H            2.229397618531    -1.773270720811    -0.315477108894     1.007825032230
         H            3.889366618531    -1.174751720811    -0.176231108894     1.007825032230
         H            3.459643618531     1.740982279189    -1.088841108894     1.007825032230
         H            3.069799618531     2.404018279189     0.510159891106     1.007825032230
         H            4.380008618531     1.226112279189     0.332364891106     1.007825032230
         H           -2.836850381469    -0.772701720811    -0.956204108894     1.007825032230
         H           -2.925937381469    -0.614939720811     0.817900891106     1.007825032230
         H           -3.805022381469     1.711729279189     0.577766891106     1.007825032230
         H           -3.711921381469     1.571994279189    -1.190786108894     1.007825032230
         H           -4.857508381469     0.567113279189    -0.280279108894     1.007825032230

  Basis Set: AUG-CC-PVTZ
    Blend: AUG-CC-PVTZ
  Basis Set: (AUG-CC-PVTZ AUX)
    Blend: AUG-CC-PVTZ-JKFIT
	 Reference Energy          =    -857.5856952395379267 [Eh]
	 Singles Energy            =      -0.0000000000000000 [Eh]
	 Same-Spin Energy          =      -0.5273396469922982 [Eh]
	 Opposite-Spin Energy      =      -1.6833577047021069 [Eh]
	 Correlation Energy        =      -2.2106973516944048 [Eh]
	 Total Energy              =    -859.7963925912323475 [Eh]

	 ================> DF-SCS-MP2 Energies <==================
	-----------------------------------------------------------
	 SCS Same-Spin Scale       =       0.3333333333333333 [-]
	 SCS Opposite-Spin Scale   =       1.2000000000000000 [-]
	 SCS Same-Spin Energy      =      -0.1757798823307661 [Eh]
	 SCS Opposite-Spin Energy  =      -2.0200292456425282 [Eh]
	 SCS Correlation Energy    =      -2.1958091279732943 [Eh]
	 SCS Total Energy          =    -859.7815043675112747 [Eh]
	-----------------------------------------------------------

  Dipole Moment: [D]
     X:     0.3023      Y:     2.9266      Z:    -1.0843     Total:     3.1356

*** Psi4 exiting successfully. Buy a developer a beer!
