                               Psi4 1.4a3.dev225

  ==> Input File <==

--------------------------------------------------------------------------
#psi4
#
memory 32 gb

molecule  {
0 1
  S       -0.2946600    -0.4360860     0.1655790
  O       -1.5657890     0.5673500    -0.1009940
  O       -0.3508230    -1.5212030    -0.8163730
  O       -0.2159750    -0.7550950     1.5921100
  C        2.3621670     0.3010360     0.2220870
  C        0.9741440     0.7483390    -0.2426020
  C        2.8380310    -0.9649040    -0.4891310
  C        3.3410260     1.4538450    -0.0023010
  C       -2.8589370    -0.1133030    -0.1019100
  C       -3.9021700     0.9699320    -0.2416680
  H        2.2983390     0.1006560     1.2981690
  H        0.9320730     0.8904060    -1.3271310
  H        0.6744950     1.6778970     0.2503870
  H        2.8691440    -0.8060450    -1.5725570
  H        2.1878640    -1.8202610    -0.2948070
  H        3.8478330    -1.2217420    -0.1555610
  H        3.4181100     1.6939920    -1.0681710
  H        3.0282660     2.3570280     0.5308300
  H        4.3567114     1.1740992     0.3595316
  H       -2.8783840    -0.8196920    -0.9355340
  H       -2.9674710    -0.6619300     0.8385710
  H       -3.8465560     1.6647390     0.5984370
  H       -3.7534550     1.5250040    -1.1701160
  H       -4.8990420     0.5201230    -0.2596090
units angstrom
no_reorient  #important for SAPT in psi4, default
symmetry c1  #important for SAPT in psi4, default
}

set PROPERTIES_ORIGIN ["COM"]
properties('MP2/aug-cc-pvtz', properties = ['dipole'])
--------------------------------------------------------------------------

    Molecular point group: c1
  Charge       = 0
  Multiplicity = 1
  Basis Set: AUG-CC-PVTZ
    Blend: AUG-CC-PVTZ
  Basis Set: (AUG-CC-PVTZ AUX)
    Blend: AUG-CC-PVTZ-JKFIT

    Orbital Energies [Eh]
    ---------------------

    Doubly Occupied:

       1A    -92.213955     2A    -20.614990     3A    -20.553772
       4A    -20.553630     5A    -11.301979     6A    -11.278298
       7A    -11.251673     8A    -11.233084     9A    -11.231945
      10A    -11.218611    11A     -9.178198    12A     -6.863654
      13A     -6.862211    14A     -6.862034    15A     -1.481126
      16A     -1.375168    17A     -1.337508    18A     -1.120911
      19A     -1.051523    20A     -0.996414    21A     -0.941443
      22A     -0.876869    23A     -0.830629    24A     -0.787885
      25A     -0.725191    26A     -0.692948    27A     -0.690605
      28A     -0.656886    29A     -0.635074    30A     -0.616060
      31A     -0.606425    32A     -0.586241    33A     -0.567163
      34A     -0.558827    35A     -0.554769    36A     -0.542157
      37A     -0.536891    38A     -0.510135    39A     -0.500089
      40A     -0.496909    41A     -0.490129    42A     -0.485514
      43A     -0.482624    44A     -0.463404    45A     -0.453665

  @DF-RHF Final Energy:  -857.62598884987131

   => Energetics <=

    Nuclear Repulsion Energy =            722.4821142035045796
    One-Electron Energy =               -2612.4777769157612966
    Two-Electron Energy =                1032.3696738623855254
    Total Energy =                       -857.6259888498711916
  Basis Set: (AUG-CC-PVTZ AUX)
    Blend: AUG-CC-PVTZ-RI
    Molecular point group: c1

    Geometry (in Angstrom), charge = 0, multiplicity = 1:

       Center              X                  Y                   Z               Mass
    ------------   -----------------  -----------------  -----------------  -----------------
         S           -0.263520904740    -0.398665181140     0.148177835798    31.972071174400
         O           -1.534649904740     0.604770818860    -0.118395164202    15.994914619570
         O           -0.319683904740    -1.483782181140    -0.833774164202    15.994914619570
         O           -0.184835904740    -0.717674181140     1.574708835798    15.994914619570
         C            2.393306095260     0.338456818860     0.204685835798    12.000000000000
         C            1.005283095260     0.785759818860    -0.260003164202    12.000000000000
         C            2.869170095260    -0.927483181140    -0.506532164202    12.000000000000
         C            3.372165095260     1.491265818860    -0.019702164202    12.000000000000
         C           -2.827797904740    -0.075882181140    -0.119311164202    12.000000000000
         C           -3.871030904740     1.007352818860    -0.259069164202    12.000000000000
         H            2.329478095260     0.138076818860     1.280767835798     1.007825032230
         H            0.963212095260     0.927826818860    -1.344532164202     1.007825032230
         H            0.705634095260     1.715317818860     0.232985835798     1.007825032230
         H            2.900283095260    -0.768624181140    -1.589958164202     1.007825032230
         H            2.219003095260    -1.782840181140    -0.312208164202     1.007825032230
         H            3.878972095260    -1.184321181140    -0.172962164202     1.007825032230
         H            3.449249095260     1.731412818860    -1.085572164202     1.007825032230
         H            3.059405095260     2.394448818860     0.513428835798     1.007825032230
         H            4.387850495260     1.211520018860     0.342130435798     1.007825032230
         H           -2.847244904740    -0.782271181140    -0.952935164202     1.007825032230
         H           -2.936331904740    -0.624509181140     0.821169835798     1.007825032230
         H           -3.815416904740     1.702159818860     0.581035835798     1.007825032230
         H           -3.722315904740     1.562424818860    -1.187517164202     1.007825032230
         H           -4.867902904740     0.557543818860    -0.277010164202     1.007825032230

  Basis Set: AUG-CC-PVTZ
    Blend: AUG-CC-PVTZ
  Basis Set: (AUG-CC-PVTZ AUX)
    Blend: AUG-CC-PVTZ-JKFIT
	 Reference Energy          =    -857.6259888498713053 [Eh]
	 Singles Energy            =      -0.0000000000000000 [Eh]
	 Same-Spin Energy          =      -0.5252925959655702 [Eh]
	 Opposite-Spin Energy      =      -1.6809347318150984 [Eh]
	 Correlation Energy        =      -2.2062273277806685 [Eh]
	 Total Energy              =    -859.8322161776519579 [Eh]

	 ================> DF-SCS-MP2 Energies <==================
	-----------------------------------------------------------
	 SCS Same-Spin Scale       =       0.3333333333333333 [-]
	 SCS Opposite-Spin Scale   =       1.2000000000000000 [-]
	 SCS Same-Spin Energy      =      -0.1750975319885234 [Eh]
	 SCS Opposite-Spin Energy  =      -2.0171216781781180 [Eh]
	 SCS Correlation Energy    =      -2.1922192101666416 [Eh]
	 SCS Total Energy          =    -859.8182080600379322 [Eh]
	-----------------------------------------------------------

  Dipole Moment: [D]
     X:    -0.0805      Y:     2.7081      Z:    -1.0469     Total:     2.9045

*** Psi4 exiting successfully. Buy a developer a beer!
