                               Psi4 1.4a3.dev225

  ==> Input File <==

--------------------------------------------------------------------------
#psi4
#
memory 32 gb

molecule  {
0 1
  S       -0.2946600    -0.4360860     0.1655790
  O       -1.5657890     0.5673500    -0.1009940
  O       -0.3508230    -1.5212030    -0.8163730
  O       -0.2159750    -0.7550950     1.5921100
  C        2.3621670     0.3010360     0.2220870
  C        0.9741440     0.7483390    -0.2426020
  C        2.8380310    -0.9649040    -0.4891310
  C        3.3410260     1.4538450    -0.0023010
  C       -2.8589370    -0.1133030    -0.1019100
  C       -3.9021700     0.9699320    -0.2416680
  H        2.2983390     0.1006560     1.2981690
  H        0.9320730     0.8904060    -1.3271310
  H        0.6744950     1.6778970     0.2503870
  H        2.8691440    -0.8060450    -1.5725570
  H        2.1878640    -1.8202610    -0.2948070
  H        3.8478330    -1.2217420    -0.1555610
  H        3.4181100     1.6939920    -1.0681710
  H        3.0282660     2.3570280     0.5308300
  H        4.3384750     1.1791220     0.3530350
  H       -2.8783840    -0.8196920    -0.9355340
  H       -2.9674710    -0.6619300     0.8385710
  H       -3.9186495     1.6464008     0.6149209
  H       -3.7534550     1.5250040    -1.1701160
  H       -4.8990420     0.5201230    -0.2596090
units angstrom
no_reorient  #important for SAPT in psi4, default
symmetry c1  #important for SAPT in psi4, default
}

set PROPERTIES_ORIGIN ["COM"]
properties('MP2/aug-cc-pvtz', properties = ['dipole'])
--------------------------------------------------------------------------

    Molecular point group: c1
  Charge       = 0
  Multiplicity = 1
  Basis Set: AUG-CC-PVTZ
    Blend: AUG-CC-PVTZ
  Basis Set: (AUG-CC-PVTZ AUX)
    Blend: AUG-CC-PVTZ-JKFIT

    Orbital Energies [Eh]
    ---------------------

    Doubly Occupied:

       1A    -92.213751     2A    -20.614768     3A    -20.553669
       4A    -20.553482     5A    -11.302458     6A    -11.278050
       7A    -11.251437     8A    -11.233051     9A    -11.229478
      10A    -11.218581    11A     -9.178003    12A     -6.863457
      13A     -6.862014    14A     -6.861840    15A     -1.480975
      16A     -1.374992    17A     -1.337390    18A     -1.120876
      19A     -1.051296    20A     -0.996712    21A     -0.942301
      22A     -0.877735    23A     -0.830748    24A     -0.788004
      25A     -0.725264    26A     -0.692791    27A     -0.690604
      28A     -0.656950    29A     -0.635088    30A     -0.616326
      31A     -0.606009    32A     -0.586280    33A     -0.570481
      34A     -0.559160    35A     -0.551653    36A     -0.542976
      37A     -0.536129    38A     -0.510234    39A     -0.501086
      40A     -0.496857    41A     -0.490519    42A     -0.485295
      43A     -0.482588    44A     -0.463257    45A     -0.453571

  @DF-RHF Final Energy:  -857.62601379604507

   => Energetics <=

    Nuclear Repulsion Energy =            722.4524277639217189
    One-Electron Energy =               -2612.4205108775213375
    Two-Electron Energy =                1032.3420693175546603
    Total Energy =                       -857.6260137960450720
  Basis Set: (AUG-CC-PVTZ AUX)
    Blend: AUG-CC-PVTZ-RI
    Molecular point group: c1

    Geometry (in Angstrom), charge = 0, multiplicity = 1:

       Center              X                  Y                   Z               Mass
    ------------   -----------------  -----------------  -----------------  -----------------
         S           -0.262972709841    -0.398584372522     0.148117224783    31.972071174400
         O           -1.534101709841     0.604851627478    -0.118455775217    15.994914619570
         O           -0.319135709841    -1.483701372522    -0.833834775217    15.994914619570
         O           -0.184287709841    -0.717593372522     1.574648224783    15.994914619570
         C            2.393854290159     0.338537627478     0.204625224783    12.000000000000
         C            1.005831290159     0.785840627478    -0.260063775217    12.000000000000
         C            2.869718290159    -0.927402372522    -0.506592775217    12.000000000000
         C            3.372713290159     1.491346627478    -0.019762775217    12.000000000000
         C           -2.827249709841    -0.075801372522    -0.119371775217    12.000000000000
         C           -3.870482709841     1.007433627478    -0.259129775217    12.000000000000
         H            2.330026290159     0.138157627478     1.280707224783     1.007825032230
         H            0.963760290159     0.927907627478    -1.344592775217     1.007825032230
         H            0.706182290159     1.715398627478     0.232925224783     1.007825032230
         H            2.900831290159    -0.768543372522    -1.590018775217     1.007825032230
         H            2.219551290159    -1.782759372522    -0.312268775217     1.007825032230
         H            3.879520290159    -1.184240372522    -0.173022775217     1.007825032230
         H            3.449797290159     1.731493627478    -1.085632775217     1.007825032230
         H            3.059953290159     2.394529627478     0.513368224783     1.007825032230
         H            4.370162290159     1.216623627478     0.335573224783     1.007825032230
         H           -2.846696709841    -0.782190372522    -0.952995775217     1.007825032230
         H           -2.935783709841    -0.624428372522     0.821109224783     1.007825032230
         H           -3.886962209841     1.683902427478     0.597459124783     1.007825032230
         H           -3.721767709841     1.562505627478    -1.187577775217     1.007825032230
         H           -4.867354709841     0.557624627478    -0.277070775217     1.007825032230

  Basis Set: AUG-CC-PVTZ
    Blend: AUG-CC-PVTZ
  Basis Set: (AUG-CC-PVTZ AUX)
    Blend: AUG-CC-PVTZ-JKFIT
	 Reference Energy          =    -857.6260137960450720 [Eh]
	 Singles Energy            =      -0.0000000000000000 [Eh]
	 Same-Spin Energy          =      -0.5252998754321669 [Eh]
	 Opposite-Spin Energy      =      -1.6807959362517955 [Eh]
	 Correlation Energy        =      -2.2060958116839622 [Eh]
	 Total Energy              =    -859.8321096077290804 [Eh]

	 ================> DF-SCS-MP2 Energies <==================
	-----------------------------------------------------------
	 SCS Same-Spin Scale       =       0.3333333333333333 [-]
	 SCS Opposite-Spin Scale   =       1.2000000000000000 [-]
	 SCS Same-Spin Energy      =      -0.1750999584773890 [Eh]
	 SCS Opposite-Spin Energy  =      -2.0169551235021546 [Eh]
	 SCS Correlation Energy    =      -2.1920550819795435 [Eh]
	 SCS Total Energy          =    -859.8180688780246328 [Eh]
	-----------------------------------------------------------

  Dipole Moment: [D]
     X:    -0.0916      Y:     2.7063      Z:    -1.0321     Total:     2.8979

*** Psi4 exiting successfully. Buy a developer a beer!
