                               Psi4 1.4a3.dev225

  ==> Input File <==

--------------------------------------------------------------------------
#psi4
#
memory 32 gb

molecule  {
0 1
  S       -0.2946600    -0.4360860     0.1655790
  O       -1.5657890     0.5673500    -0.1009940
  O       -0.3508230    -1.5212030    -0.8163730
  O       -0.2159750    -0.7550950     1.5921100
  C        2.3621670     0.3010360     0.2220870
  C        0.9741440     0.7483390    -0.2426020
  C        2.8380310    -0.9649040    -0.4891310
  C        3.3410260     1.4538450    -0.0023010
  C       -2.8589370    -0.1133030    -0.1019100
  C       -3.8485212     1.0277408    -0.1046499
  H        2.2983390     0.1006560     1.2981690
  H        0.9320730     0.8904060    -1.3271310
  H        0.6744950     1.6778970     0.2503870
  H        2.8691440    -0.8060450    -1.5725570
  H        2.1878640    -1.8202610    -0.2948070
  H        3.8478330    -1.2217420    -0.1555610
  H        3.4181100     1.6939920    -1.0681710
  H        3.0282660     2.3570280     0.5308300
  H        4.3384750     1.1791220     0.3530350
  H       -2.8783840    -0.8196920    -0.9355340
  H       -2.9674710    -0.6619300     0.8385710
  H       -3.8465560     1.6647390     0.5984370
  H       -3.7534550     1.5250040    -1.1701160
  H       -4.8990420     0.5201230    -0.2596090
units angstrom
no_reorient  #important for SAPT in psi4, default
symmetry c1  #important for SAPT in psi4, default
}

set PROPERTIES_ORIGIN ["COM"]
properties('MP2/aug-cc-pvtz', properties = ['dipole'])
--------------------------------------------------------------------------

    Molecular point group: c1
  Charge       = 0
  Multiplicity = 1
  Basis Set: AUG-CC-PVTZ
    Blend: AUG-CC-PVTZ
  Basis Set: (AUG-CC-PVTZ AUX)
    Blend: AUG-CC-PVTZ-JKFIT

    Orbital Energies [Eh]
    ---------------------

    Doubly Occupied:

       1A    -92.213289     2A    -20.614147     3A    -20.553999
       4A    -20.553369     5A    -11.304685     6A    -11.277857
       7A    -11.251345     8A    -11.237386     9A    -11.229436
      10A    -11.218593    11A     -9.177614    12A     -6.863054
      13A     -6.861625    14A     -6.861460    15A     -1.481194
      16A     -1.375646    17A     -1.337537    18A     -1.120867
      19A     -1.053281    20A     -0.996708    21A     -0.942288
      22A     -0.881054    23A     -0.833788    24A     -0.787971
      25A     -0.725158    26A     -0.696090    27A     -0.690908
      28A     -0.657102    29A     -0.640378    30A     -0.620124
      31A     -0.610256    32A     -0.587656    33A     -0.582057
      34A     -0.559237    35A     -0.545752    36A     -0.539920
      37A     -0.527171    38A     -0.509375    39A     -0.499219
      40A     -0.493027    41A     -0.487635    42A     -0.483699
      43A     -0.481837    44A     -0.463176    45A     -0.451963

  @DF-RHF Final Energy:  -857.59446319749748

   => Energetics <=

    Nuclear Repulsion Energy =            723.1419101916947056
    One-Electron Energy =               -2613.7128821338410489
    Two-Electron Energy =                1032.9765087446489815
    Total Energy =                       -857.5944631974973618
  Basis Set: (AUG-CC-PVTZ AUX)
    Blend: AUG-CC-PVTZ-RI
    Molecular point group: c1

    Geometry (in Angstrom), charge = 0, multiplicity = 1:

       Center              X                  Y                   Z               Mass
    ------------   -----------------  -----------------  -----------------  -----------------
         S           -0.267286908155    -0.402872942907     0.138316297857    31.972071174400
         O           -1.538415908155     0.600563057093    -0.128256702143    15.994914619570
         O           -0.323449908155    -1.487989942907    -0.843635702143    15.994914619570
         O           -0.188601908155    -0.721881942907     1.564847297857    15.994914619570
         C            2.389540091845     0.334249057093     0.194824297857    12.000000000000
         C            1.001517091845     0.781552057093    -0.269864702143    12.000000000000
         C            2.865404091845    -0.931690942907    -0.516393702143    12.000000000000
         C            3.368399091845     1.487058057093    -0.029563702143    12.000000000000
         C           -2.831563908155    -0.080089942907    -0.129172702143    12.000000000000
         C           -3.821148108155     1.060953857093    -0.131912602143    12.000000000000
         H            2.325712091845     0.133869057093     1.270906297857     1.007825032230
         H            0.959446091845     0.923619057093    -1.354393702143     1.007825032230
         H            0.701868091845     1.711110057093     0.223124297857     1.007825032230
         H            2.896517091845    -0.772831942907    -1.599819702143     1.007825032230
         H            2.215237091845    -1.787047942907    -0.322069702143     1.007825032230
         H            3.875206091845    -1.188528942907    -0.182823702143     1.007825032230
         H            3.445483091845     1.727205057093    -1.095433702143     1.007825032230
         H            3.055639091845     2.390241057093     0.503567297857     1.007825032230
         H            4.365848091845     1.212335057093     0.325772297857     1.007825032230
         H           -2.851010908155    -0.786478942907    -0.962796702143     1.007825032230
         H           -2.940097908155    -0.628716942907     0.811308297857     1.007825032230
         H           -3.819182908155     1.697952057093     0.571174297857     1.007825032230
         H           -3.726081908155     1.558217057093    -1.197378702143     1.007825032230
         H           -4.871668908155     0.553336057093    -0.286871702143     1.007825032230

  Basis Set: AUG-CC-PVTZ
    Blend: AUG-CC-PVTZ
  Basis Set: (AUG-CC-PVTZ AUX)
    Blend: AUG-CC-PVTZ-JKFIT
	 Reference Energy          =    -857.5944631974974754 [Eh]
	 Singles Energy            =      -0.0000000000000000 [Eh]
	 Same-Spin Energy          =      -0.5258257553481916 [Eh]
	 Opposite-Spin Energy      =      -1.6822195615888287 [Eh]
	 Correlation Energy        =      -2.2080453169370204 [Eh]
	 Total Energy              =    -859.8025085144345212 [Eh]

	 ================> DF-SCS-MP2 Energies <==================
	-----------------------------------------------------------
	 SCS Same-Spin Scale       =       0.3333333333333333 [-]
	 SCS Opposite-Spin Scale   =       1.2000000000000000 [-]
	 SCS Same-Spin Energy      =      -0.1752752517827305 [Eh]
	 SCS Opposite-Spin Energy  =      -2.0186634739065945 [Eh]
	 SCS Correlation Energy    =      -2.1939387256893252 [Eh]
	 SCS Total Energy          =    -859.7884019231868251 [Eh]
	-----------------------------------------------------------

  Dipole Moment: [D]
     X:    -0.0570      Y:     2.7010      Z:    -1.0104     Total:     2.8844

*** Psi4 exiting successfully. Buy a developer a beer!
