                               Psi4 1.4a3.dev225

  ==> Input File <==

--------------------------------------------------------------------------
#psi4
#
memory 32 gb

molecule  {
0 1
  S       -0.2946600    -0.4360860     0.1655790
  O       -1.6152321     0.6439325     0.0218381
  O       -0.3508230    -1.5212030    -0.8163730
  O       -0.2159750    -0.7550950     1.5921100
  C        2.3621670     0.3010360     0.2220870
  C        0.9741440     0.7483390    -0.2426020
  C        2.8380310    -0.9649040    -0.4891310
  C        3.3410260     1.4538450    -0.0023010
  C       -2.8589370    -0.1133030    -0.1019100
  C       -3.9021700     0.9699320    -0.2416680
  H        2.2983390     0.1006560     1.2981690
  H        0.9320730     0.8904060    -1.3271310
  H        0.6744950     1.6778970     0.2503870
  H        2.8691440    -0.8060450    -1.5725570
  H        2.1878640    -1.8202610    -0.2948070
  H        3.8478330    -1.2217420    -0.1555610
  H        3.4181100     1.6939920    -1.0681710
  H        3.0282660     2.3570280     0.5308300
  H        4.3384750     1.1791220     0.3530350
  H       -2.8783840    -0.8196920    -0.9355340
  H       -2.9674710    -0.6619300     0.8385710
  H       -3.8465560     1.6647390     0.5984370
  H       -3.7534550     1.5250040    -1.1701160
  H       -4.8990420     0.5201230    -0.2596090
units angstrom
no_reorient  #important for SAPT in psi4, default
symmetry c1  #important for SAPT in psi4, default
}

set PROPERTIES_ORIGIN ["COM"]
properties('MP2/aug-cc-pvtz', properties = ['dipole'])
--------------------------------------------------------------------------

    Molecular point group: c1
  Charge       = 0
  Multiplicity = 1
  Basis Set: AUG-CC-PVTZ
    Blend: AUG-CC-PVTZ
  Basis Set: (AUG-CC-PVTZ AUX)
    Blend: AUG-CC-PVTZ-JKFIT

    Orbital Energies [Eh]
    ---------------------

    Doubly Occupied:

       1A    -92.216314     2A    -20.613443     3A    -20.565946
       4A    -20.553003     5A    -11.296694     6A    -11.281375
       7A    -11.253679     8A    -11.231137     9A    -11.228235
      10A    -11.220777    11A     -9.180724    12A     -6.865974
      13A     -6.864588    14A     -6.864441    15A     -1.471968
      16A     -1.368215    17A     -1.340813    18A     -1.122910
      19A     -1.043502    20A     -0.997915    21A     -0.944260
      22A     -0.867645    23A     -0.834931    24A     -0.788520
      25A     -0.721261    26A     -0.691346    27A     -0.685611
      28A     -0.656242    29A     -0.637991    30A     -0.615793
      31A     -0.605767    32A     -0.588922    33A     -0.563861
      34A     -0.554785    35A     -0.552454    36A     -0.545240
      37A     -0.536496    38A     -0.513883    39A     -0.501093
      40A     -0.496742    41A     -0.490736    42A     -0.484413
      43A     -0.483967    44A     -0.464220    45A     -0.453247

  @DF-RHF Final Energy:  -857.61338768277938

   => Energetics <=

    Nuclear Repulsion Energy =            720.0638686625725313
    One-Electron Energy =               -2607.6323560022037782
    Two-Electron Energy =                1029.9550996568518713
    Total Energy =                       -857.6133876827793756
  Basis Set: (AUG-CC-PVTZ AUX)
    Blend: AUG-CC-PVTZ-RI
    Molecular point group: c1

    Geometry (in Angstrom), charge = 0, multiplicity = 1:

       Center              X                  Y                   Z               Mass
    ------------   -----------------  -----------------  -----------------  -----------------
         S           -0.258648050076    -0.406071814318     0.136386516645    31.972071174400
         O           -1.579220150076     0.673946685682    -0.007354383355    15.994914619570
         O           -0.314811050076    -1.491188814318    -0.845565483355    15.994914619570
         O           -0.179963050076    -0.725080814318     1.562917516645    15.994914619570
         C            2.398178949924     0.331050185682     0.192894516645    12.000000000000
         C            1.010155949924     0.778353185682    -0.271794483355    12.000000000000
         C            2.874042949924    -0.934889814318    -0.518323483355    12.000000000000
         C            3.377037949924     1.483859185682    -0.031493483355    12.000000000000
         C           -2.822925050076    -0.083288814318    -0.131102483355    12.000000000000
         C           -3.866158050076     0.999946185682    -0.270860483355    12.000000000000
         H            2.334350949924     0.130670185682     1.268976516645     1.007825032230
         H            0.968084949924     0.920420185682    -1.356323483355     1.007825032230
         H            0.710506949924     1.707911185682     0.221194516645     1.007825032230
         H            2.905155949924    -0.776030814318    -1.601749483355     1.007825032230
         H            2.223875949924    -1.790246814318    -0.323999483355     1.007825032230
         H            3.883844949924    -1.191727814318    -0.184753483355     1.007825032230
         H            3.454121949924     1.724006185682    -1.097363483355     1.007825032230
         H            3.064277949924     2.387042185682     0.501637516645     1.007825032230
         H            4.374486949924     1.209136185682     0.323842516645     1.007825032230
         H           -2.842372050076    -0.789677814318    -0.964726483355     1.007825032230
         H           -2.931459050076    -0.631915814318     0.809378516645     1.007825032230
         H           -3.810544050076     1.694753185682     0.569244516645     1.007825032230
         H           -3.717443050076     1.555018185682    -1.199308483355     1.007825032230
         H           -4.863030050076     0.550137185682    -0.288801483355     1.007825032230

  Basis Set: AUG-CC-PVTZ
    Blend: AUG-CC-PVTZ
  Basis Set: (AUG-CC-PVTZ AUX)
    Blend: AUG-CC-PVTZ-JKFIT
	 Reference Energy          =    -857.6133876827793756 [Eh]
	 Singles Energy            =      -0.0000000000000000 [Eh]
	 Same-Spin Energy          =      -0.5270368111269466 [Eh]
	 Opposite-Spin Energy      =      -1.6852920759335035 [Eh]
	 Correlation Energy        =      -2.2123288870604503 [Eh]
	 Total Energy              =    -859.8257165698398694 [Eh]

	 ================> DF-SCS-MP2 Energies <==================
	-----------------------------------------------------------
	 SCS Same-Spin Scale       =       0.3333333333333333 [-]
	 SCS Opposite-Spin Scale   =       1.2000000000000000 [-]
	 SCS Same-Spin Energy      =      -0.1756789370423155 [Eh]
	 SCS Opposite-Spin Energy  =      -2.0223504911202039 [Eh]
	 SCS Correlation Energy    =      -2.1980294281625192 [Eh]
	 SCS Total Energy          =    -859.8114171109418749 [Eh]
	-----------------------------------------------------------

  Dipole Moment: [D]
     X:     0.4003      Y:     2.4511      Z:    -1.2532     Total:     2.7818

*** Psi4 exiting successfully. Buy a developer a beer!
