                               Psi4 1.4a3.dev225

  ==> Input File <==

--------------------------------------------------------------------------
#psi4
#
memory 32 gb

molecule  {
0 1
  S       -0.2946600    -0.4360860     0.1655790
  O       -1.5657890     0.5673500    -0.1009940
  O       -0.3508230    -1.5212030    -0.8163730
  O       -0.2159750    -0.7550950     1.5921100
  C        2.3604531     0.2797892     0.2059866
  C        0.9741440     0.7483390    -0.2426020
  C        2.8380310    -0.9649040    -0.4891310
  C        3.3410260     1.4538450    -0.0023010
  C       -2.8589370    -0.1133030    -0.1019100
  C       -3.9021700     0.9699320    -0.2416680
  H        2.2983390     0.1006560     1.2981690
  H        0.9320730     0.8904060    -1.3271310
  H        0.6744950     1.6778970     0.2503870
  H        2.8691440    -0.8060450    -1.5725570
  H        2.1878640    -1.8202610    -0.2948070
  H        3.8478330    -1.2217420    -0.1555610
  H        3.4181100     1.6939920    -1.0681710
  H        3.0282660     2.3570280     0.5308300
  H        4.3384750     1.1791220     0.3530350
  H       -2.8783840    -0.8196920    -0.9355340
  H       -2.9674710    -0.6619300     0.8385710
  H       -3.8465560     1.6647390     0.5984370
  H       -3.7534550     1.5250040    -1.1701160
  H       -4.8990420     0.5201230    -0.2596090
units angstrom
no_reorient  #important for SAPT in psi4, default
symmetry c1  #important for SAPT in psi4, default
}

set PROPERTIES_ORIGIN ["COM"]
properties('MP2/aug-cc-pvtz', properties = ['dipole'])
--------------------------------------------------------------------------

    Molecular point group: c1
  Charge       = 0
  Multiplicity = 1
  Basis Set: AUG-CC-PVTZ
    Blend: AUG-CC-PVTZ
  Basis Set: (AUG-CC-PVTZ AUX)
    Blend: AUG-CC-PVTZ-JKFIT

    Orbital Energies [Eh]
    ---------------------

    Doubly Occupied:

       1A    -92.213526     2A    -20.614738     3A    -20.553664
       4A    -20.553464     5A    -11.301831     6A    -11.278416
       7A    -11.252127     8A    -11.232980     9A    -11.230004
      10A    -11.218057    11A     -9.177822    12A     -6.863280
      13A     -6.861819    14A     -6.861651    15A     -1.480950
      16A     -1.374990    17A     -1.337365    18A     -1.121651
      19A     -1.051584    20A     -0.997146    21A     -0.943770
      22A     -0.876911    23A     -0.830453    24A     -0.786441
      25A     -0.725158    26A     -0.692839    27A     -0.690514
      28A     -0.657339    29A     -0.635289    30A     -0.617089
      31A     -0.606497    32A     -0.586794    33A     -0.566830
      34A     -0.558449    35A     -0.554685    36A     -0.544176
      37A     -0.537267    38A     -0.508769    39A     -0.500869
      40A     -0.498230    41A     -0.494913    42A     -0.485289
      43A     -0.478858    44A     -0.463262    45A     -0.451727

  @DF-RHF Final Energy:  -857.62558077224287

   => Energetics <=

    Nuclear Repulsion Energy =            722.7400481105424888
    One-Electron Energy =               -2612.9922978785211853
    Two-Electron Energy =                1032.6266689957358267
    Total Energy =                       -857.6255807722429836
  Basis Set: (AUG-CC-PVTZ AUX)
    Blend: AUG-CC-PVTZ-RI
    Molecular point group: c1

    Geometry (in Angstrom), charge = 0, multiplicity = 1:

       Center              X                  Y                   Z               Mass
    ------------   -----------------  -----------------  -----------------  -----------------
         S           -0.263286384641    -0.397160364100     0.149380681633    31.972071174400
         O           -1.534415384641     0.606275635900    -0.117192318367    15.994914619570
         O           -0.319449384641    -1.482277364100    -0.832571318367    15.994914619570
         O           -0.184601384641    -0.716169364100     1.575911681633    15.994914619570
         C            2.391826715359     0.318714835900     0.189788281633    12.000000000000
         C            1.005517615359     0.787264635900    -0.258800318367    12.000000000000
         C            2.869404615359    -0.925978364100    -0.505329318367    12.000000000000
         C            3.372399615359     1.492770635900    -0.018499318367    12.000000000000
         C           -2.827563384641    -0.074377364100    -0.118108318367    12.000000000000
         C           -3.870796384641     1.008857635900    -0.257866318367    12.000000000000
         H            2.329712615359     0.139581635900     1.281970681633     1.007825032230
         H            0.963446615359     0.929331635900    -1.343329318367     1.007825032230
         H            0.705868615359     1.716822635900     0.234188681633     1.007825032230
         H            2.900517615359    -0.767119364100    -1.588755318367     1.007825032230
         H            2.219237615359    -1.781335364100    -0.311005318367     1.007825032230
         H            3.879206615359    -1.182816364100    -0.171759318367     1.007825032230
         H            3.449483615359     1.732917635900    -1.084369318367     1.007825032230
         H            3.059639615359     2.395953635900     0.514631681633     1.007825032230
         H            4.369848615359     1.218047635900     0.336836681633     1.007825032230
         H           -2.847010384641    -0.780766364100    -0.951732318367     1.007825032230
         H           -2.936097384641    -0.623004364100     0.822372681633     1.007825032230
         H           -3.815182384641     1.703664635900     0.582238681633     1.007825032230
         H           -3.722081384641     1.563929635900    -1.186314318367     1.007825032230
         H           -4.867668384641     0.559048635900    -0.275807318367     1.007825032230

  Basis Set: AUG-CC-PVTZ
    Blend: AUG-CC-PVTZ
  Basis Set: (AUG-CC-PVTZ AUX)
    Blend: AUG-CC-PVTZ-JKFIT
	 Reference Energy          =    -857.6255807722428699 [Eh]
	 Singles Energy            =      -0.0000000000000000 [Eh]
	 Same-Spin Energy          =      -0.5254270783902232 [Eh]
	 Opposite-Spin Energy      =      -1.6809698308596679 [Eh]
	 Correlation Energy        =      -2.2063969092498912 [Eh]
	 Total Energy              =    -859.8319776814927309 [Eh]

	 ================> DF-SCS-MP2 Energies <==================
	-----------------------------------------------------------
	 SCS Same-Spin Scale       =       0.3333333333333333 [-]
	 SCS Opposite-Spin Scale   =       1.2000000000000000 [-]
	 SCS Same-Spin Energy      =      -0.1751423594634077 [Eh]
	 SCS Opposite-Spin Energy  =      -2.0171637970316012 [Eh]
	 SCS Correlation Energy    =      -2.1923061564950088 [Eh]
	 SCS Total Energy          =    -859.8178869287378348 [Eh]
	-----------------------------------------------------------

  Dipole Moment: [D]
     X:    -0.0586      Y:     2.6955      Z:    -1.0500     Total:     2.8934

*** Psi4 exiting successfully. Buy a developer a beer!
