                               Psi4 1.4a3.dev225

  ==> Input File <==

--------------------------------------------------------------------------
#psi4
#
memory 32 gb

molecule  {
0 1
  S       -0.2946600    -0.4360860     0.1655790
  O       -1.5657890     0.5673500    -0.1009940
  O       -0.3508230    -1.5212030    -0.8163730
  O       -0.2159750    -0.7550950     1.5921100
  C        2.3621670     0.3010360     0.2220870
  C        0.9835635     0.7509436    -0.2674631
  C        2.8380310    -0.9649040    -0.4891310
  C        3.3410260     1.4538450    -0.0023010
  C       -2.8589370    -0.1133030    -0.1019100
  C       -3.9021700     0.9699320    -0.2416680
  H        2.2983390     0.1006560     1.2981690
  H        0.9320730     0.8904060    -1.3271310
  H        0.6744950     1.6778970     0.2503870
  H        2.8691440    -0.8060450    -1.5725570
  H        2.1878640    -1.8202610    -0.2948070
  H        3.8478330    -1.2217420    -0.1555610
  H        3.4181100     1.6939920    -1.0681710
  H        3.0282660     2.3570280     0.5308300
  H        4.3384750     1.1791220     0.3530350
  H       -2.8783840    -0.8196920    -0.9355340
  H       -2.9674710    -0.6619300     0.8385710
  H       -3.8465560     1.6647390     0.5984370
  H       -3.7534550     1.5250040    -1.1701160
  H       -4.8990420     0.5201230    -0.2596090
units angstrom
no_reorient  #important for SAPT in psi4, default
symmetry c1  #important for SAPT in psi4, default
}

set PROPERTIES_ORIGIN ["COM"]
properties('MP2/aug-cc-pvtz', properties = ['dipole'])
--------------------------------------------------------------------------

    Molecular point group: c1
  Charge       = 0
  Multiplicity = 1
  Basis Set: AUG-CC-PVTZ
    Blend: AUG-CC-PVTZ
  Basis Set: (AUG-CC-PVTZ AUX)
    Blend: AUG-CC-PVTZ-JKFIT

    Orbital Energies [Eh]
    ---------------------

    Doubly Occupied:

       1A    -92.213307     2A    -20.614744     3A    -20.554321
       4A    -20.552694     5A    -11.301787     6A    -11.278324
       7A    -11.251454     8A    -11.232957     9A    -11.229376
      10A    -11.218408    11A     -9.177494    12A     -6.862933
      13A     -6.861478    14A     -6.861315    15A     -1.480506
      16A     -1.374856    17A     -1.337166    18A     -1.120783
      19A     -1.051071    20A     -0.995481    21A     -0.942317
      22A     -0.876984    23A     -0.830183    24A     -0.789433
      25A     -0.724254    26A     -0.692521    27A     -0.691317
      28A     -0.655475    29A     -0.634883    30A     -0.616547
      31A     -0.606579    32A     -0.589842    33A     -0.567220
      34A     -0.558993    35A     -0.554552    36A     -0.543802
      37A     -0.537225    38A     -0.508925    39A     -0.499948
      40A     -0.497122    41A     -0.489635    42A     -0.486819
      43A     -0.483084    44A     -0.463140    45A     -0.451210

  @DF-RHF Final Energy:  -857.62586437658524

   => Energetics <=

    Nuclear Repulsion Energy =            722.2799889995609419
    One-Electron Energy =               -2612.0867762474017582
    Two-Electron Energy =                1032.1809228712556887
    Total Energy =                       -857.6258643765852412
  Basis Set: (AUG-CC-PVTZ AUX)
    Blend: AUG-CC-PVTZ-RI
    Molecular point group: c1

    Geometry (in Angstrom), charge = 0, multiplicity = 1:

       Center              X                  Y                   Z               Mass
    ------------   -----------------  -----------------  -----------------  -----------------
         S           -0.264090887104    -0.398883872646     0.150013732159    31.972071174400
         O           -1.535219887104     0.604552127354    -0.116559267841    15.994914619570
         O           -0.320253887104    -1.484000872646    -0.831938267841    15.994914619570
         O           -0.185405887104    -0.717892872646     1.576544732159    15.994914619570
         C            2.392736112896     0.338238127354     0.206521732159    12.000000000000
         C            1.014132612896     0.788145727354    -0.283028367841    12.000000000000
         C            2.868600112896    -0.927701872646    -0.504696267841    12.000000000000
         C            3.371595112896     1.491047127354    -0.017866267841    12.000000000000
         C           -2.828367887104    -0.076100872646    -0.117475267841    12.000000000000
         C           -3.871600887104     1.007134127354    -0.257233267841    12.000000000000
         H            2.328908112896     0.137858127354     1.282603732159     1.007825032230
         H            0.962642112896     0.927608127354    -1.342696267841     1.007825032230
         H            0.705064112896     1.715099127354     0.234821732159     1.007825032230
         H            2.899713112896    -0.768842872646    -1.588122267841     1.007825032230
         H            2.218433112896    -1.783058872646    -0.310372267841     1.007825032230
         H            3.878402112896    -1.184539872646    -0.171126267841     1.007825032230
         H            3.448679112896     1.731194127354    -1.083736267841     1.007825032230
         H            3.058835112896     2.394230127354     0.515264732159     1.007825032230
         H            4.369044112896     1.216324127354     0.337469732159     1.007825032230
         H           -2.847814887104    -0.782489872646    -0.951099267841     1.007825032230
         H           -2.936901887104    -0.624727872646     0.823005732159     1.007825032230
         H           -3.815986887104     1.701941127354     0.582871732159     1.007825032230
         H           -3.722885887104     1.562206127354    -1.185681267841     1.007825032230
         H           -4.868472887104     0.557325127354    -0.275174267841     1.007825032230

  Basis Set: AUG-CC-PVTZ
    Blend: AUG-CC-PVTZ
  Basis Set: (AUG-CC-PVTZ AUX)
    Blend: AUG-CC-PVTZ-JKFIT
	 Reference Energy          =    -857.6258643765852412 [Eh]
	 Singles Energy            =      -0.0000000000000000 [Eh]
	 Same-Spin Energy          =      -0.5252499726034870 [Eh]
	 Opposite-Spin Energy      =      -1.6808444841740378 [Eh]
	 Correlation Energy        =      -2.2060944567775249 [Eh]
	 Total Energy              =    -859.8319588333628190 [Eh]

	 ================> DF-SCS-MP2 Energies <==================
	-----------------------------------------------------------
	 SCS Same-Spin Scale       =       0.3333333333333333 [-]
	 SCS Opposite-Spin Scale   =       1.2000000000000000 [-]
	 SCS Same-Spin Energy      =      -0.1750833242011623 [Eh]
	 SCS Opposite-Spin Energy  =      -2.0170133810088453 [Eh]
	 SCS Correlation Energy    =      -2.1920967052100075 [Eh]
	 SCS Total Energy          =    -859.8179610817952607 [Eh]
	-----------------------------------------------------------

  Dipole Moment: [D]
     X:    -0.0709      Y:     2.7062      Z:    -1.0370     Total:     2.8989

*** Psi4 exiting successfully. Buy a developer a beer!
