                               Psi4 1.4a3.dev225

  ==> Input File <==

--------------------------------------------------------------------------
#psi4
#
memory 32 gb

molecule  {
0 1
  S       -0.2946600    -0.4360860     0.1655790
  O       -1.5657890     0.5673500    -0.1009940
  O       -0.3508230    -1.5212030    -0.8163730
  O       -0.2159750    -0.7550950     1.5921100
  C        2.3621670     0.3010360     0.2220870
  C        0.9265971     0.7298805    -0.0907308
  C        2.8380310    -0.9649040    -0.4891310
  C        3.3410260     1.4538450    -0.0023010
  C       -2.8589370    -0.1133030    -0.1019100
  C       -3.9021700     0.9699320    -0.2416680
  H        2.2983390     0.1006560     1.2981690
  H        0.9320730     0.8904060    -1.3271310
  H        0.6744950     1.6778970     0.2503870
  H        2.8691440    -0.8060450    -1.5725570
  H        2.1878640    -1.8202610    -0.2948070
  H        3.8478330    -1.2217420    -0.1555610
  H        3.4181100     1.6939920    -1.0681710
  H        3.0282660     2.3570280     0.5308300
  H        4.3384750     1.1791220     0.3530350
  H       -2.8783840    -0.8196920    -0.9355340
  H       -2.9674710    -0.6619300     0.8385710
  H       -3.8465560     1.6647390     0.5984370
  H       -3.7534550     1.5250040    -1.1701160
  H       -4.8990420     0.5201230    -0.2596090
units angstrom
no_reorient  #important for SAPT in psi4, default
symmetry c1  #important for SAPT in psi4, default
}

set PROPERTIES_ORIGIN ["COM"]
properties('MP2/aug-cc-pvtz', properties = ['dipole'])
--------------------------------------------------------------------------

    Molecular point group: c1
  Charge       = 0
  Multiplicity = 1
  Basis Set: AUG-CC-PVTZ
    Blend: AUG-CC-PVTZ
  Basis Set: (AUG-CC-PVTZ AUX)
    Blend: AUG-CC-PVTZ-JKFIT

    Orbital Energies [Eh]
    ---------------------

    Doubly Occupied:

       1A    -92.216608     2A    -20.615651     3A    -20.559343
       4A    -20.548464     5A    -11.302520     6A    -11.280694
       7A    -11.253618     8A    -11.233361     9A    -11.231022
      10A    -11.220399    11A     -9.181265    12A     -6.866809
      13A     -6.865575    14A     -6.865016    15A     -1.484124
      16A     -1.376339    17A     -1.338777    18A     -1.123474
      19A     -1.054359    20A     -1.004698    21A     -0.943133
      22A     -0.878211    23A     -0.834708    24A     -0.785201
      25A     -0.733724    26A     -0.694221    27A     -0.688580
      28A     -0.660876    29A     -0.635638    30A     -0.618898
      31A     -0.608788    32A     -0.573044    33A     -0.565105
      34A     -0.556117    35A     -0.553342    36A     -0.541574
      37A     -0.538534    38A     -0.517753    39A     -0.500586
      40A     -0.498041    41A     -0.496497    42A     -0.481972
      43A     -0.467350    44A     -0.466202    45A     -0.456779

  @DF-RHF Final Energy:  -857.60226822615016

   => Energetics <=

    Nuclear Repulsion Energy =            724.2113344097424488
    One-Electron Energy =               -2615.7932214335969547
    Two-Electron Energy =                1033.9796187977042337
    Total Energy =                       -857.6022682261502723
  Basis Set: (AUG-CC-PVTZ AUX)
    Blend: AUG-CC-PVTZ-RI
    Molecular point group: c1

    Geometry (in Angstrom), charge = 0, multiplicity = 1:

       Center              X                  Y                   Z               Mass
    ------------   -----------------  -----------------  -----------------  -----------------
         S           -0.259974479799    -0.397361847404     0.137243008877    31.972071174400
         O           -1.531103479799     0.606074152596    -0.129329991123    15.994914619570
         O           -0.316137479799    -1.482478847404    -0.844708991123    15.994914619570
         O           -0.181289479799    -0.716370847404     1.563774008877    15.994914619570
         C            2.396852520201     0.339760152596     0.193751008877    12.000000000000
         C            0.961282620201     0.768604652596    -0.119066791123    12.000000000000
         C            2.872716520201    -0.926179847404    -0.517466991123    12.000000000000
         C            3.375711520201     1.492569152596    -0.030636991123    12.000000000000
         C           -2.824251479799    -0.074578847404    -0.130245991123    12.000000000000
         C           -3.867484479799     1.008656152596    -0.270003991123    12.000000000000
         H            2.333024520201     0.139380152596     1.269833008877     1.007825032230
         H            0.966758520201     0.929130152596    -1.355466991123     1.007825032230
         H            0.709180520201     1.716621152596     0.222051008877     1.007825032230
         H            2.903829520201    -0.767320847404    -1.600892991123     1.007825032230
         H            2.222549520201    -1.781536847404    -0.323142991123     1.007825032230
         H            3.882518520201    -1.183017847404    -0.183896991123     1.007825032230
         H            3.452795520201     1.732716152596    -1.096506991123     1.007825032230
         H            3.062951520201     2.395752152596     0.502494008877     1.007825032230
         H            4.373160520201     1.217846152596     0.324699008877     1.007825032230
         H           -2.843698479799    -0.780967847404    -0.963869991123     1.007825032230
         H           -2.932785479799    -0.623205847404     0.810235008877     1.007825032230
         H           -3.811870479799     1.703463152596     0.570101008877     1.007825032230
         H           -3.718769479799     1.563728152596    -1.198451991123     1.007825032230
         H           -4.864356479799     0.558847152596    -0.287944991123     1.007825032230

  Basis Set: AUG-CC-PVTZ
    Blend: AUG-CC-PVTZ
  Basis Set: (AUG-CC-PVTZ AUX)
    Blend: AUG-CC-PVTZ-JKFIT
	 Reference Energy          =    -857.6022682261501586 [Eh]
	 Singles Energy            =      -0.0000000000000000 [Eh]
	 Same-Spin Energy          =      -0.5262700706073620 [Eh]
	 Opposite-Spin Energy      =      -1.6823808391258299 [Eh]
	 Correlation Energy        =      -2.2086509097331919 [Eh]
	 Total Energy              =    -859.8109191358832959 [Eh]

	 ================> DF-SCS-MP2 Energies <==================
	-----------------------------------------------------------
	 SCS Same-Spin Scale       =       0.3333333333333333 [-]
	 SCS Opposite-Spin Scale   =       1.2000000000000000 [-]
	 SCS Same-Spin Energy      =      -0.1754233568691206 [Eh]
	 SCS Opposite-Spin Energy  =      -2.0188570069509959 [Eh]
	 SCS Correlation Energy    =      -2.1942803638201167 [Eh]
	 SCS Total Energy          =    -859.7965485899702571 [Eh]
	-----------------------------------------------------------

  Dipole Moment: [D]
     X:    -0.0116      Y:     2.7069      Z:    -1.0661     Total:     2.9093

*** Psi4 exiting successfully. Buy a developer a beer!
