                               Psi4 1.4a3.dev225

  ==> Input File <==

--------------------------------------------------------------------------
#psi4
#
memory 32 gb

molecule  {
0 1
  S       -0.2946600    -0.4360860     0.1655790
  O       -1.5657890     0.5673500    -0.1009940
  O       -0.3508230    -1.5212030    -0.8163730
  O       -0.2159750    -0.7550950     1.5921100
  C        2.3621670     0.3010360     0.2220870
  C        0.9741440     0.7483390    -0.2426020
  C        2.8380310    -0.9649040    -0.4891310
  C        3.3410260     1.4538450    -0.0023010
  C       -2.8589370    -0.1133030    -0.1019100
  C       -3.9021700     0.9699320    -0.2416680
  H        2.2983390     0.1006560     1.2981690
  H        0.9320730     0.8904060    -1.3271310
  H        0.6744950     1.6778970     0.2503870
  H        2.8691440    -0.8060450    -1.5725570
  H        2.1878640    -1.8202610    -0.2948070
  H        3.8478330    -1.2217420    -0.1555610
  H        3.4181100     1.6939920    -1.0681710
  H        3.0282660     2.3570280     0.5308300
  H        4.3384750     1.1791220     0.3530350
  H       -2.8787399    -0.8326196    -0.9507901
  H       -2.9674710    -0.6619300     0.8385710
  H       -3.8465560     1.6647390     0.5984370
  H       -3.7534550     1.5250040    -1.1701160
  H       -4.8990420     0.5201230    -0.2596090
units angstrom
no_reorient  #important for SAPT in psi4, default
symmetry c1  #important for SAPT in psi4, default
}

set PROPERTIES_ORIGIN ["COM"]
properties('MP2/aug-cc-pvtz', properties = ['dipole'])
--------------------------------------------------------------------------

    Molecular point group: c1
  Charge       = 0
  Multiplicity = 1
  Basis Set: AUG-CC-PVTZ
    Blend: AUG-CC-PVTZ
  Basis Set: (AUG-CC-PVTZ AUX)
    Blend: AUG-CC-PVTZ-JKFIT

    Orbital Energies [Eh]
    ---------------------

    Doubly Occupied:

       1A    -92.213881     2A    -20.615152     3A    -20.553669
       4A    -20.553593     5A    -11.304130     6A    -11.278171
       7A    -11.251521     8A    -11.233150     9A    -11.229551
      10A    -11.218633    11A     -9.178129    12A     -6.863586
      13A     -6.862139    14A     -6.861964    15A     -1.481092
      16A     -1.375153    17A     -1.337438    18A     -1.120955
      19A     -1.050923    20A     -0.996701    21A     -0.942364
      22A     -0.876427    23A     -0.829546    24A     -0.788067
      25A     -0.725193    26A     -0.692016    27A     -0.690268
      28A     -0.656512    29A     -0.634625    30A     -0.616186
      31A     -0.606760    32A     -0.586723    33A     -0.567260
      34A     -0.558937    35A     -0.554707    36A     -0.543571
      37A     -0.537116    38A     -0.509953    39A     -0.499383
      40A     -0.496182    41A     -0.490472    42A     -0.485329
      43A     -0.482493    44A     -0.463157    45A     -0.453711

  @DF-RHF Final Energy:  -857.62589454977262

   => Energetics <=

    Nuclear Repulsion Energy =            722.4791519549462464
    One-Electron Energy =               -2612.4771103452658281
    Two-Electron Energy =                1032.3720638405470709
    Total Energy =                       -857.6258945497725108
  Basis Set: (AUG-CC-PVTZ AUX)
    Blend: AUG-CC-PVTZ-RI
    Molecular point group: c1

    Geometry (in Angstrom), charge = 0, multiplicity = 1:

       Center              X                  Y                   Z               Mass
    ------------   -----------------  -----------------  -----------------  -----------------
         S           -0.263408071624    -0.398617208419     0.148309848776    31.972071174400
         O           -1.534537071624     0.604818791581    -0.118263151224    15.994914619570
         O           -0.319571071624    -1.483734208419    -0.833642151224    15.994914619570
         O           -0.184723071624    -0.717626208419     1.574840848776    15.994914619570
         C            2.393418928376     0.338504791581     0.204817848776    12.000000000000
         C            1.005395928376     0.785807791581    -0.259871151224    12.000000000000
         C            2.869282928376    -0.927435208419    -0.506400151224    12.000000000000
         C            3.372277928376     1.491313791581    -0.019570151224    12.000000000000
         C           -2.827685071624    -0.075834208419    -0.119179151224    12.000000000000
         C           -3.870918071624     1.007400791581    -0.258937151224    12.000000000000
         H            2.329590928376     0.138124791581     1.280899848776     1.007825032230
         H            0.963324928376     0.927874791581    -1.344400151224     1.007825032230
         H            0.705746928376     1.715365791581     0.233117848776     1.007825032230
         H            2.900395928376    -0.768576208419    -1.589826151224     1.007825032230
         H            2.219115928376    -1.782792208419    -0.312076151224     1.007825032230
         H            3.879084928376    -1.184273208419    -0.172830151224     1.007825032230
         H            3.449361928376     1.731460791581    -1.085440151224     1.007825032230
         H            3.059517928376     2.394496791581     0.513560848776     1.007825032230
         H            4.369726928376     1.216590791581     0.335765848776     1.007825032230
         H           -2.847487971624    -0.795150808419    -0.968059251224     1.007825032230
         H           -2.936219071624    -0.624461208419     0.821301848776     1.007825032230
         H           -3.815304071624     1.702207791581     0.581167848776     1.007825032230
         H           -3.722203071624     1.562472791581    -1.187385151224     1.007825032230
         H           -4.867790071624     0.557591791581    -0.276878151224     1.007825032230

  Basis Set: AUG-CC-PVTZ
    Blend: AUG-CC-PVTZ
  Basis Set: (AUG-CC-PVTZ AUX)
    Blend: AUG-CC-PVTZ-JKFIT
	 Reference Energy          =    -857.6258945497726245 [Eh]
	 Singles Energy            =      -0.0000000000000000 [Eh]
	 Same-Spin Energy          =      -0.5253360434339567 [Eh]
	 Opposite-Spin Energy      =      -1.6809805506329114 [Eh]
	 Correlation Energy        =      -2.2063165940668679 [Eh]
	 Total Energy              =    -859.8322111438394586 [Eh]

	 ================> DF-SCS-MP2 Energies <==================
	-----------------------------------------------------------
	 SCS Same-Spin Scale       =       0.3333333333333333 [-]
	 SCS Opposite-Spin Scale   =       1.2000000000000000 [-]
	 SCS Same-Spin Energy      =      -0.1751120144779856 [Eh]
	 SCS Opposite-Spin Energy  =      -2.0171766607594934 [Eh]
	 SCS Correlation Energy    =      -2.1922886752374788 [Eh]
	 SCS Total Energy          =    -859.8181832250101024 [Eh]
	-----------------------------------------------------------

  Dipole Moment: [D]
     X:    -0.0600      Y:     2.7141      Z:    -1.0402     Total:     2.9072

*** Psi4 exiting successfully. Buy a developer a beer!
