                               Psi4 1.4a3.dev225

  ==> Input File <==

--------------------------------------------------------------------------
#psi4
#
memory 32 gb

molecule  {
0 1
  S       -0.2946600    -0.4360860     0.1655790
  O       -1.5657890     0.5673500    -0.1009940
  O       -0.3508230    -1.5212030    -0.8163730
  O       -0.2159750    -0.7550950     1.5921100
  C        2.3621670     0.3010360     0.2220870
  C        0.9741440     0.7483390    -0.2426020
  C        2.8380310    -0.9649040    -0.4891310
  C        3.3410260     1.4538450    -0.0023010
  C       -2.8589370    -0.1133030    -0.1019100
  C       -3.9021700     0.9699320    -0.2416680
  H        2.2983390     0.1006560     1.2981690
  H        0.9320730     0.8904060    -1.3271310
  H        0.6744950     1.6778970     0.2503870
  H        2.8691440    -0.8060450    -1.5725570
  H        2.1878640    -1.8202610    -0.2948070
  H        3.8478330    -1.2217420    -0.1555610
  H        3.4181100     1.6939920    -1.0681710
  H        3.0282660     2.3570280     0.5308300
  H        4.3384750     1.1791220     0.3530350
  H       -2.8826165    -0.8481297    -0.9104652
  H       -2.9674710    -0.6619300     0.8385710
  H       -3.8465560     1.6647390     0.5984370
  H       -3.7534550     1.5250040    -1.1701160
  H       -4.8990420     0.5201230    -0.2596090
units angstrom
no_reorient  #important for SAPT in psi4, default
symmetry c1  #important for SAPT in psi4, default
}

set PROPERTIES_ORIGIN ["COM"]
properties('MP2/aug-cc-pvtz', properties = ['dipole'])
--------------------------------------------------------------------------

    Molecular point group: c1
  Charge       = 0
  Multiplicity = 1
  Basis Set: AUG-CC-PVTZ
    Blend: AUG-CC-PVTZ
  Basis Set: (AUG-CC-PVTZ AUX)
    Blend: AUG-CC-PVTZ-JKFIT

    Orbital Energies [Eh]
    ---------------------

    Doubly Occupied:

       1A    -92.213944     2A    -20.615320     3A    -20.553800
       4A    -20.553601     5A    -11.301801     6A    -11.278195
       7A    -11.251536     8A    -11.233266     9A    -11.229561
      10A    -11.218656    11A     -9.178193    12A     -6.863650
      13A     -6.862203    14A     -6.862028    15A     -1.481148
      16A     -1.375175    17A     -1.337508    18A     -1.120984
      19A     -1.051340    20A     -0.996755    21A     -0.942380
      22A     -0.877266    23A     -0.831625    24A     -0.788113
      25A     -0.725634    26A     -0.691763    27A     -0.690875
      28A     -0.656218    29A     -0.634765    30A     -0.616185
      31A     -0.606945    32A     -0.586821    33A     -0.567281
      34A     -0.558916    35A     -0.554715    36A     -0.543764
      37A     -0.538383    38A     -0.510049    39A     -0.500723
      40A     -0.496103    41A     -0.490381    42A     -0.485283
      43A     -0.482532    44A     -0.463182    45A     -0.453757

  @DF-RHF Final Energy:  -857.62631519303307

   => Energetics <=

    Nuclear Repulsion Energy =            722.5596920310929363
    One-Electron Energy =               -2612.6273659430044063
    Two-Electron Energy =                1032.4413587188782913
    Total Energy =                       -857.6263151930331787
  Basis Set: (AUG-CC-PVTZ AUX)
    Blend: AUG-CC-PVTZ-RI
    Molecular point group: c1

    Geometry (in Angstrom), charge = 0, multiplicity = 1:

       Center              X                  Y                   Z               Mass
    ------------   -----------------  -----------------  -----------------  -----------------
         S           -0.263384545280    -0.398523080587     0.148065124665    31.972071174400
         O           -1.534513545280     0.604912919413    -0.118507875335    15.994914619570
         O           -0.319547545280    -1.483640080587    -0.833886875335    15.994914619570
         O           -0.184699545280    -0.717532080587     1.574596124665    15.994914619570
         C            2.393442454720     0.338598919413     0.204573124665    12.000000000000
         C            1.005419454720     0.785901919413    -0.260115875335    12.000000000000
         C            2.869306454720    -0.927341080587    -0.506644875335    12.000000000000
         C            3.372301454720     1.491407919413    -0.019814875335    12.000000000000
         C           -2.827661545280    -0.075740080587    -0.119423875335    12.000000000000
         C           -3.870894545280     1.007494919413    -0.259181875335    12.000000000000
         H            2.329614454720     0.138218919413     1.280655124665     1.007825032230
         H            0.963348454720     0.927968919413    -1.344644875335     1.007825032230
         H            0.705770454720     1.715459919413     0.232873124665     1.007825032230
         H            2.900419454720    -0.768482080587    -1.590070875335     1.007825032230
         H            2.219139454720    -1.782698080587    -0.312320875335     1.007825032230
         H            3.879108454720    -1.184179080587    -0.173074875335     1.007825032230
         H            3.449385454720     1.731554919413    -1.085684875335     1.007825032230
         H            3.059541454720     2.394590919413     0.513316124665     1.007825032230
         H            4.369750454720     1.216684919413     0.335521124665     1.007825032230
         H           -2.851341045280    -0.810566780587    -0.927979075335     1.007825032230
         H           -2.936195545280    -0.624367080587     0.821057124665     1.007825032230
         H           -3.815280545280     1.702301919413     0.580923124665     1.007825032230
         H           -3.722179545280     1.562566919413    -1.187629875335     1.007825032230
         H           -4.867766545280     0.557685919413    -0.277122875335     1.007825032230

  Basis Set: AUG-CC-PVTZ
    Blend: AUG-CC-PVTZ
  Basis Set: (AUG-CC-PVTZ AUX)
    Blend: AUG-CC-PVTZ-JKFIT
	 Reference Energy          =    -857.6263151930330650 [Eh]
	 Singles Energy            =      -0.0000000000000000 [Eh]
	 Same-Spin Energy          =      -0.5253011065016674 [Eh]
	 Opposite-Spin Energy      =      -1.6807947660779092 [Eh]
	 Correlation Energy        =      -2.2060958725795765 [Eh]
	 Total Energy              =    -859.8324110656126322 [Eh]

	 ================> DF-SCS-MP2 Energies <==================
	-----------------------------------------------------------
	 SCS Same-Spin Scale       =       0.3333333333333333 [-]
	 SCS Opposite-Spin Scale   =       1.2000000000000000 [-]
	 SCS Same-Spin Energy      =      -0.1751003688338891 [Eh]
	 SCS Opposite-Spin Energy  =      -2.0169537192934910 [Eh]
	 SCS Correlation Energy    =      -2.1920540881273802 [Eh]
	 SCS Total Energy          =    -859.8183692811604715 [Eh]
	-----------------------------------------------------------

  Dipole Moment: [D]
     X:    -0.0590      Y:     2.7008      Z:    -1.0391     Total:     2.8944

*** Psi4 exiting successfully. Buy a developer a beer!
