                               Psi4 1.4a3.dev225

  ==> Input File <==

--------------------------------------------------------------------------
#psi4
#
memory 32 gb

molecule  {
0 1
  S       -0.3313553    -0.4799081     0.1694460
  O       -1.5657890     0.5673500    -0.1009940
  O       -0.3508230    -1.5212030    -0.8163730
  O       -0.2159750    -0.7550950     1.5921100
  C        2.3621670     0.3010360     0.2220870
  C        0.9741440     0.7483390    -0.2426020
  C        2.8380310    -0.9649040    -0.4891310
  C        3.3410260     1.4538450    -0.0023010
  C       -2.8589370    -0.1133030    -0.1019100
  C       -3.9021700     0.9699320    -0.2416680
  H        2.2983390     0.1006560     1.2981690
  H        0.9320730     0.8904060    -1.3271310
  H        0.6744950     1.6778970     0.2503870
  H        2.8691440    -0.8060450    -1.5725570
  H        2.1878640    -1.8202610    -0.2948070
  H        3.8478330    -1.2217420    -0.1555610
  H        3.4181100     1.6939920    -1.0681710
  H        3.0282660     2.3570280     0.5308300
  H        4.3384750     1.1791220     0.3530350
  H       -2.8783840    -0.8196920    -0.9355340
  H       -2.9674710    -0.6619300     0.8385710
  H       -3.8465560     1.6647390     0.5984370
  H       -3.7534550     1.5250040    -1.1701160
  H       -4.8990420     0.5201230    -0.2596090
units angstrom
no_reorient  #important for SAPT in psi4, default
symmetry c1  #important for SAPT in psi4, default
}

set PROPERTIES_ORIGIN ["COM"]
properties('MP2/aug-cc-pvtz', properties = ['dipole'])
--------------------------------------------------------------------------

    Molecular point group: c1
  Charge       = 0
  Multiplicity = 1
  Basis Set: AUG-CC-PVTZ
    Blend: AUG-CC-PVTZ
  Basis Set: (AUG-CC-PVTZ AUX)
    Blend: AUG-CC-PVTZ-JKFIT

    Orbital Energies [Eh]
    ---------------------

    Doubly Occupied:

       1A    -92.211855     2A    -20.616677     3A    -20.560967
       4A    -20.555913     5A    -11.303364     6A    -11.272534
       7A    -11.246305     8A    -11.234043     9A    -11.226130
      10A    -11.216405    11A     -9.176306    12A     -6.861781
      13A     -6.860451    14A     -6.860192    15A     -1.491308
      16A     -1.382932    17A     -1.353022    18A     -1.111790
      19A     -1.050299    20A     -0.983878    21A     -0.939350
      22A     -0.876102    23A     -0.832087    24A     -0.784408
      25A     -0.725233    26A     -0.695642    27A     -0.691125
      28A     -0.655348    29A     -0.638256    30A     -0.614850
      31A     -0.607938    32A     -0.585378    33A     -0.567674
      34A     -0.560549    35A     -0.554525    36A     -0.542588
      37A     -0.539275    38A     -0.511759    39A     -0.505205
      40A     -0.499877    41A     -0.490290    42A     -0.486063
      43A     -0.479378    44A     -0.469516    45A     -0.444409

  @DF-RHF Final Energy:  -857.62491670688189

   => Energetics <=

    Nuclear Repulsion Energy =            722.4933206865048305
    One-Electron Energy =               -2612.4905249163839471
    Two-Electron Energy =                1032.3722875229973397
    Total Energy =                       -857.6249167068817769
  Basis Set: (AUG-CC-PVTZ AUX)
    Blend: AUG-CC-PVTZ-RI
    Molecular point group: c1

    Geometry (in Angstrom), charge = 0, multiplicity = 1:

       Center              X                  Y                   Z               Mass
    ------------   -----------------  -----------------  -----------------  -----------------
         S           -0.293040737026    -0.434080875709     0.151339764889    31.972071174400
         O           -1.527474437026     0.613177224291    -0.119100235111    15.994914619570
         O           -0.312508437026    -1.475375775709    -0.834479235111    15.994914619570
         O           -0.177660437026    -0.709267775709     1.574003764889    15.994914619570
         C            2.400481562974     0.346863224291     0.203980764889    12.000000000000
         C            1.012458562974     0.794166224291    -0.260708235111    12.000000000000
         C            2.876345562974    -0.919076775709    -0.507237235111    12.000000000000
         C            3.379340562974     1.499672224291    -0.020407235111    12.000000000000
         C           -2.820622437026    -0.067475775709    -0.120016235111    12.000000000000
         C           -3.863855437026     1.015759224291    -0.259774235111    12.000000000000
         H            2.336653562974     0.146483224291     1.280062764889     1.007825032230
         H            0.970387562974     0.936233224291    -1.345237235111     1.007825032230
         H            0.712809562974     1.723724224291     0.232280764889     1.007825032230
         H            2.907458562974    -0.760217775709    -1.590663235111     1.007825032230
         H            2.226178562974    -1.774433775709    -0.312913235111     1.007825032230
         H            3.886147562974    -1.175914775709    -0.173667235111     1.007825032230
         H            3.456424562974     1.739819224291    -1.086277235111     1.007825032230
         H            3.066580562974     2.402855224291     0.512723764889     1.007825032230
         H            4.376789562974     1.224949224291     0.334928764889     1.007825032230
         H           -2.840069437026    -0.773864775709    -0.953640235111     1.007825032230
         H           -2.929156437026    -0.616102775709     0.820464764889     1.007825032230
         H           -3.808241437026     1.710566224291     0.580330764889     1.007825032230
         H           -3.715140437026     1.570831224291    -1.188222235111     1.007825032230
         H           -4.860727437026     0.565950224291    -0.277715235111     1.007825032230

  Basis Set: AUG-CC-PVTZ
    Blend: AUG-CC-PVTZ
  Basis Set: (AUG-CC-PVTZ AUX)
    Blend: AUG-CC-PVTZ-JKFIT
	 Reference Energy          =    -857.6249167068818906 [Eh]
	 Singles Energy            =      -0.0000000000000000 [Eh]
	 Same-Spin Energy          =      -0.5246240596010644 [Eh]
	 Opposite-Spin Energy      =      -1.6800577699783630 [Eh]
	 Correlation Energy        =      -2.2046818295794273 [Eh]
	 Total Energy              =    -859.8295985364612761 [Eh]

	 ================> DF-SCS-MP2 Energies <==================
	-----------------------------------------------------------
	 SCS Same-Spin Scale       =       0.3333333333333333 [-]
	 SCS Opposite-Spin Scale   =       1.2000000000000000 [-]
	 SCS Same-Spin Energy      =      -0.1748746865336881 [Eh]
	 SCS Opposite-Spin Energy  =      -2.0160693239740355 [Eh]
	 SCS Correlation Energy    =      -2.1909440105077236 [Eh]
	 SCS Total Energy          =    -859.8158607173895689 [Eh]
	-----------------------------------------------------------

  Dipole Moment: [D]
     X:    -0.4230      Y:     2.3649      Z:    -1.0277     Total:     2.6131

*** Psi4 exiting successfully. Buy a developer a beer!
