                               Psi4 1.4a3.dev225

  ==> Input File <==

--------------------------------------------------------------------------
#psi4
#
memory 32 gb

molecule  {
0 1
  S       -0.2946600    -0.4360860     0.1655790
  O       -1.5657890     0.5673500    -0.1009940
  O       -0.3508230    -1.5212030    -0.8163730
  O       -0.2159750    -0.7550950     1.5921100
  C        2.3621670     0.3010360     0.2220870
  C        0.9741440     0.7483390    -0.2426020
  C        2.8380310    -0.9649040    -0.4891310
  C        3.3410260     1.4538450    -0.0023010
  C       -2.8589370    -0.1133030    -0.1019100
  C       -3.9021700     0.9699320    -0.2416680
  H        2.2983390     0.1006560     1.2981690
  H        0.9320730     0.8904060    -1.3271310
  H        0.6744950     1.6778970     0.2503870
  H        2.8691440    -0.8060450    -1.5725570
  H        2.1878640    -1.8202610    -0.2948070
  H        3.8478330    -1.2217420    -0.1555610
  H        3.4181100     1.6939920    -1.0681710
  H        3.0282660     2.3570280     0.5308300
  H        4.3384750     1.1791220     0.3530350
  H       -2.8783840    -0.8196920    -0.9355340
  H       -2.9674710    -0.6619300     0.8385710
  H       -3.8465560     1.6647390     0.5984370
  H       -3.7534550     1.5250040    -1.1701160
  H       -4.9901802     0.4789996    -0.2612492
units angstrom
no_reorient  #important for SAPT in psi4, default
symmetry c1  #important for SAPT in psi4, default
}

set PROPERTIES_ORIGIN ["COM"]
properties('MP2/aug-cc-pvtz', properties = ['dipole'])
--------------------------------------------------------------------------

    Molecular point group: c1
  Charge       = 0
  Multiplicity = 1
  Basis Set: AUG-CC-PVTZ
    Blend: AUG-CC-PVTZ
  Basis Set: (AUG-CC-PVTZ AUX)
    Blend: AUG-CC-PVTZ-JKFIT

    Orbital Energies [Eh]
    ---------------------

    Doubly Occupied:

       1A    -92.214379     2A    -20.615636     3A    -20.554125
       4A    -20.553991     5A    -11.302831     6A    -11.278528
       7A    -11.251782     8A    -11.244849     9A    -11.229766
      10A    -11.218853    11A     -9.178619    12A     -6.864080
      13A     -6.862626    14A     -6.862451    15A     -1.481599
      16A     -1.375763    17A     -1.337850    18A     -1.121250
      19A     -1.049371    20A     -0.995480    21A     -0.942584
      22A     -0.872717    23A     -0.830699    24A     -0.788243
      25A     -0.724591    26A     -0.693504    27A     -0.691112
      28A     -0.657277    29A     -0.635471    30A     -0.616377
      31A     -0.606280    32A     -0.586247    33A     -0.564281
      34A     -0.559512    35A     -0.548552    36A     -0.542231
      37A     -0.531656    38A     -0.510359    39A     -0.500375
      40A     -0.497290    41A     -0.490770    42A     -0.485757
      43A     -0.482857    44A     -0.463790    45A     -0.453674

  @DF-RHF Final Energy:  -857.62004659212539

   => Energetics <=

    Nuclear Repulsion Energy =            722.1302423519866807
    One-Electron Energy =               -2611.7605046069215859
    Two-Electron Energy =                1032.0102156628095145
    Total Energy =                       -857.6200465921253908
  Basis Set: (AUG-CC-PVTZ AUX)
    Blend: AUG-CC-PVTZ-RI
    Molecular point group: c1

    Geometry (in Angstrom), charge = 0, multiplicity = 1:

       Center              X                  Y                   Z               Mass
    ------------   -----------------  -----------------  -----------------  -----------------
         S           -0.262857131197    -0.398446093498     0.148227216482    31.972071174400
         O           -1.533986131197     0.604989906502    -0.118345783518    15.994914619570
         O           -0.319020131197    -1.483563093498    -0.833724783518    15.994914619570
         O           -0.184172131197    -0.717455093498     1.574758216482    15.994914619570
         C            2.393969868803     0.338675906502     0.204735216482    12.000000000000
         C            1.005946868803     0.785978906502    -0.259953783518    12.000000000000
         C            2.869833868803    -0.927264093498    -0.506482783518    12.000000000000
         C            3.372828868803     1.491484906502    -0.019652783518    12.000000000000
         C           -2.827134131197    -0.075663093498    -0.119261783518    12.000000000000
         C           -3.870367131197     1.007571906502    -0.259019783518    12.000000000000
         H            2.330141868803     0.138295906502     1.280817216482     1.007825032230
         H            0.963875868803     0.928045906502    -1.344482783518     1.007825032230
         H            0.706297868803     1.715536906502     0.233035216482     1.007825032230
         H            2.900946868803    -0.768405093498    -1.589908783518     1.007825032230
         H            2.219666868803    -1.782621093498    -0.312158783518     1.007825032230
         H            3.879635868803    -1.184102093498    -0.172912783518     1.007825032230
         H            3.449912868803     1.731631906502    -1.085522783518     1.007825032230
         H            3.060068868803     2.394667906502     0.513478216482     1.007825032230
         H            4.370277868803     1.216761906502     0.335683216482     1.007825032230
         H           -2.846581131197    -0.782052093498    -0.952885783518     1.007825032230
         H           -2.935668131197    -0.624290093498     0.821219216482     1.007825032230
         H           -3.814753131197     1.702378906502     0.581085216482     1.007825032230
         H           -3.721652131197     1.562643906502    -1.187467783518     1.007825032230
         H           -4.958377331197     0.516639506502    -0.278600983518     1.007825032230

  Basis Set: AUG-CC-PVTZ
    Blend: AUG-CC-PVTZ
  Basis Set: (AUG-CC-PVTZ AUX)
    Blend: AUG-CC-PVTZ-JKFIT
	 Reference Energy          =    -857.6200465921253908 [Eh]
	 Singles Energy            =      -0.0000000000000000 [Eh]
	 Same-Spin Energy          =      -0.5252446117989410 [Eh]
	 Opposite-Spin Energy      =      -1.6814507673713655 [Eh]
	 Correlation Energy        =      -2.2066953791703066 [Eh]
	 Total Energy              =    -859.8267419712957462 [Eh]

	 ================> DF-SCS-MP2 Energies <==================
	-----------------------------------------------------------
	 SCS Same-Spin Scale       =       0.3333333333333333 [-]
	 SCS Opposite-Spin Scale   =       1.2000000000000000 [-]
	 SCS Same-Spin Energy      =      -0.1750815372663136 [Eh]
	 SCS Opposite-Spin Energy  =      -2.0177409208456383 [Eh]
	 SCS Correlation Energy    =      -2.1928224581119520 [Eh]
	 SCS Total Energy          =    -859.8128690502373956 [Eh]
	-----------------------------------------------------------

  Dipole Moment: [D]
     X:    -0.0022      Y:     2.7187      Z:    -1.0415     Total:     2.9114

*** Psi4 exiting successfully. Buy a developer a beer!
