                               Psi4 1.4a3.dev225

  ==> Input File <==

--------------------------------------------------------------------------
#psi4
#
memory 32 gb

molecule  {
0 1
  S       -0.2946600    -0.4360860     0.1655790
  O       -1.5657890     0.5673500    -0.1009940
  O       -0.3124782    -1.4989521    -0.8418241
  O       -0.2159750    -0.7550950     1.5921100
  C        2.3621670     0.3010360     0.2220870
  C        0.9741440     0.7483390    -0.2426020
  C        2.8380310    -0.9649040    -0.4891310
  C        3.3410260     1.4538450    -0.0023010
  C       -2.8589370    -0.1133030    -0.1019100
  C       -3.9021700     0.9699320    -0.2416680
  H        2.2983390     0.1006560     1.2981690
  H        0.9320730     0.8904060    -1.3271310
  H        0.6744950     1.6778970     0.2503870
  H        2.8691440    -0.8060450    -1.5725570
  H        2.1878640    -1.8202610    -0.2948070
  H        3.8478330    -1.2217420    -0.1555610
  H        3.4181100     1.6939920    -1.0681710
  H        3.0282660     2.3570280     0.5308300
  H        4.3384750     1.1791220     0.3530350
  H       -2.8783840    -0.8196920    -0.9355340
  H       -2.9674710    -0.6619300     0.8385710
  H       -3.8465560     1.6647390     0.5984370
  H       -3.7534550     1.5250040    -1.1701160
  H       -4.8990420     0.5201230    -0.2596090
units angstrom
no_reorient  #important for SAPT in psi4, default
symmetry c1  #important for SAPT in psi4, default
}

set PROPERTIES_ORIGIN ["COM"]
properties('MP2/aug-cc-pvtz', properties = ['dipole'])
--------------------------------------------------------------------------

    Molecular point group: c1
  Charge       = 0
  Multiplicity = 1
  Basis Set: AUG-CC-PVTZ
    Blend: AUG-CC-PVTZ
  Basis Set: (AUG-CC-PVTZ AUX)
    Blend: AUG-CC-PVTZ-JKFIT

    Orbital Energies [Eh]
    ---------------------

    Doubly Occupied:

       1A    -92.214183     2A    -20.616177     3A    -20.555762
       4A    -20.554269     5A    -11.303057     6A    -11.275613
       7A    -11.250293     8A    -11.233759     9A    -11.228558
      10A    -11.217355    11A     -9.178390    12A     -6.863840
      13A     -6.862430    14A     -6.862209    15A     -1.481574
      16A     -1.376203    17A     -1.339478    18A     -1.119287
      19A     -1.051949    20A     -0.995479    21A     -0.941200
      22A     -0.877322    23A     -0.831419    24A     -0.787327
      25A     -0.725333    26A     -0.693738    27A     -0.690315
      28A     -0.656806    29A     -0.635245    30A     -0.615236
      31A     -0.607008    32A     -0.585889    33A     -0.567757
      34A     -0.559357    35A     -0.554583    36A     -0.542853
      37A     -0.537872    38A     -0.509413    39A     -0.500884
      40A     -0.497545    41A     -0.489592    42A     -0.486499
      43A     -0.481889    44A     -0.464585    45A     -0.452059

  @DF-RHF Final Energy:  -857.62577129658519

   => Energetics <=

    Nuclear Repulsion Energy =            722.7208269468890194
    One-Electron Energy =               -2612.9500147734061102
    Two-Electron Energy =                1032.6034165299317920
    Total Energy =                       -857.6257712965852988
  Basis Set: (AUG-CC-PVTZ AUX)
    Blend: AUG-CC-PVTZ-RI
    Molecular point group: c1

    Geometry (in Angstrom), charge = 0, multiplicity = 1:

       Center              X                  Y                   Z               Mass
    ------------   -----------------  -----------------  -----------------  -----------------
         S           -0.267103464639    -0.400838790156     0.150668620770    31.972071174400
         O           -1.538232464639     0.602597209844    -0.115904379230    15.994914619570
         O           -0.284921664639    -1.463704890156    -0.856734479230    15.994914619570
         O           -0.188418464639    -0.719847790156     1.577199620770    15.994914619570
         C            2.389723535361     0.336283209844     0.207176620770    12.000000000000
         C            1.001700535361     0.783586209844    -0.257512379230    12.000000000000
         C            2.865587535361    -0.929656790156    -0.504041379230    12.000000000000
         C            3.368582535361     1.489092209844    -0.017211379230    12.000000000000
         C           -2.831380464639    -0.078055790156    -0.116820379230    12.000000000000
         C           -3.874613464639     1.005179209844    -0.256578379230    12.000000000000
         H            2.325895535361     0.135903209844     1.283258620770     1.007825032230
         H            0.959629535361     0.925653209844    -1.342041379230     1.007825032230
         H            0.702051535361     1.713144209844     0.235476620770     1.007825032230
         H            2.896700535361    -0.770797790156    -1.587467379230     1.007825032230
         H            2.215420535361    -1.785013790156    -0.309717379230     1.007825032230
         H            3.875389535361    -1.186494790156    -0.170471379230     1.007825032230
         H            3.445666535361     1.729239209844    -1.083081379230     1.007825032230
         H            3.055822535361     2.392275209844     0.515919620770     1.007825032230
         H            4.366031535361     1.214369209844     0.338124620770     1.007825032230
         H           -2.850827464639    -0.784444790156    -0.950444379230     1.007825032230
         H           -2.939914464639    -0.626682790156     0.823660620770     1.007825032230
         H           -3.818999464639     1.699986209844     0.583526620770     1.007825032230
         H           -3.725898464639     1.560251209844    -1.185026379230     1.007825032230
         H           -4.871485464639     0.555370209844    -0.274519379230     1.007825032230

  Basis Set: AUG-CC-PVTZ
    Blend: AUG-CC-PVTZ
  Basis Set: (AUG-CC-PVTZ AUX)
    Blend: AUG-CC-PVTZ-JKFIT
	 Reference Energy          =    -857.6257712965851852 [Eh]
	 Singles Energy            =      -0.0000000000000000 [Eh]
	 Same-Spin Energy          =      -0.5254051019909983 [Eh]
	 Opposite-Spin Energy      =      -1.6810887351227253 [Eh]
	 Correlation Energy        =      -2.2064938371137237 [Eh]
	 Total Energy              =    -859.8322651336989111 [Eh]

	 ================> DF-SCS-MP2 Energies <==================
	-----------------------------------------------------------
	 SCS Same-Spin Scale       =       0.3333333333333333 [-]
	 SCS Opposite-Spin Scale   =       1.2000000000000000 [-]
	 SCS Same-Spin Energy      =      -0.1751350339969994 [Eh]
	 SCS Opposite-Spin Energy  =      -2.0173064821472702 [Eh]
	 SCS Correlation Energy    =      -2.1924415161442696 [Eh]
	 SCS Total Energy          =    -859.8182128127294845 [Eh]
	-----------------------------------------------------------

  Dipole Moment: [D]
     X:    -0.2028      Y:     2.6477      Z:    -0.9852     Total:     2.8323

*** Psi4 exiting successfully. Buy a developer a beer!
