                               Psi4 1.4a3.dev225

  ==> Input File <==

--------------------------------------------------------------------------
#psi4
#
memory 32 gb

molecule  {
0 1
  S       -0.2946600    -0.4360860     0.1655790
  O       -1.5657890     0.5673500    -0.1009940
  O       -0.3508230    -1.5212030    -0.8163730
  O       -0.2159750    -0.7550950     1.5921100
  C        2.3621670     0.3010360     0.2220870
  C        0.9741440     0.7483390    -0.2426020
  C        2.8380310    -0.9649040    -0.4891310
  C        3.3410260     1.4538450    -0.0023010
  C       -2.8589370    -0.1133030    -0.1019100
  C       -3.9021700     0.9699320    -0.2416680
  H        2.2983390     0.1006560     1.2981690
  H        0.9320730     0.8904060    -1.3271310
  H        0.6744950     1.6778970     0.2503870
  H        2.8691440    -0.8060450    -1.5725570
  H        2.1878640    -1.8202610    -0.2948070
  H        3.8478330    -1.2217420    -0.1555610
  H        3.4040346     1.6501417    -0.8735456
  H        3.0282660     2.3570280     0.5308300
  H        4.3384750     1.1791220     0.3530350
  H       -2.8783840    -0.8196920    -0.9355340
  H       -2.9674710    -0.6619300     0.8385710
  H       -3.8465560     1.6647390     0.5984370
  H       -3.7534550     1.5250040    -1.1701160
  H       -4.8990420     0.5201230    -0.2596090
units angstrom
no_reorient  #important for SAPT in psi4, default
symmetry c1  #important for SAPT in psi4, default
}

set PROPERTIES_ORIGIN ["COM"]
properties('MP2/aug-cc-pvtz', properties = ['dipole'])
--------------------------------------------------------------------------

    Molecular point group: c1
  Charge       = 0
  Multiplicity = 1
  Basis Set: AUG-CC-PVTZ
    Blend: AUG-CC-PVTZ
  Basis Set: (AUG-CC-PVTZ AUX)
    Blend: AUG-CC-PVTZ-JKFIT

    Orbital Energies [Eh]
    ---------------------

    Doubly Occupied:

       1A    -92.213642     2A    -20.614749     3A    -20.553513
       4A    -20.553311     5A    -11.301807     6A    -11.277906
       7A    -11.249559     8A    -11.232964     9A    -11.218424
      10A    -11.204253    11A     -9.177887    12A     -6.863343
      13A     -6.861898    14A     -6.861721    15A     -1.480843
      16A     -1.374907    17A     -1.337204    18A     -1.123508
      19A     -1.052501    20A     -1.002437    21A     -0.955462
      22A     -0.878794    23A     -0.832920    24A     -0.793810
      25A     -0.725294    26A     -0.692707    27A     -0.691013
      28A     -0.658008    29A     -0.639916    30A     -0.617047
      31A     -0.606633    32A     -0.592444    33A     -0.576912
      34A     -0.564380    35A     -0.557060    36A     -0.545809
      37A     -0.537033    38A     -0.509300    39A     -0.499789
      40A     -0.497020    41A     -0.489610    42A     -0.486066
      43A     -0.484986    44A     -0.463146    45A     -0.452932

  @DF-RHF Final Energy:  -857.59262012023351

   => Energetics <=

    Nuclear Repulsion Energy =            723.5612705413878984
    One-Electron Energy =               -2614.4988451765857462
    Two-Electron Energy =                1033.3449545149644564
    Total Energy =                       -857.5926201202335051
  Basis Set: (AUG-CC-PVTZ AUX)
    Blend: AUG-CC-PVTZ-RI
    Molecular point group: c1

    Geometry (in Angstrom), charge = 0, multiplicity = 1:

       Center              X                  Y                   Z               Mass
    ------------   -----------------  -----------------  -----------------  -----------------
         S           -0.263324810601    -0.398429544463     0.147036118067    31.972071174400
         O           -1.534453810601     0.605006455537    -0.119536881933    15.994914619570
         O           -0.319487810601    -1.483546544463    -0.834915881933    15.994914619570
         O           -0.184639810601    -0.717438544463     1.573567118067    15.994914619570
         C            2.393502189399     0.338692455537     0.203544118067    12.000000000000
         C            1.005479189399     0.785995455537    -0.261144881933    12.000000000000
         C            2.869366189399    -0.927247544463    -0.507673881933    12.000000000000
         C            3.372361189399     1.491501455537    -0.020843881933    12.000000000000
         C           -2.827601810601    -0.075646544463    -0.120452881933    12.000000000000
         C           -3.870834810601     1.007588455537    -0.260210881933    12.000000000000
         H            2.329674189399     0.138312455537     1.279626118067     1.007825032230
         H            0.963408189399     0.928062455537    -1.345673881933     1.007825032230
         H            0.705830189399     1.715553455537     0.231844118067     1.007825032230
         H            2.900479189399    -0.768388544463    -1.591099881933     1.007825032230
         H            2.219199189399    -1.782604544463    -0.313349881933     1.007825032230
         H            3.879168189399    -1.184085544463    -0.174103881933     1.007825032230
         H            3.435369789399     1.687798155537    -0.892088481933     1.007825032230
         H            3.059601189399     2.394684455537     0.512287118067     1.007825032230
         H            4.369810189399     1.216778455537     0.334492118067     1.007825032230
         H           -2.847048810601    -0.782035544463    -0.954076881933     1.007825032230
         H           -2.936135810601    -0.624273544463     0.820028118067     1.007825032230
         H           -3.815220810601     1.702395455537     0.579894118067     1.007825032230
         H           -3.722119810601     1.562660455537    -1.188658881933     1.007825032230
         H           -4.867706810601     0.557779455537    -0.278151881933     1.007825032230

  Basis Set: AUG-CC-PVTZ
    Blend: AUG-CC-PVTZ
  Basis Set: (AUG-CC-PVTZ AUX)
    Blend: AUG-CC-PVTZ-JKFIT
	 Reference Energy          =    -857.5926201202335051 [Eh]
	 Singles Energy            =      -0.0000000000000000 [Eh]
	 Same-Spin Energy          =      -0.5254097948619562 [Eh]
	 Opposite-Spin Energy      =      -1.6802610823459310 [Eh]
	 Correlation Energy        =      -2.2056708772078872 [Eh]
	 Total Energy              =    -859.7982909974414270 [Eh]

	 ================> DF-SCS-MP2 Energies <==================
	-----------------------------------------------------------
	 SCS Same-Spin Scale       =       0.3333333333333333 [-]
	 SCS Opposite-Spin Scale   =       1.2000000000000000 [-]
	 SCS Same-Spin Energy      =      -0.1751365982873187 [Eh]
	 SCS Opposite-Spin Energy  =      -2.0163132988151169 [Eh]
	 SCS Correlation Energy    =      -2.1914498971024354 [Eh]
	 SCS Total Energy          =    -859.7840700173359210 [Eh]
	-----------------------------------------------------------

  Dipole Moment: [D]
     X:    -0.0438      Y:     2.7446      Z:    -1.1224     Total:     2.9656

*** Psi4 exiting successfully. Buy a developer a beer!
