                               Psi4 1.4a3.dev225

  ==> Input File <==

--------------------------------------------------------------------------
#psi4
#
memory 32 gb

molecule  {
0 1
  S       -0.2946600    -0.4360860     0.1655790
  O       -1.5657890     0.5673500    -0.1009940
  O       -0.3508230    -1.5212030    -0.8163730
  O       -0.2159750    -0.7550950     1.5921100
  C        2.3621670     0.3010360     0.2220870
  C        0.9741440     0.7483390    -0.2426020
  C        2.8380310    -0.9649040    -0.4891310
  C        3.3410260     1.4538450    -0.0023010
  C       -2.8589370    -0.1133030    -0.1019100
  C       -3.9021700     0.9699320    -0.2416680
  H        2.2983390     0.1006560     1.2981690
  H        0.9320730     0.8904060    -1.3271310
  H        0.6744950     1.6778970     0.2503870
  H        2.8691440    -0.8060450    -1.5725570
  H        2.1878640    -1.8202610    -0.2948070
  H        3.8478330    -1.2217420    -0.1555610
  H        3.4181100     1.6939920    -1.0681710
  H        3.0282660     2.3570280     0.5308300
  H        4.3384750     1.1791220     0.3530350
  H       -2.8783840    -0.8196920    -0.9355340
  H       -2.9674710    -0.6619300     0.8385710
  H       -3.8652772     1.5747583     0.6663244
  H       -3.7534550     1.5250040    -1.1701160
  H       -4.8990420     0.5201230    -0.2596090
units angstrom
no_reorient  #important for SAPT in psi4, default
symmetry c1  #important for SAPT in psi4, default
}

set PROPERTIES_ORIGIN ["COM"]
properties('MP2/aug-cc-pvtz', properties = ['dipole'])
--------------------------------------------------------------------------

    Molecular point group: c1
  Charge       = 0
  Multiplicity = 1
  Basis Set: AUG-CC-PVTZ
    Blend: AUG-CC-PVTZ
  Basis Set: (AUG-CC-PVTZ AUX)
    Blend: AUG-CC-PVTZ-JKFIT

    Orbital Energies [Eh]
    ---------------------

    Doubly Occupied:

       1A    -92.213742     2A    -20.614727     3A    -20.553532
       4A    -20.553483     5A    -11.301118     6A    -11.278044
       7A    -11.251433     8A    -11.233335     9A    -11.229475
      10A    -11.218564    11A     -9.177989    12A     -6.863444
      13A     -6.861999    14A     -6.861825    15A     -1.480916
      16A     -1.374960    17A     -1.337320    18A     -1.120877
      19A     -1.052129    20A     -0.996887    21A     -0.942290
      22A     -0.876391    23A     -0.829904    24A     -0.787975
      25A     -0.725146    26A     -0.693765    27A     -0.690248
      28A     -0.657717    29A     -0.635563    30A     -0.615924
      31A     -0.604946    32A     -0.586621    33A     -0.569757
      34A     -0.561994    35A     -0.554106    36A     -0.543092
      37A     -0.532511    38A     -0.509932    39A     -0.498982
      40A     -0.497882    41A     -0.490564    42A     -0.485454
      43A     -0.482531    44A     -0.463237    45A     -0.453564

  @DF-RHF Final Energy:  -857.62514484486201

   => Energetics <=

    Nuclear Repulsion Energy =            722.6286047857939820
    One-Electron Energy =               -2612.7756997417341154
    Two-Electron Energy =                1032.5219501110782403
    Total Energy =                       -857.6251448448620067
  Basis Set: (AUG-CC-PVTZ AUX)
    Blend: AUG-CC-PVTZ-RI
    Molecular point group: c1

    Geometry (in Angstrom), charge = 0, multiplicity = 1:

       Center              X                  Y                   Z               Mass
    ------------   -----------------  -----------------  -----------------  -----------------
         S           -0.263296616129    -0.398149587882     0.147805266766    31.972071174400
         O           -1.534425616129     0.605286412118    -0.118767733234    15.994914619570
         O           -0.319459616129    -1.483266587882    -0.834146733234    15.994914619570
         O           -0.184611616129    -0.717158587882     1.574336266766    15.994914619570
         C            2.393530383871     0.338972412118     0.204313266766    12.000000000000
         C            1.005507383871     0.786275412118    -0.260375733234    12.000000000000
         C            2.869394383871    -0.926967587882    -0.506904733234    12.000000000000
         C            3.372389383871     1.491781412118    -0.020074733234    12.000000000000
         C           -2.827573616129    -0.075366587882    -0.119683733234    12.000000000000
         C           -3.870806616129     1.007868412118    -0.259441733234    12.000000000000
         H            2.329702383871     0.138592412118     1.280395266766     1.007825032230
         H            0.963436383871     0.928342412118    -1.344904733234     1.007825032230
         H            0.705858383871     1.715833412118     0.232613266766     1.007825032230
         H            2.900507383871    -0.768108587882    -1.590330733234     1.007825032230
         H            2.219227383871    -1.782324587882    -0.312580733234     1.007825032230
         H            3.879196383871    -1.183805587882    -0.173334733234     1.007825032230
         H            3.449473383871     1.731928412118    -1.085944733234     1.007825032230
         H            3.059629383871     2.394964412118     0.513056266766     1.007825032230
         H            4.369838383871     1.217058412118     0.335261266766     1.007825032230
         H           -2.847020616129    -0.781755587882    -0.953307733234     1.007825032230
         H           -2.936107616129    -0.623993587882     0.820797266766     1.007825032230
         H           -3.833913816129     1.612694712118     0.648550666766     1.007825032230
         H           -3.722091616129     1.562940412118    -1.187889733234     1.007825032230
         H           -4.867678616129     0.558059412118    -0.277382733234     1.007825032230

  Basis Set: AUG-CC-PVTZ
    Blend: AUG-CC-PVTZ
  Basis Set: (AUG-CC-PVTZ AUX)
    Blend: AUG-CC-PVTZ-JKFIT
	 Reference Energy          =    -857.6251448448620067 [Eh]
	 Singles Energy            =      -0.0000000000000000 [Eh]
	 Same-Spin Energy          =      -0.5253764356646731 [Eh]
	 Opposite-Spin Energy      =      -1.6809524607986515 [Eh]
	 Correlation Energy        =      -2.2063288964633245 [Eh]
	 Total Energy              =    -859.8314737413253397 [Eh]

	 ================> DF-SCS-MP2 Energies <==================
	-----------------------------------------------------------
	 SCS Same-Spin Scale       =       0.3333333333333333 [-]
	 SCS Opposite-Spin Scale   =       1.2000000000000000 [-]
	 SCS Same-Spin Energy      =      -0.1751254785548910 [Eh]
	 SCS Opposite-Spin Energy  =      -2.0171429529583818 [Eh]
	 SCS Correlation Energy    =      -2.1922684315132726 [Eh]
	 SCS Total Energy          =    -859.8174132763753050 [Eh]
	-----------------------------------------------------------

  Dipole Moment: [D]
     X:    -0.0889      Y:     2.6862      Z:    -1.0339     Total:     2.8796

*** Psi4 exiting successfully. Buy a developer a beer!
