                               Psi4 1.4a3.dev225

  ==> Input File <==

--------------------------------------------------------------------------
#psi4
#
memory 32 gb

molecule  {
0 1
  S       -0.2946600    -0.4360860     0.1655790
  O       -1.6045133     0.5979192    -0.1091150
  O       -0.3508230    -1.5212030    -0.8163730
  O       -0.2159750    -0.7550950     1.5921100
  C        2.3621670     0.3010360     0.2220870
  C        0.9741440     0.7483390    -0.2426020
  C        2.8380310    -0.9649040    -0.4891310
  C        3.3410260     1.4538450    -0.0023010
  C       -2.8589370    -0.1133030    -0.1019100
  C       -3.9021700     0.9699320    -0.2416680
  H        2.2983390     0.1006560     1.2981690
  H        0.9320730     0.8904060    -1.3271310
  H        0.6744950     1.6778970     0.2503870
  H        2.8691440    -0.8060450    -1.5725570
  H        2.1878640    -1.8202610    -0.2948070
  H        3.8478330    -1.2217420    -0.1555610
  H        3.4181100     1.6939920    -1.0681710
  H        3.0282660     2.3570280     0.5308300
  H        4.3384750     1.1791220     0.3530350
  H       -2.8783840    -0.8196920    -0.9355340
  H       -2.9674710    -0.6619300     0.8385710
  H       -3.8465560     1.6647390     0.5984370
  H       -3.7534550     1.5250040    -1.1701160
  H       -4.8990420     0.5201230    -0.2596090
units angstrom
no_reorient  #important for SAPT in psi4, default
symmetry c1  #important for SAPT in psi4, default
}

set PROPERTIES_ORIGIN ["COM"]
properties('MP2/aug-cc-pvtz', properties = ['dipole'])
--------------------------------------------------------------------------

    Molecular point group: c1
  Charge       = 0
  Multiplicity = 1
  Basis Set: AUG-CC-PVTZ
    Blend: AUG-CC-PVTZ
  Basis Set: (AUG-CC-PVTZ AUX)
    Blend: AUG-CC-PVTZ-JKFIT

    Orbital Energies [Eh]
    ---------------------

    Doubly Occupied:

       1A    -92.216703     2A    -20.613642     3A    -20.558648
       4A    -20.558488     5A    -11.295701     6A    -11.281109
       7A    -11.253627     8A    -11.231063     9A    -11.228807
      10A    -11.220319    11A     -9.180977    12A     -6.866286
      13A     -6.864871    14A     -6.864745    15A     -1.475557
      16A     -1.374437    17A     -1.340967    18A     -1.122958
      19A     -1.045933    20A     -0.997522    21A     -0.943993
      22A     -0.872010    23A     -0.832629    24A     -0.789001
      25A     -0.724292    26A     -0.690766    27A     -0.689982
      28A     -0.658269    29A     -0.636397    30A     -0.616791
      31A     -0.607750    32A     -0.588601    33A     -0.565575
      34A     -0.557534    35A     -0.552677    36A     -0.544916
      37A     -0.536534    38A     -0.512369    39A     -0.496767
      40A     -0.496620    41A     -0.492307    42A     -0.486262
      43A     -0.483871    44A     -0.465372    45A     -0.454112

  @DF-RHF Final Energy:  -857.62063626412487

   => Energetics <=

    Nuclear Repulsion Energy =            721.0640074744455887
    One-Electron Energy =               -2609.5937772582969956
    Two-Electron Energy =                1030.9091335197265380
    Total Energy =                       -857.6206362641248688
  Basis Set: (AUG-CC-PVTZ AUX)
    Blend: AUG-CC-PVTZ-RI
    Molecular point group: c1

    Geometry (in Angstrom), charge = 0, multiplicity = 1:

       Center              X                  Y                   Z               Mass
    ------------   -----------------  -----------------  -----------------  -----------------
         S           -0.259680446313    -0.401639978872     0.148999447912    31.972071174400
         O           -1.569533746313     0.632365221128    -0.125694552088    15.994914619570
         O           -0.315843446313    -1.486756978872    -0.832952552088    15.994914619570
         O           -0.180995446313    -0.720648978872     1.575530447912    15.994914619570
         C            2.397146553687     0.335482021128     0.205507447912    12.000000000000
         C            1.009123553687     0.782785021128    -0.259181552088    12.000000000000
         C            2.873010553687    -0.930457978872    -0.505710552088    12.000000000000
         C            3.376005553687     1.488291021128    -0.018880552088    12.000000000000
         C           -2.823957446313    -0.078856978872    -0.118489552088    12.000000000000
         C           -3.867190446313     1.004378021128    -0.258247552088    12.000000000000
         H            2.333318553687     0.135102021128     1.281589447912     1.007825032230
         H            0.967052553687     0.924852021128    -1.343710552088     1.007825032230
         H            0.709474553687     1.712343021128     0.233807447912     1.007825032230
         H            2.904123553687    -0.771598978872    -1.589136552088     1.007825032230
         H            2.222843553687    -1.785814978872    -0.311386552088     1.007825032230
         H            3.882812553687    -1.187295978872    -0.172140552088     1.007825032230
         H            3.453089553687     1.728438021128    -1.084750552088     1.007825032230
         H            3.063245553687     2.391474021128     0.514250447912     1.007825032230
         H            4.373454553687     1.213568021128     0.336455447912     1.007825032230
         H           -2.843404446313    -0.785245978872    -0.952113552088     1.007825032230
         H           -2.932491446313    -0.627483978872     0.821991447912     1.007825032230
         H           -3.811576446313     1.699185021128     0.581857447912     1.007825032230
         H           -3.718475446313     1.559450021128    -1.186695552088     1.007825032230
         H           -4.864062446313     0.554569021128    -0.276188552088     1.007825032230

  Basis Set: AUG-CC-PVTZ
    Blend: AUG-CC-PVTZ
  Basis Set: (AUG-CC-PVTZ AUX)
    Blend: AUG-CC-PVTZ-JKFIT
	 Reference Energy          =    -857.6206362641248688 [Eh]
	 Singles Energy            =      -0.0000000000000000 [Eh]
	 Same-Spin Energy          =      -0.5262910977117919 [Eh]
	 Opposite-Spin Energy      =      -1.6832752349666755 [Eh]
	 Correlation Energy        =      -2.2095663326784676 [Eh]
	 Total Energy              =    -859.8302025968033604 [Eh]

	 ================> DF-SCS-MP2 Energies <==================
	-----------------------------------------------------------
	 SCS Same-Spin Scale       =       0.3333333333333333 [-]
	 SCS Opposite-Spin Scale   =       1.2000000000000000 [-]
	 SCS Same-Spin Energy      =      -0.1754303659039306 [Eh]
	 SCS Opposite-Spin Energy  =      -2.0199302819600105 [Eh]
	 SCS Correlation Energy    =      -2.1953606478639411 [Eh]
	 SCS Total Energy          =    -859.8159969119888046 [Eh]
	-----------------------------------------------------------

  Dipole Moment: [D]
     X:     0.3395      Y:     2.5775      Z:    -0.9987     Total:     2.7850

*** Psi4 exiting successfully. Buy a developer a beer!
