                               Psi4 1.4a3.dev225

  ==> Input File <==

--------------------------------------------------------------------------
#psi4
#
memory 32 gb

molecule  {
0 1
  S       -0.2946600    -0.4360860     0.1655790
  O       -1.5305139     0.4833101    -0.2238361
  O       -0.3508230    -1.5212030    -0.8163730
  O       -0.2159750    -0.7550950     1.5921100
  C        2.3621670     0.3010360     0.2220870
  C        0.9741440     0.7483390    -0.2426020
  C        2.8380310    -0.9649040    -0.4891310
  C        3.3410260     1.4538450    -0.0023010
  C       -2.8589370    -0.1133030    -0.1019100
  C       -3.9021700     0.9699320    -0.2416680
  H        2.2983390     0.1006560     1.2981690
  H        0.9320730     0.8904060    -1.3271310
  H        0.6744950     1.6778970     0.2503870
  H        2.8691440    -0.8060450    -1.5725570
  H        2.1878640    -1.8202610    -0.2948070
  H        3.8478330    -1.2217420    -0.1555610
  H        3.4181100     1.6939920    -1.0681710
  H        3.0282660     2.3570280     0.5308300
  H        4.3384750     1.1791220     0.3530350
  H       -2.8783840    -0.8196920    -0.9355340
  H       -2.9674710    -0.6619300     0.8385710
  H       -3.8465560     1.6647390     0.5984370
  H       -3.7534550     1.5250040    -1.1701160
  H       -4.8990420     0.5201230    -0.2596090
units angstrom
no_reorient  #important for SAPT in psi4, default
symmetry c1  #important for SAPT in psi4, default
}

set PROPERTIES_ORIGIN ["COM"]
properties('MP2/aug-cc-pvtz', properties = ['dipole'])
--------------------------------------------------------------------------

    Molecular point group: c1
  Charge       = 0
  Multiplicity = 1
  Basis Set: AUG-CC-PVTZ
    Blend: AUG-CC-PVTZ
  Basis Set: (AUG-CC-PVTZ AUX)
    Blend: AUG-CC-PVTZ-JKFIT

    Orbital Energies [Eh]
    ---------------------

    Doubly Occupied:

       1A    -92.211046     2A    -20.614817     3A    -20.555676
       4A    -20.540741     5A    -11.306044     6A    -11.275955
       7A    -11.249961     8A    -11.237005     9A    -11.228410
      10A    -11.216830    11A     -9.175394    12A     -6.861058
      13A     -6.859513    14A     -6.859229    15A     -1.491692
      16A     -1.379231    17A     -1.332481    18A     -1.119593
      19A     -1.057644    20A     -0.996199    21A     -0.940859
      22A     -0.885663    23A     -0.826999    24A     -0.788042
      25A     -0.728282    26A     -0.698631    27A     -0.690300
      28A     -0.657996    29A     -0.632109    30A     -0.616582
      31A     -0.606794    32A     -0.585222    33A     -0.573213
      34A     -0.561544    35A     -0.554537    36A     -0.542049
      37A     -0.537819    38A     -0.507687    39A     -0.499614
      40A     -0.498409    41A     -0.490388    42A     -0.483572
      43A     -0.481595    44A     -0.457609    45A     -0.451299

  @DF-RHF Final Energy:  -857.62663731231919

   => Energetics <=

    Nuclear Repulsion Energy =            724.5812798224857261
    One-Electron Energy =               -2616.6851769437894291
    Two-Electron Energy =                1034.4772598089846269
    Total Energy =                       -857.6266373123191897
  Basis Set: (AUG-CC-PVTZ AUX)
    Blend: AUG-CC-PVTZ-RI
    Molecular point group: c1

    Geometry (in Angstrom), charge = 0, multiplicity = 1:

       Center              X                  Y                   Z               Mass
    ------------   -----------------  -----------------  -----------------  -----------------
         S           -0.266807802184    -0.390601242860     0.160048971362    31.972071174400
         O           -1.502661702184     0.528794857140    -0.229366128638    15.994914619570
         O           -0.322970802184    -1.475718242860    -0.821903028638    15.994914619570
         O           -0.188122802184    -0.709610242860     1.586579971362    15.994914619570
         C            2.390019197816     0.346520757140     0.216556971362    12.000000000000
         C            1.001996197816     0.793823757140    -0.248132028638    12.000000000000
         C            2.865883197816    -0.919419242860    -0.494661028638    12.000000000000
         C            3.368878197816     1.499329757140    -0.007831028638    12.000000000000
         C           -2.831084802184    -0.067818242860    -0.107440028638    12.000000000000
         C           -3.874317802184     1.015416757140    -0.247198028638    12.000000000000
         H            2.326191197816     0.146140757140     1.292638971362     1.007825032230
         H            0.959925197816     0.935890757140    -1.332661028638     1.007825032230
         H            0.702347197816     1.723381757140     0.244856971362     1.007825032230
         H            2.896996197816    -0.760560242860    -1.578087028638     1.007825032230
         H            2.215716197816    -1.774776242860    -0.300337028638     1.007825032230
         H            3.875685197816    -1.176257242860    -0.161091028638     1.007825032230
         H            3.445962197816     1.739476757140    -1.073701028638     1.007825032230
         H            3.056118197816     2.402512757140     0.525299971362     1.007825032230
         H            4.366327197816     1.224606757140     0.347504971362     1.007825032230
         H           -2.850531802184    -0.774207242860    -0.941064028638     1.007825032230
         H           -2.939618802184    -0.616445242860     0.833040971362     1.007825032230
         H           -3.818703802184     1.710223757140     0.592906971362     1.007825032230
         H           -3.725602802184     1.570488757140    -1.175646028638     1.007825032230
         H           -4.871189802184     0.565607757140    -0.265139028638     1.007825032230

  Basis Set: AUG-CC-PVTZ
    Blend: AUG-CC-PVTZ
  Basis Set: (AUG-CC-PVTZ AUX)
    Blend: AUG-CC-PVTZ-JKFIT
	 Reference Energy          =    -857.6266373123191897 [Eh]
	 Singles Energy            =      -0.0000000000000000 [Eh]
	 Same-Spin Energy          =      -0.5242984006390636 [Eh]
	 Opposite-Spin Energy      =      -1.6780576485490424 [Eh]
	 Correlation Energy        =      -2.2023560491881060 [Eh]
	 Total Energy              =    -859.8289933615072869 [Eh]

	 ================> DF-SCS-MP2 Energies <==================
	-----------------------------------------------------------
	 SCS Same-Spin Scale       =       0.3333333333333333 [-]
	 SCS Opposite-Spin Scale   =       1.2000000000000000 [-]
	 SCS Same-Spin Energy      =      -0.1747661335463545 [Eh]
	 SCS Opposite-Spin Energy  =      -2.0136691782588509 [Eh]
	 SCS Correlation Energy    =      -2.1884353118052053 [Eh]
	 SCS Total Energy          =    -859.8150726241243547 [Eh]
	-----------------------------------------------------------

  Dipole Moment: [D]
     X:    -0.4156      Y:     2.9635      Z:    -0.8223     Total:     3.1034

*** Psi4 exiting successfully. Buy a developer a beer!
