                               Psi4 1.4a3.dev225

  ==> Input File <==

--------------------------------------------------------------------------
#psi4
#
memory 32 gb

molecule  {
0 1
  S       -0.2946600    -0.4360860     0.1655790
  O       -1.5657890     0.5673500    -0.1009940
  O       -0.3508230    -1.5212030    -0.8163730
  O       -0.2159750    -0.7550950     1.5921100
  C        2.3621670     0.3010360     0.2220870
  C        1.0453024     0.8147652    -0.2654940
  C        2.8380310    -0.9649040    -0.4891310
  C        3.3410260     1.4538450    -0.0023010
  C       -2.8589370    -0.1133030    -0.1019100
  C       -3.9021700     0.9699320    -0.2416680
  H        2.2983390     0.1006560     1.2981690
  H        0.9320730     0.8904060    -1.3271310
  H        0.6744950     1.6778970     0.2503870
  H        2.8691440    -0.8060450    -1.5725570
  H        2.1878640    -1.8202610    -0.2948070
  H        3.8478330    -1.2217420    -0.1555610
  H        3.4181100     1.6939920    -1.0681710
  H        3.0282660     2.3570280     0.5308300
  H        4.3384750     1.1791220     0.3530350
  H       -2.8783840    -0.8196920    -0.9355340
  H       -2.9674710    -0.6619300     0.8385710
  H       -3.8465560     1.6647390     0.5984370
  H       -3.7534550     1.5250040    -1.1701160
  H       -4.8990420     0.5201230    -0.2596090
units angstrom
no_reorient  #important for SAPT in psi4, default
symmetry c1  #important for SAPT in psi4, default
}

set PROPERTIES_ORIGIN ["COM"]
properties('MP2/aug-cc-pvtz', properties = ['dipole'])
--------------------------------------------------------------------------

    Molecular point group: c1
  Charge       = 0
  Multiplicity = 1
  Basis Set: AUG-CC-PVTZ
    Blend: AUG-CC-PVTZ
  Basis Set: (AUG-CC-PVTZ AUX)
    Blend: AUG-CC-PVTZ-JKFIT

    Orbital Energies [Eh]
    ---------------------

    Doubly Occupied:

       1A    -92.208094     2A    -20.613573     3A    -20.551987
       4A    -20.551854     5A    -11.300969     6A    -11.282575
       7A    -11.249347     8A    -11.232429     9A    -11.229337
      10A    -11.220094    11A     -9.172351    12A     -6.857665
      13A     -6.856113    14A     -6.856046    15A     -1.477034
      16A     -1.372990    17A     -1.334956    18A     -1.125113
      19A     -1.048716    20A     -0.988334    21A     -0.943901
      22A     -0.877662    23A     -0.828445    24A     -0.792713
      25A     -0.718728    26A     -0.691718    27A     -0.689607
      28A     -0.659914    29A     -0.636431    30A     -0.619329
      31A     -0.605804    32A     -0.590875    33A     -0.566849
      34A     -0.559066    35A     -0.554125    36A     -0.544755
      37A     -0.536465    38A     -0.511188    39A     -0.502170
      40A     -0.498549    41A     -0.491803    42A     -0.487088
      43A     -0.482914    44A     -0.461805    45A     -0.435421

  @DF-RHF Final Energy:  -857.61962646589257

   => Energetics <=

    Nuclear Repulsion Energy =            720.7796377656968616
    One-Electron Energy =               -2609.1647283793736278
    Two-Electron Energy =                1030.7654641477840869
    Total Energy =                       -857.6196264658926793
  Basis Set: (AUG-CC-PVTZ AUX)
    Blend: AUG-CC-PVTZ-RI
    Molecular point group: c1

    Geometry (in Angstrom), charge = 0, multiplicity = 1:

       Center              X                  Y                   Z               Mass
    ------------   -----------------  -----------------  -----------------  -----------------
         S           -0.268552156536    -0.403495638537     0.149871444466    31.972071174400
         O           -1.539681156536     0.599940361463    -0.116701555534    15.994914619570
         O           -0.324715156536    -1.488612638537    -0.832080555534    15.994914619570
         O           -0.189867156536    -0.722504638537     1.576402444466    15.994914619570
         C            2.388274843464     0.333626361463     0.206379444466    12.000000000000
         C            1.071410243464     0.847355561463    -0.281201555534    12.000000000000
         C            2.864138843464    -0.932313638537    -0.504838555534    12.000000000000
         C            3.367133843464     1.486435361463    -0.018008555534    12.000000000000
         C           -2.832829156536    -0.080712638537    -0.117617555534    12.000000000000
         C           -3.876062156536     1.002522361463    -0.257375555534    12.000000000000
         H            2.324446843464     0.133246361463     1.282461444466     1.007825032230
         H            0.958180843464     0.922996361463    -1.342838555534     1.007825032230
         H            0.700602843464     1.710487361463     0.234679444466     1.007825032230
         H            2.895251843464    -0.773454638537    -1.588264555534     1.007825032230
         H            2.213971843464    -1.787670638537    -0.310514555534     1.007825032230
         H            3.873940843464    -1.189151638537    -0.171268555534     1.007825032230
         H            3.444217843464     1.726582361463    -1.083878555534     1.007825032230
         H            3.054373843464     2.389618361463     0.515122444466     1.007825032230
         H            4.364582843464     1.211712361463     0.337327444466     1.007825032230
         H           -2.852276156536    -0.787101638537    -0.951241555534     1.007825032230
         H           -2.941363156536    -0.629339638537     0.822863444466     1.007825032230
         H           -3.820448156536     1.697329361463     0.582729444466     1.007825032230
         H           -3.727347156536     1.557594361463    -1.185823555534     1.007825032230
         H           -4.872934156536     0.552713361463    -0.275316555534     1.007825032230

  Basis Set: AUG-CC-PVTZ
    Blend: AUG-CC-PVTZ
  Basis Set: (AUG-CC-PVTZ AUX)
    Blend: AUG-CC-PVTZ-JKFIT
	 Reference Energy          =    -857.6196264658925656 [Eh]
	 Singles Energy            =      -0.0000000000000000 [Eh]
	 Same-Spin Energy          =      -0.5255582183431493 [Eh]
	 Opposite-Spin Energy      =      -1.6815947964241409 [Eh]
	 Correlation Energy        =      -2.2071530147672904 [Eh]
	 Total Energy              =    -859.8267794806598658 [Eh]

	 ================> DF-SCS-MP2 Energies <==================
	-----------------------------------------------------------
	 SCS Same-Spin Scale       =       0.3333333333333333 [-]
	 SCS Opposite-Spin Scale   =       1.2000000000000000 [-]
	 SCS Same-Spin Energy      =      -0.1751860727810498 [Eh]
	 SCS Opposite-Spin Energy  =      -2.0179137557089688 [Eh]
	 SCS Correlation Energy    =      -2.1930998284900185 [Eh]
	 SCS Total Energy          =    -859.8127262943826281 [Eh]
	-----------------------------------------------------------

  Dipole Moment: [D]
     X:    -0.0546      Y:     2.6789      Z:    -1.0408     Total:     2.8745

*** Psi4 exiting successfully. Buy a developer a beer!
