                               Psi4 1.4a3.dev225

  ==> Input File <==

--------------------------------------------------------------------------
#psi4
#
memory 32 gb

molecule  {
0 1
  S       -0.2946600    -0.4360860     0.1655790
  O       -1.5657890     0.5673500    -0.1009940
  O       -0.3508230    -1.5212030    -0.8163730
  O       -0.2159750    -0.7550950     1.5921100
  C        2.3621670     0.3010360     0.2220870
  C        0.9741440     0.7483390    -0.2426020
  C        2.8380310    -0.9649040    -0.4891310
  C        3.3410260     1.4538450    -0.0023010
  C       -2.8589370    -0.1133030    -0.1019100
  C       -3.9021700     0.9699320    -0.2416680
  H        2.2983390     0.1006560     1.2981690
  H        0.9320730     0.8904060    -1.3271310
  H        0.6744950     1.6778970     0.2503870
  H        2.8748244    -0.7770416    -1.7703613
  H        2.1878640    -1.8202610    -0.2948070
  H        3.8478330    -1.2217420    -0.1555610
  H        3.4181100     1.6939920    -1.0681710
  H        3.0282660     2.3570280     0.5308300
  H        4.3384750     1.1791220     0.3530350
  H       -2.8783840    -0.8196920    -0.9355340
  H       -2.9674710    -0.6619300     0.8385710
  H       -3.8465560     1.6647390     0.5984370
  H       -3.7534550     1.5250040    -1.1701160
  H       -4.8990420     0.5201230    -0.2596090
units angstrom
no_reorient  #important for SAPT in psi4, default
symmetry c1  #important for SAPT in psi4, default
}

set PROPERTIES_ORIGIN ["COM"]
properties('MP2/aug-cc-pvtz', properties = ['dipole'])
--------------------------------------------------------------------------

    Molecular point group: c1
  Charge       = 0
  Multiplicity = 1
  Basis Set: AUG-CC-PVTZ
    Blend: AUG-CC-PVTZ
  Basis Set: (AUG-CC-PVTZ AUX)
    Blend: AUG-CC-PVTZ-JKFIT

    Orbital Energies [Eh]
    ---------------------

    Doubly Occupied:

       1A    -92.214199     2A    -20.615177     3A    -20.554114
       4A    -20.553903     5A    -11.302099     6A    -11.278569
       7A    -11.254509     8A    -11.242180     9A    -11.233162
      10A    -11.230008    11A     -9.178452    12A     -6.863909
      13A     -6.862463    14A     -6.862289    15A     -1.481389
      16A     -1.375407    17A     -1.337805    18A     -1.120970
      19A     -1.051515    20A     -0.996017    21A     -0.935319
      22A     -0.876586    23A     -0.830395    24A     -0.784000
      25A     -0.725415    26A     -0.693125    27A     -0.690509
      28A     -0.657503    29A     -0.635072    30A     -0.617760
      31A     -0.606887    32A     -0.582887    33A     -0.567431
      34A     -0.558799    35A     -0.553474    36A     -0.537912
      37A     -0.526990    38A     -0.511142    39A     -0.500379
      40A     -0.496543    41A     -0.492685    42A     -0.485929
      43A     -0.469381    44A     -0.463457    45A     -0.454492

  @DF-RHF Final Energy:  -857.60689333089692

   => Energetics <=

    Nuclear Repulsion Energy =            721.7486546249148205
    One-Electron Energy =               -2610.9866820964462022
    Two-Electron Energy =                1031.6311341406346855
    Total Energy =                       -857.6068933308968099
  Basis Set: (AUG-CC-PVTZ AUX)
    Blend: AUG-CC-PVTZ-RI
    Molecular point group: c1

    Geometry (in Angstrom), charge = 0, multiplicity = 1:

       Center              X                  Y                   Z               Mass
    ------------   -----------------  -----------------  -----------------  -----------------
         S           -0.263444704775    -0.398871679644     0.149417698912    31.972071174400
         O           -1.534573704775     0.604564320356    -0.117155301088    15.994914619570
         O           -0.319607704775    -1.483988679644    -0.832534301088    15.994914619570
         O           -0.184759704775    -0.717880679644     1.575948698912    15.994914619570
         C            2.393382295225     0.338250320356     0.205925698912    12.000000000000
         C            1.005359295225     0.785553320356    -0.258763301088    12.000000000000
         C            2.869246295225    -0.927689679644    -0.505292301088    12.000000000000
         C            3.372241295225     1.491059320356    -0.018462301088    12.000000000000
         C           -2.827721704775    -0.076088679644    -0.118071301088    12.000000000000
         C           -3.870954704775     1.007146320356    -0.257829301088    12.000000000000
         H            2.329554295225     0.137870320356     1.282007698912     1.007825032230
         H            0.963288295225     0.927620320356    -1.343292301088     1.007825032230
         H            0.705710295225     1.715111320356     0.234225698912     1.007825032230
         H            2.906039695225    -0.739827279644    -1.786522601088     1.007825032230
         H            2.219079295225    -1.783046679644    -0.310968301088     1.007825032230
         H            3.879048295225    -1.184527679644    -0.171722301088     1.007825032230
         H            3.449325295225     1.731206320356    -1.084332301088     1.007825032230
         H            3.059481295225     2.394242320356     0.514668698912     1.007825032230
         H            4.369690295225     1.216336320356     0.336873698912     1.007825032230
         H           -2.847168704775    -0.782477679644    -0.951695301088     1.007825032230
         H           -2.936255704775    -0.624715679644     0.822409698912     1.007825032230
         H           -3.815340704775     1.701953320356     0.582275698912     1.007825032230
         H           -3.722239704775     1.562218320356    -1.186277301088     1.007825032230
         H           -4.867826704775     0.557337320356    -0.275770301088     1.007825032230

  Basis Set: AUG-CC-PVTZ
    Blend: AUG-CC-PVTZ
  Basis Set: (AUG-CC-PVTZ AUX)
    Blend: AUG-CC-PVTZ-JKFIT
	 Reference Energy          =    -857.6068933308969235 [Eh]
	 Singles Energy            =      -0.0000000000000000 [Eh]
	 Same-Spin Energy          =      -0.5252844237626279 [Eh]
	 Opposite-Spin Energy      =      -1.6823248358207310 [Eh]
	 Correlation Energy        =      -2.2076092595833590 [Eh]
	 Total Energy              =    -859.8145025904802878 [Eh]

	 ================> DF-SCS-MP2 Energies <==================
	-----------------------------------------------------------
	 SCS Same-Spin Scale       =       0.3333333333333333 [-]
	 SCS Opposite-Spin Scale   =       1.2000000000000000 [-]
	 SCS Same-Spin Energy      =      -0.1750948079208760 [Eh]
	 SCS Opposite-Spin Energy  =      -2.0187898029848772 [Eh]
	 SCS Correlation Energy    =      -2.1938846109057533 [Eh]
	 SCS Total Energy          =    -859.8007779418027212 [Eh]
	-----------------------------------------------------------

  Dipole Moment: [D]
     X:    -0.0903      Y:     2.7119      Z:    -0.9084     Total:     2.8614

*** Psi4 exiting successfully. Buy a developer a beer!
