                               Psi4 1.4a3.dev225

  ==> Input File <==

--------------------------------------------------------------------------
#psi4
#
memory 32 gb

molecule  {
0 1
  S       -0.2946600    -0.4360860     0.1655790
  O       -1.5657890     0.5673500    -0.1009940
  O       -0.3508230    -1.5212030    -0.8163730
  O       -0.2213501    -0.7333030     1.4946615
  C        2.3621670     0.3010360     0.2220870
  C        0.9741440     0.7483390    -0.2426020
  C        2.8380310    -0.9649040    -0.4891310
  C        3.3410260     1.4538450    -0.0023010
  C       -2.8589370    -0.1133030    -0.1019100
  C       -3.9021700     0.9699320    -0.2416680
  H        2.2983390     0.1006560     1.2981690
  H        0.9320730     0.8904060    -1.3271310
  H        0.6744950     1.6778970     0.2503870
  H        2.8691440    -0.8060450    -1.5725570
  H        2.1878640    -1.8202610    -0.2948070
  H        3.8478330    -1.2217420    -0.1555610
  H        3.4181100     1.6939920    -1.0681710
  H        3.0282660     2.3570280     0.5308300
  H        4.3384750     1.1791220     0.3530350
  H       -2.8783840    -0.8196920    -0.9355340
  H       -2.9674710    -0.6619300     0.8385710
  H       -3.8465560     1.6647390     0.5984370
  H       -3.7534550     1.5250040    -1.1701160
  H       -4.8990420     0.5201230    -0.2596090
units angstrom
no_reorient  #important for SAPT in psi4, default
symmetry c1  #important for SAPT in psi4, default
}

set PROPERTIES_ORIGIN ["COM"]
properties('MP2/aug-cc-pvtz', properties = ['dipole'])
--------------------------------------------------------------------------

    Molecular point group: c1
  Charge       = 0
  Multiplicity = 1
  Basis Set: AUG-CC-PVTZ
    Blend: AUG-CC-PVTZ
  Basis Set: (AUG-CC-PVTZ AUX)
    Blend: AUG-CC-PVTZ-JKFIT

    Orbital Energies [Eh]
    ---------------------

    Doubly Occupied:

       1A    -92.201746     2A    -20.606983     3A    -20.556149
       4A    -20.544612     5A    -11.299416     6A    -11.271630
       7A    -11.250249     8A    -11.231162     9A    -11.228326
      10A    -11.217568    11A     -9.169022    12A     -6.854445
      13A     -6.853722    14A     -6.852573    15A     -1.512010
      16A     -1.389777    17A     -1.347366    18A     -1.118383
      19A     -1.048373    20A     -0.993291    21A     -0.941184
      22A     -0.873595    23A     -0.825943    24A     -0.785204
      25A     -0.731872    26A     -0.699182    27A     -0.691927
      28A     -0.658205    29A     -0.640652    30A     -0.615819
      31A     -0.608615    32A     -0.587851    33A     -0.572492
      34A     -0.560955    35A     -0.553101    36A     -0.543381
      37A     -0.538627    38A     -0.509472    39A     -0.502296
      40A     -0.499951    41A     -0.492599    42A     -0.488787
      43A     -0.481870    44A     -0.464906    45A     -0.450738

  @DF-RHF Final Energy:  -857.62581214946010

   => Energetics <=

    Nuclear Repulsion Energy =            727.8169720876391011
    One-Electron Energy =               -2623.1535141311228472
    Two-Electron Energy =                1037.7107298940236433
    Total Energy =                       -857.6258121494602165
  Basis Set: (AUG-CC-PVTZ AUX)
    Blend: AUG-CC-PVTZ-RI
    Molecular point group: c1

    Geometry (in Angstrom), charge = 0, multiplicity = 1:

       Center              X                  Y                   Z               Mass
    ------------   -----------------  -----------------  -----------------  -----------------
         S           -0.262892521227    -0.400794590559     0.157603151206    31.972071174400
         O           -1.534021521227     0.602641409441    -0.108969848794    15.994914619570
         O           -0.319055521227    -1.485911590559    -0.824348848794    15.994914619570
         O           -0.189582621227    -0.698011590559     1.486685651206    15.994914619570
         C            2.393934478773     0.336327409441     0.214111151206    12.000000000000
         C            1.005911478773     0.783630409441    -0.250577848794    12.000000000000
         C            2.869798478773    -0.929612590559    -0.497106848794    12.000000000000
         C            3.372793478773     1.489136409441    -0.010276848794    12.000000000000
         C           -2.827169521227    -0.078011590559    -0.109885848794    12.000000000000
         C           -3.870402521227     1.005223409441    -0.249643848794    12.000000000000
         H            2.330106478773     0.135947409441     1.290193151206     1.007825032230
         H            0.963840478773     0.925697409441    -1.335106848794     1.007825032230
         H            0.706262478773     1.713188409441     0.242411151206     1.007825032230
         H            2.900911478773    -0.770753590559    -1.580532848794     1.007825032230
         H            2.219631478773    -1.784969590559    -0.302782848794     1.007825032230
         H            3.879600478773    -1.186450590559    -0.163536848794     1.007825032230
         H            3.449877478773     1.729283409441    -1.076146848794     1.007825032230
         H            3.060033478773     2.392319409441     0.522854151206     1.007825032230
         H            4.370242478773     1.214413409441     0.345059151206     1.007825032230
         H           -2.846616521227    -0.784400590559    -0.943509848794     1.007825032230
         H           -2.935703521227    -0.626638590559     0.830595151206     1.007825032230
         H           -3.814788521227     1.700030409441     0.590461151206     1.007825032230
         H           -3.721687521227     1.560295409441    -1.178091848794     1.007825032230
         H           -4.867274521227     0.555414409441    -0.267584848794     1.007825032230

  Basis Set: AUG-CC-PVTZ
    Blend: AUG-CC-PVTZ
  Basis Set: (AUG-CC-PVTZ AUX)
    Blend: AUG-CC-PVTZ-JKFIT
	 Reference Energy          =    -857.6258121494601028 [Eh]
	 Singles Energy            =      -0.0000000000000000 [Eh]
	 Same-Spin Energy          =      -0.5227776766257655 [Eh]
	 Opposite-Spin Energy      =      -1.6748526139843729 [Eh]
	 Correlation Energy        =      -2.1976302906101384 [Eh]
	 Total Energy              =    -859.8234424400702665 [Eh]

	 ================> DF-SCS-MP2 Energies <==================
	-----------------------------------------------------------
	 SCS Same-Spin Scale       =       0.3333333333333333 [-]
	 SCS Opposite-Spin Scale   =       1.2000000000000000 [-]
	 SCS Same-Spin Energy      =      -0.1742592255419218 [Eh]
	 SCS Opposite-Spin Energy  =      -2.0098231367812476 [Eh]
	 SCS Correlation Energy    =      -2.1840823623231693 [Eh]
	 SCS Total Energy          =    -859.8098945117832272 [Eh]
	-----------------------------------------------------------

  Dipole Moment: [D]
     X:    -0.0285      Y:     2.5684      Z:    -0.5517     Total:     2.6272

*** Psi4 exiting successfully. Buy a developer a beer!
