                               Psi4 1.4a3.dev225

  ==> Input File <==

--------------------------------------------------------------------------
#psi4
#
memory 32 gb

molecule  {
0 1
  S       -0.2259583    -0.3448291     0.1568759
  O       -1.5657890     0.5673500    -0.1009940
  O       -0.3508230    -1.5212030    -0.8163730
  O       -0.2159750    -0.7550950     1.5921100
  C        2.3621670     0.3010360     0.2220870
  C        0.9741440     0.7483390    -0.2426020
  C        2.8380310    -0.9649040    -0.4891310
  C        3.3410260     1.4538450    -0.0023010
  C       -2.8589370    -0.1133030    -0.1019100
  C       -3.9021700     0.9699320    -0.2416680
  H        2.2983390     0.1006560     1.2981690
  H        0.9320730     0.8904060    -1.3271310
  H        0.6744950     1.6778970     0.2503870
  H        2.8691440    -0.8060450    -1.5725570
  H        2.1878640    -1.8202610    -0.2948070
  H        3.8478330    -1.2217420    -0.1555610
  H        3.4181100     1.6939920    -1.0681710
  H        3.0282660     2.3570280     0.5308300
  H        4.3384750     1.1791220     0.3530350
  H       -2.8783840    -0.8196920    -0.9355340
  H       -2.9674710    -0.6619300     0.8385710
  H       -3.8465560     1.6647390     0.5984370
  H       -3.7534550     1.5250040    -1.1701160
  H       -4.8990420     0.5201230    -0.2596090
units angstrom
no_reorient  #important for SAPT in psi4, default
symmetry c1  #important for SAPT in psi4, default
}

set PROPERTIES_ORIGIN ["COM"]
properties('MP2/aug-cc-pvtz', properties = ['dipole'])
--------------------------------------------------------------------------

    Molecular point group: c1
  Charge       = 0
  Multiplicity = 1
  Basis Set: AUG-CC-PVTZ
    Blend: AUG-CC-PVTZ
  Basis Set: (AUG-CC-PVTZ AUX)
    Blend: AUG-CC-PVTZ-JKFIT

    Orbital Energies [Eh]
    ---------------------

    Doubly Occupied:

       1A    -92.216771     2A    -20.612103     3A    -20.548596
       4A    -20.539060     5A    -11.299737     6A    -11.286879
       7A    -11.262293     8A    -11.236235     9A    -11.231393
      10A    -11.222737    11A     -9.181744    12A     -6.866988
      13A     -6.865834    14A     -6.864990    15A     -1.463595
      16A     -1.358954    17A     -1.299022    18A     -1.143872
      19A     -1.058270    20A     -1.018158    21A     -0.948121
      22A     -0.879360    23A     -0.830724    24A     -0.794403
      25A     -0.728691    26A     -0.696877    27A     -0.686729
      28A     -0.659003    29A     -0.630111    30A     -0.620533
      31A     -0.600739    32A     -0.588300    33A     -0.566979
      34A     -0.557552    35A     -0.551346    36A     -0.547068
      37A     -0.531353    38A     -0.510242    39A     -0.500232
      40A     -0.494837    41A     -0.488377    42A     -0.483710
      43A     -0.474278    44A     -0.457595    45A     -0.445995

  @DF-RHF Final Energy:  -857.60410794371012

   => Energetics <=

    Nuclear Repulsion Energy =            722.6271022202020049
    One-Electron Energy =               -2612.7616479054513547
    Two-Electron Energy =                1032.5304377415393446
    Total Energy =                       -857.6041079437100052
  Basis Set: (AUG-CC-PVTZ AUX)
    Blend: AUG-CC-PVTZ-RI
    Molecular point group: c1

    Geometry (in Angstrom), charge = 0, multiplicity = 1:

       Center              X                  Y                   Z               Mass
    ------------   -----------------  -----------------  -----------------  -----------------
         S           -0.207935385945    -0.325008077444     0.141189734304    31.972071174400
         O           -1.547766085945     0.587171022556    -0.116680165696    15.994914619570
         O           -0.332800085945    -1.501381977444    -0.832059165696    15.994914619570
         O           -0.197952085945    -0.735273977444     1.576423834304    15.994914619570
         C            2.380189914055     0.320857022556     0.206400834304    12.000000000000
         C            0.992166914055     0.768160022556    -0.258288165696    12.000000000000
         C            2.856053914055    -0.945082977444    -0.504817165696    12.000000000000
         C            3.359048914055     1.473666022556    -0.017987165696    12.000000000000
         C           -2.840914085945    -0.093481977444    -0.117596165696    12.000000000000
         C           -3.884147085945     0.989753022556    -0.257354165696    12.000000000000
         H            2.316361914055     0.120477022556     1.282482834304     1.007825032230
         H            0.950095914055     0.910227022556    -1.342817165696     1.007825032230
         H            0.692517914055     1.697718022556     0.234700834304     1.007825032230
         H            2.887166914055    -0.786223977444    -1.588243165696     1.007825032230
         H            2.205886914055    -1.800439977444    -0.310493165696     1.007825032230
         H            3.865855914055    -1.201920977444    -0.171247165696     1.007825032230
         H            3.436132914055     1.713813022556    -1.083857165696     1.007825032230
         H            3.046288914055     2.376849022556     0.515143834304     1.007825032230
         H            4.356497914055     1.198943022556     0.337348834304     1.007825032230
         H           -2.860361085945    -0.799870977444    -0.951220165696     1.007825032230
         H           -2.949448085945    -0.642108977444     0.822884834304     1.007825032230
         H           -3.828533085945     1.684560022556     0.582750834304     1.007825032230
         H           -3.735432085945     1.544825022556    -1.185802165696     1.007825032230
         H           -4.881019085945     0.539944022556    -0.275295165696     1.007825032230

  Basis Set: AUG-CC-PVTZ
    Blend: AUG-CC-PVTZ
  Basis Set: (AUG-CC-PVTZ AUX)
    Blend: AUG-CC-PVTZ-JKFIT
	 Reference Energy          =    -857.6041079437101189 [Eh]
	 Singles Energy            =      -0.0000000000000000 [Eh]
	 Same-Spin Energy          =      -0.5275205957139765 [Eh]
	 Opposite-Spin Energy      =      -1.6841481039392250 [Eh]
	 Correlation Energy        =      -2.2116686996532016 [Eh]
	 Total Energy              =    -859.8157766433632787 [Eh]

	 ================> DF-SCS-MP2 Energies <==================
	-----------------------------------------------------------
	 SCS Same-Spin Scale       =       0.3333333333333333 [-]
	 SCS Opposite-Spin Scale   =       1.2000000000000000 [-]
	 SCS Same-Spin Energy      =      -0.1758401985713255 [Eh]
	 SCS Opposite-Spin Energy  =      -2.0209777247270697 [Eh]
	 SCS Correlation Energy    =      -2.1968179232983953 [Eh]
	 SCS Total Energy          =    -859.8009258670084591 [Eh]
	-----------------------------------------------------------

  Dipole Moment: [D]
     X:     0.5968      Y:     3.4160      Z:    -1.0753     Total:     3.6306

*** Psi4 exiting successfully. Buy a developer a beer!
