                               Psi4 1.4a3.dev225

  ==> Input File <==

--------------------------------------------------------------------------
#psi4
#
memory 32 gb

molecule  {
0 1
  S       -0.2946600    -0.4360860     0.1655790
  O       -1.5657890     0.5673500    -0.1009940
  O       -0.3508230    -1.5212030    -0.8163730
  O       -0.2159750    -0.7550950     1.5921100
  C        2.3621670     0.3010360     0.2220870
  C        0.9741440     0.7483390    -0.2426020
  C        2.8380310    -0.9649040    -0.4891310
  C        3.3410260     1.4538450    -0.0023010
  C       -2.8589370    -0.1133030    -0.1019100
  C       -3.9175384     0.9479899    -0.2870743
  H        2.2983390     0.1006560     1.2981690
  H        0.9320730     0.8904060    -1.3271310
  H        0.6744950     1.6778970     0.2503870
  H        2.8691440    -0.8060450    -1.5725570
  H        2.1878640    -1.8202610    -0.2948070
  H        3.8478330    -1.2217420    -0.1555610
  H        3.4181100     1.6939920    -1.0681710
  H        3.0282660     2.3570280     0.5308300
  H        4.3384750     1.1791220     0.3530350
  H       -2.8783840    -0.8196920    -0.9355340
  H       -2.9674710    -0.6619300     0.8385710
  H       -3.8465560     1.6647390     0.5984370
  H       -3.7534550     1.5250040    -1.1701160
  H       -4.8990420     0.5201230    -0.2596090
units angstrom
no_reorient  #important for SAPT in psi4, default
symmetry c1  #important for SAPT in psi4, default
}

set PROPERTIES_ORIGIN ["COM"]
properties('MP2/aug-cc-pvtz', properties = ['dipole'])
--------------------------------------------------------------------------

    Molecular point group: c1
  Charge       = 0
  Multiplicity = 1
  Basis Set: AUG-CC-PVTZ
    Blend: AUG-CC-PVTZ
  Basis Set: (AUG-CC-PVTZ AUX)
    Blend: AUG-CC-PVTZ-JKFIT

    Orbital Energies [Eh]
    ---------------------

    Doubly Occupied:

       1A    -92.214134     2A    -20.615383     3A    -20.553736
       4A    -20.553708     5A    -11.301962     6A    -11.278305
       7A    -11.251606     8A    -11.233447     9A    -11.229607
      10A    -11.218686    11A     -9.178362    12A     -6.863823
      13A     -6.862371    14A     -6.862194    15A     -1.481172
      16A     -1.375151    17A     -1.337517    18A     -1.121048
      19A     -1.051696    20A     -0.997105    21A     -0.942419
      22A     -0.877516    23A     -0.830591    24A     -0.788165
      25A     -0.725564    26A     -0.692575    27A     -0.690602
      28A     -0.657059    29A     -0.634327    30A     -0.616361
      31A     -0.608500    32A     -0.587123    33A     -0.572852
      34A     -0.559237    35A     -0.552097    36A     -0.543075
      37A     -0.538292    38A     -0.509636    39A     -0.499415
      40A     -0.493127    41A     -0.490546    42A     -0.485474
      43A     -0.482284    44A     -0.463238    45A     -0.454064

  @DF-RHF Final Energy:  -857.62369387306558

   => Energetics <=

    Nuclear Repulsion Energy =            722.4202545336396497
    One-Electron Energy =               -2612.3375912934757253
    Two-Electron Energy =                1032.2936428867703853
    Total Energy =                       -857.6236938730655766
  Basis Set: (AUG-CC-PVTZ AUX)
    Blend: AUG-CC-PVTZ-RI
    Molecular point group: c1

    Geometry (in Angstrom), charge = 0, multiplicity = 1:

       Center              X                  Y                   Z               Mass
    ------------   -----------------  -----------------  -----------------  -----------------
         S           -0.262299706818    -0.397110121536     0.151498333807    31.972071174400
         O           -1.533428706818     0.606325878464    -0.115074666193    15.994914619570
         O           -0.318462706818    -1.482227121536    -0.830453666193    15.994914619570
         O           -0.183614706818    -0.716119121536     1.578029333807    15.994914619570
         C            2.394527293182     0.340011878464     0.208006333807    12.000000000000
         C            1.006504293182     0.787314878464    -0.256682666193    12.000000000000
         C            2.870391293182    -0.925928121536    -0.503211666193    12.000000000000
         C            3.373386293182     1.492820878464    -0.016381666193    12.000000000000
         C           -2.826576706818    -0.074327121536    -0.115990666193    12.000000000000
         C           -3.885178106818     0.986965778464    -0.301154966193    12.000000000000
         H            2.330699293182     0.139631878464     1.284088333807     1.007825032230
         H            0.964433293182     0.929381878464    -1.341211666193     1.007825032230
         H            0.706855293182     1.716872878464     0.236306333807     1.007825032230
         H            2.901504293182    -0.767069121536    -1.586637666193     1.007825032230
         H            2.220224293182    -1.781285121536    -0.308887666193     1.007825032230
         H            3.880193293182    -1.182766121536    -0.169641666193     1.007825032230
         H            3.450470293182     1.732967878464    -1.082251666193     1.007825032230
         H            3.060626293182     2.396003878464     0.516749333807     1.007825032230
         H            4.370835293182     1.218097878464     0.338954333807     1.007825032230
         H           -2.846023706818    -0.780716121536    -0.949614666193     1.007825032230
         H           -2.935110706818    -0.622954121536     0.824490333807     1.007825032230
         H           -3.814195706818     1.703714878464     0.584356333807     1.007825032230
         H           -3.721094706818     1.563979878464    -1.184196666193     1.007825032230
         H           -4.866681706818     0.559098878464    -0.273689666193     1.007825032230

  Basis Set: AUG-CC-PVTZ
    Blend: AUG-CC-PVTZ
  Basis Set: (AUG-CC-PVTZ AUX)
    Blend: AUG-CC-PVTZ-JKFIT
	 Reference Energy          =    -857.6236938730655766 [Eh]
	 Singles Energy            =      -0.0000000000000000 [Eh]
	 Same-Spin Energy          =      -0.5252945239127893 [Eh]
	 Opposite-Spin Energy      =      -1.6808921207889100 [Eh]
	 Correlation Energy        =      -2.2061866447016993 [Eh]
	 Total Energy              =    -859.8298805177672648 [Eh]

	 ================> DF-SCS-MP2 Energies <==================
	-----------------------------------------------------------
	 SCS Same-Spin Scale       =       0.3333333333333333 [-]
	 SCS Opposite-Spin Scale   =       1.2000000000000000 [-]
	 SCS Same-Spin Energy      =      -0.1750981746375964 [Eh]
	 SCS Opposite-Spin Energy  =      -2.0170705449466921 [Eh]
	 SCS Correlation Energy    =      -2.1921687195842887 [Eh]
	 SCS Total Energy          =    -859.8158625926498644 [Eh]
	-----------------------------------------------------------

  Dipole Moment: [D]
     X:    -0.0556      Y:     2.6953      Z:    -1.0618     Total:     2.8974

*** Psi4 exiting successfully. Buy a developer a beer!
