                               Psi4 1.4a3.dev225

  ==> Input File <==

--------------------------------------------------------------------------
#psi4
#
memory 32 gb

molecule  {
0 1
  S       -0.2946600    -0.4360860     0.1655790
  O       -1.5657890     0.5673500    -0.1009940
  O       -0.3508230    -1.5212030    -0.8163730
  O       -0.2159750    -0.7550950     1.5921100
  C        2.3621670     0.3010360     0.2220870
  C        0.9741440     0.7483390    -0.2426020
  C        2.8380310    -0.9649040    -0.4891310
  C        3.3410260     1.4538450    -0.0023010
  C       -2.8589370    -0.1133030    -0.1019100
  C       -3.9021700     0.9699320    -0.2416680
  H        2.2983390     0.1006560     1.2981690
  H        0.9320730     0.8904060    -1.3271310
  H        0.6744950     1.6778970     0.2503870
  H        2.8691440    -0.8060450    -1.5725570
  H        2.1878640    -1.8202610    -0.2948070
  H        3.8478330    -1.2217420    -0.1555610
  H        3.4181100     1.6939920    -1.0681710
  H        3.0282660     2.3570280     0.5308300
  H        4.3384750     1.1791220     0.3530350
  H       -2.8783840    -0.8196920    -0.9355340
  H       -2.9674710    -0.6619300     0.8385710
  H       -3.7747334     1.6796922     0.5778602
  H       -3.7534550     1.5250040    -1.1701160
  H       -4.8990420     0.5201230    -0.2596090
units angstrom
no_reorient  #important for SAPT in psi4, default
symmetry c1  #important for SAPT in psi4, default
}

set PROPERTIES_ORIGIN ["COM"]
properties('MP2/aug-cc-pvtz', properties = ['dipole'])
--------------------------------------------------------------------------

    Molecular point group: c1
  Charge       = 0
  Multiplicity = 1
  Basis Set: AUG-CC-PVTZ
    Blend: AUG-CC-PVTZ
  Basis Set: (AUG-CC-PVTZ AUX)
    Blend: AUG-CC-PVTZ-JKFIT

    Orbital Energies [Eh]
    ---------------------

    Doubly Occupied:

       1A    -92.213934     2A    -20.615059     3A    -20.553707
       4A    -20.553617     5A    -11.301402     6A    -11.278219
       7A    -11.251556     8A    -11.233030     9A    -11.229586
      10A    -11.218661    11A     -9.178178    12A     -6.863635
      13A     -6.862188    14A     -6.862013    15A     -1.481120
      16A     -1.375208    17A     -1.337468    18A     -1.121013
      19A     -1.051861    20A     -0.996794    21A     -0.942395
      22A     -0.876423    23A     -0.830855    24A     -0.788087
      25A     -0.725249    26A     -0.692967    27A     -0.690774
      28A     -0.656647    29A     -0.635075    30A     -0.616014
      31A     -0.607669    32A     -0.587295    33A     -0.566498
      34A     -0.557741    35A     -0.556481    36A     -0.544006
      37A     -0.538021    38A     -0.509851    39A     -0.499075
      40A     -0.496374    41A     -0.490430    42A     -0.485535
      43A     -0.482521    44A     -0.463403    45A     -0.453749

  @DF-RHF Final Energy:  -857.62590817760008

   => Energetics <=

    Nuclear Repulsion Energy =            722.7069301656257494
    One-Electron Energy =               -2612.9229147200971966
    Two-Electron Energy =                1032.5900763768715933
    Total Energy =                       -857.6259081775999675
  Basis Set: (AUG-CC-PVTZ AUX)
    Blend: AUG-CC-PVTZ-RI
    Molecular point group: c1

    Geometry (in Angstrom), charge = 0, multiplicity = 1:

       Center              X                  Y                   Z               Mass
    ------------   -----------------  -----------------  -----------------  -----------------
         S           -0.263846109146    -0.398786411666     0.148342139088    31.972071174400
         O           -1.534975109146     0.604649588334    -0.118230860912    15.994914619570
         O           -0.320009109146    -1.483903411666    -0.833609860912    15.994914619570
         O           -0.185161109146    -0.717795411666     1.574873139088    15.994914619570
         C            2.392980890854     0.338335588334     0.204850139088    12.000000000000
         C            1.004957890854     0.785638588334    -0.259838860912    12.000000000000
         C            2.868844890854    -0.927604411666    -0.506367860912    12.000000000000
         C            3.371839890854     1.491144588334    -0.019537860912    12.000000000000
         C           -2.828123109146    -0.076003411666    -0.119146860912    12.000000000000
         C           -3.871356109146     1.007231588334    -0.258904860912    12.000000000000
         H            2.329152890854     0.137955588334     1.280932139088     1.007825032230
         H            0.962886890854     0.927705588334    -1.344367860912     1.007825032230
         H            0.705308890854     1.715196588334     0.233150139088     1.007825032230
         H            2.899957890854    -0.768745411666    -1.589793860912     1.007825032230
         H            2.218677890854    -1.782961411666    -0.312043860912     1.007825032230
         H            3.878646890854    -1.184442411666    -0.172797860912     1.007825032230
         H            3.448923890854     1.731291588334    -1.085407860912     1.007825032230
         H            3.059079890854     2.394327588334     0.513593139088     1.007825032230
         H            4.369288890854     1.216421588334     0.335798139088     1.007825032230
         H           -2.847570109146    -0.782392411666    -0.952770860912     1.007825032230
         H           -2.936657109146    -0.624630411666     0.821334139088     1.007825032230
         H           -3.743919509146     1.716991788334     0.560623339088     1.007825032230
         H           -3.722641109146     1.562303588334    -1.187352860912     1.007825032230
         H           -4.868228109146     0.557422588334    -0.276845860912     1.007825032230

  Basis Set: AUG-CC-PVTZ
    Blend: AUG-CC-PVTZ
  Basis Set: (AUG-CC-PVTZ AUX)
    Blend: AUG-CC-PVTZ-JKFIT
	 Reference Energy          =    -857.6259081776000812 [Eh]
	 Singles Energy            =      -0.0000000000000000 [Eh]
	 Same-Spin Energy          =      -0.5253328658730616 [Eh]
	 Opposite-Spin Energy      =      -1.6808769436050328 [Eh]
	 Correlation Energy        =      -2.2062098094780946 [Eh]
	 Total Energy              =    -859.8321179870781634 [Eh]

	 ================> DF-SCS-MP2 Energies <==================
	-----------------------------------------------------------
	 SCS Same-Spin Scale       =       0.3333333333333333 [-]
	 SCS Opposite-Spin Scale   =       1.2000000000000000 [-]
	 SCS Same-Spin Energy      =      -0.1751109552910205 [Eh]
	 SCS Opposite-Spin Energy  =      -2.0170523323260392 [Eh]
	 SCS Correlation Energy    =      -2.1921632876170598 [Eh]
	 SCS Total Energy          =    -859.8180714652171446 [Eh]
	-----------------------------------------------------------

  Dipole Moment: [D]
     X:    -0.0411      Y:     2.7093      Z:    -1.0577     Total:     2.9088

*** Psi4 exiting successfully. Buy a developer a beer!
