                               Psi4 1.4a3.dev225

  ==> Input File <==

--------------------------------------------------------------------------
#psi4
#
memory 32 gb

molecule  {
0 1
  S       -0.2946600    -0.4360860     0.1655790
  O       -1.5657890     0.5673500    -0.1009940
  O       -0.3508230    -1.5212030    -0.8163730
  O       -0.2159750    -0.7550950     1.5921100
  C        2.3621670     0.3010360     0.2220870
  C        0.9741440     0.7483390    -0.2426020
  C        2.8380310    -0.9649040    -0.4891310
  C        3.3410260     1.4538450    -0.0023010
  C       -2.8589370    -0.1133030    -0.1019100
  C       -3.9316171     0.9247548    -0.3322549
  H        2.2983390     0.1006560     1.2981690
  H        0.9320730     0.8904060    -1.3271310
  H        0.6744950     1.6778970     0.2503870
  H        2.8691440    -0.8060450    -1.5725570
  H        2.1878640    -1.8202610    -0.2948070
  H        3.8478330    -1.2217420    -0.1555610
  H        3.4181100     1.6939920    -1.0681710
  H        3.0282660     2.3570280     0.5308300
  H        4.3384750     1.1791220     0.3530350
  H       -2.8783840    -0.8196920    -0.9355340
  H       -2.9674710    -0.6619300     0.8385710
  H       -3.8465560     1.6647390     0.5984370
  H       -3.7534550     1.5250040    -1.1701160
  H       -4.8990420     0.5201230    -0.2596090
units angstrom
no_reorient  #important for SAPT in psi4, default
symmetry c1  #important for SAPT in psi4, default
}

set PROPERTIES_ORIGIN ["COM"]
properties('MP2/aug-cc-pvtz', properties = ['dipole'])
--------------------------------------------------------------------------

    Molecular point group: c1
  Charge       = 0
  Multiplicity = 1
  Basis Set: AUG-CC-PVTZ
    Blend: AUG-CC-PVTZ
  Basis Set: (AUG-CC-PVTZ AUX)
    Blend: AUG-CC-PVTZ-JKFIT

    Orbital Energies [Eh]
    ---------------------

    Doubly Occupied:

       1A    -92.214485     2A    -20.615966     3A    -20.553969
       4A    -20.553804     5A    -11.302446     6A    -11.278517
       7A    -11.251746     8A    -11.234827     9A    -11.229704
      10A    -11.218780    11A     -9.178695    12A     -6.864162
      13A     -6.862702    14A     -6.862522    15A     -1.481388
      16A     -1.375332    17A     -1.337666    18A     -1.121191
      19A     -1.052209    20A     -0.997614    21A     -0.942515
      22A     -0.878495    23A     -0.830749    24A     -0.788330
      25A     -0.726026    26A     -0.692726    27A     -0.690531
      28A     -0.657626    29A     -0.633981    30A     -0.616795
      31A     -0.611797    32A     -0.588344    33A     -0.578999
      34A     -0.560574    35A     -0.551372    36A     -0.542855
      37A     -0.535634    38A     -0.509436    39A     -0.500361
      40A     -0.491240    41A     -0.487648    42A     -0.484347
      43A     -0.479271    44A     -0.462688    45A     -0.454446

  @DF-RHF Final Energy:  -857.61570177372346

   => Energetics <=

    Nuclear Repulsion Energy =            722.2767865449803821
    One-Electron Energy =               -2612.0159594192255099
    Two-Electron Energy =                1032.1234711005215559
    Total Energy =                       -857.6157017737234582
  Basis Set: (AUG-CC-PVTZ AUX)
    Blend: AUG-CC-PVTZ-RI
    Molecular point group: c1

    Geometry (in Angstrom), charge = 0, multiplicity = 1:

       Center              X                  Y                   Z               Mass
    ------------   -----------------  -----------------  -----------------  -----------------
         S           -0.261282376189    -0.395431146994     0.154763096051    31.972071174400
         O           -1.532411376189     0.608004853006    -0.111809903949    15.994914619570
         O           -0.317445376189    -1.480548146994    -0.827188903949    15.994914619570
         O           -0.182597376189    -0.714440146994     1.581294096051    15.994914619570
         C            2.395544623811     0.341690853006     0.211271096051    12.000000000000
         C            1.007521623811     0.788993853006    -0.253417903949    12.000000000000
         C            2.871408623811    -0.924249146994    -0.499946903949    12.000000000000
         C            3.374403623811     1.494499853006    -0.013116903949    12.000000000000
         C           -2.825559376189    -0.072648146994    -0.112725903949    12.000000000000
         C           -3.898239476189     0.965409653006    -0.343070803949    12.000000000000
         H            2.331716623811     0.141310853006     1.287353096051     1.007825032230
         H            0.965450623811     0.931060853006    -1.337946903949     1.007825032230
         H            0.707872623811     1.718551853006     0.239571096051     1.007825032230
         H            2.902521623811    -0.765390146994    -1.583372903949     1.007825032230
         H            2.221241623811    -1.779606146994    -0.305622903949     1.007825032230
         H            3.881210623811    -1.181087146994    -0.166376903949     1.007825032230
         H            3.451487623811     1.734646853006    -1.078986903949     1.007825032230
         H            3.061643623811     2.397682853006     0.520014096051     1.007825032230
         H            4.371852623811     1.219776853006     0.342219096051     1.007825032230
         H           -2.845006376189    -0.779037146994    -0.946349903949     1.007825032230
         H           -2.934093376189    -0.621275146994     0.827755096051     1.007825032230
         H           -3.813178376189     1.705393853006     0.587621096051     1.007825032230
         H           -3.720077376189     1.565658853006    -1.180931903949     1.007825032230
         H           -4.865664376189     0.560777853006    -0.270424903949     1.007825032230

  Basis Set: AUG-CC-PVTZ
    Blend: AUG-CC-PVTZ
  Basis Set: (AUG-CC-PVTZ AUX)
    Blend: AUG-CC-PVTZ-JKFIT
	 Reference Energy          =    -857.6157017737234582 [Eh]
	 Singles Energy            =      -0.0000000000000000 [Eh]
	 Same-Spin Energy          =      -0.5253833848146392 [Eh]
	 Opposite-Spin Energy      =      -1.6812342072745321 [Eh]
	 Correlation Energy        =      -2.2066175920891711 [Eh]
	 Total Energy              =    -859.8223193658126320 [Eh]

	 ================> DF-SCS-MP2 Energies <==================
	-----------------------------------------------------------
	 SCS Same-Spin Scale       =       0.3333333333333333 [-]
	 SCS Opposite-Spin Scale   =       1.2000000000000000 [-]
	 SCS Same-Spin Energy      =      -0.1751277949382131 [Eh]
	 SCS Opposite-Spin Energy  =      -2.0174810487294383 [Eh]
	 SCS Correlation Energy    =      -2.1926088436676512 [Eh]
	 SCS Total Energy          =    -859.8083106173911574 [Eh]
	-----------------------------------------------------------

  Dipole Moment: [D]
     X:    -0.0400      Y:     2.6746      Z:    -1.0818     Total:     2.8853

*** Psi4 exiting successfully. Buy a developer a beer!
