                               Psi4 1.4a3.dev225

  ==> Input File <==

--------------------------------------------------------------------------
#psi4
#
memory 32 gb

molecule  {
0 1
  S       -0.2946600    -0.4360860     0.1655790
  O       -1.5657890     0.5673500    -0.1009940
  O       -0.3508230    -1.5212030    -0.8163730
  O       -0.2159750    -0.7550950     1.5921100
  C        2.3621670     0.3010360     0.2220870
  C        0.9741440     0.7483390    -0.2426020
  C        2.8380310    -0.9649040    -0.4891310
  C        3.3410260     1.4538450    -0.0023010
  C       -2.8589370    -0.1133030    -0.1019100
  C       -3.9021700     0.9699320    -0.2416680
  H        2.2983390     0.1006560     1.2981690
  H        0.9320730     0.8904060    -1.3271310
  H        0.6744950     1.6778970     0.2503870
  H        2.8691440    -0.8060450    -1.5725570
  H        2.1878640    -1.8202610    -0.2948070
  H        3.8478330    -1.2217420    -0.1555610
  H        3.4251477     1.7159171    -1.1654837
  H        3.0282660     2.3570280     0.5308300
  H        4.3384750     1.1791220     0.3530350
  H       -2.8783840    -0.8196920    -0.9355340
  H       -2.9674710    -0.6619300     0.8385710
  H       -3.8465560     1.6647390     0.5984370
  H       -3.7534550     1.5250040    -1.1701160
  H       -4.8990420     0.5201230    -0.2596090
units angstrom
no_reorient  #important for SAPT in psi4, default
symmetry c1  #important for SAPT in psi4, default
}

set PROPERTIES_ORIGIN ["COM"]
properties('MP2/aug-cc-pvtz', properties = ['dipole'])
--------------------------------------------------------------------------

    Molecular point group: c1
  Charge       = 0
  Multiplicity = 1
  Basis Set: AUG-CC-PVTZ
    Blend: AUG-CC-PVTZ
  Basis Set: (AUG-CC-PVTZ AUX)
    Blend: AUG-CC-PVTZ-JKFIT

    Orbital Energies [Eh]
    ---------------------

    Doubly Occupied:

       1A    -92.214016     2A    -20.615045     3A    -20.553843
       4A    -20.553754     5A    -11.302017     6A    -11.278354
       7A    -11.252888     8A    -11.241639     9A    -11.233101
      10A    -11.218830    11A     -9.178266    12A     -6.863722
      13A     -6.862277    14A     -6.862103    15A     -1.481214
      16A     -1.375244    17A     -1.337618    18A     -1.120670
      19A     -1.051424    20A     -0.995757    21A     -0.938458
      22A     -0.876496    23A     -0.830221    24A     -0.786025
      25A     -0.725328    26A     -0.693022    27A     -0.690694
      28A     -0.656690    29A     -0.633941    30A     -0.616478
      31A     -0.607029    32A     -0.586254    33A     -0.566609
      34A     -0.558212    35A     -0.551020    36A     -0.537697
      37A     -0.536161    38A     -0.510664    39A     -0.500227
      40A     -0.496834    41A     -0.491208    42A     -0.485684
      43A     -0.478863    44A     -0.463490    45A     -0.454212

  @DF-RHF Final Energy:  -857.62018629077772

   => Energetics <=

    Nuclear Repulsion Energy =            722.1652723532539540
    One-Electron Energy =               -2611.8443160076617460
    Two-Electron Energy =                1032.0588573636300680
    Total Energy =                       -857.6201862907778377
  Basis Set: (AUG-CC-PVTZ AUX)
    Blend: AUG-CC-PVTZ-RI
    Molecular point group: c1

    Geometry (in Angstrom), charge = 0, multiplicity = 1:

       Center              X                  Y                   Z               Mass
    ------------   -----------------  -----------------  -----------------  -----------------
         S           -0.263452941970    -0.398828722794     0.148807834598    31.972071174400
         O           -1.534581941970     0.604607277206    -0.117765165402    15.994914619570
         O           -0.319615941970    -1.483945722794    -0.833144165402    15.994914619570
         O           -0.184767941970    -0.717837722794     1.575338834598    15.994914619570
         C            2.393374058030     0.338293277206     0.205315834598    12.000000000000
         C            1.005351058030     0.785596277206    -0.259373165402    12.000000000000
         C            2.869238058030    -0.927646722794    -0.505902165402    12.000000000000
         C            3.372233058030     1.491102277206    -0.019072165402    12.000000000000
         C           -2.827729941970    -0.076045722794    -0.118681165402    12.000000000000
         C           -3.870962941970     1.007189277206    -0.258439165402    12.000000000000
         H            2.329546058030     0.137913277206     1.281397834598     1.007825032230
         H            0.963280058030     0.927663277206    -1.343902165402     1.007825032230
         H            0.705702058030     1.715154277206     0.233615834598     1.007825032230
         H            2.900351058030    -0.768787722794    -1.589328165402     1.007825032230
         H            2.219071058030    -1.783003722794    -0.311578165402     1.007825032230
         H            3.879040058030    -1.184484722794    -0.172332165402     1.007825032230
         H            3.456354758030     1.753174377206    -1.182254865402     1.007825032230
         H            3.059473058030     2.394285277206     0.514058834598     1.007825032230
         H            4.369682058030     1.216379277206     0.336263834598     1.007825032230
         H           -2.847176941970    -0.782434722794    -0.952305165402     1.007825032230
         H           -2.936263941970    -0.624672722794     0.821799834598     1.007825032230
         H           -3.815348941970     1.701996277206     0.581665834598     1.007825032230
         H           -3.722247941970     1.562261277206    -1.186887165402     1.007825032230
         H           -4.867834941970     0.557380277206    -0.276380165402     1.007825032230

  Basis Set: AUG-CC-PVTZ
    Blend: AUG-CC-PVTZ
  Basis Set: (AUG-CC-PVTZ AUX)
    Blend: AUG-CC-PVTZ-JKFIT
	 Reference Energy          =    -857.6201862907777240 [Eh]
	 Singles Energy            =      -0.0000000000000000 [Eh]
	 Same-Spin Energy          =      -0.5252754485642632 [Eh]
	 Opposite-Spin Energy      =      -1.6814709645488803 [Eh]
	 Correlation Energy        =      -2.2067464131131436 [Eh]
	 Total Energy              =    -859.8269327038908614 [Eh]

	 ================> DF-SCS-MP2 Energies <==================
	-----------------------------------------------------------
	 SCS Same-Spin Scale       =       0.3333333333333333 [-]
	 SCS Opposite-Spin Scale   =       1.2000000000000000 [-]
	 SCS Same-Spin Energy      =      -0.1750918161880877 [Eh]
	 SCS Opposite-Spin Energy  =      -2.0177651574586561 [Eh]
	 SCS Correlation Energy    =      -2.1928569736467440 [Eh]
	 SCS Total Energy          =    -859.8130432644244365 [Eh]
	-----------------------------------------------------------

  Dipole Moment: [D]
     X:    -0.0830      Y:     2.6828      Z:    -0.9857     Total:     2.8594

*** Psi4 exiting successfully. Buy a developer a beer!
