                               Psi4 1.4a3.dev225

  ==> Input File <==

--------------------------------------------------------------------------
#psi4
#
memory 32 gb

molecule  {
0 1
  S       -0.2946600    -0.4360860     0.1655790
  O       -1.5657890     0.5673500    -0.1009940
  O       -0.3508230    -1.5212030    -0.8163730
  O       -0.2159750    -0.7550950     1.5921100
  C        2.3621670     0.3010360     0.2220870
  C        0.9741440     0.7483390    -0.2426020
  C        2.8380310    -0.9649040    -0.4891310
  C        3.3410260     1.4538450    -0.0023010
  C       -3.0359179    -0.2064575    -0.1020354
  C       -3.9021700     0.9699320    -0.2416680
  H        2.2983390     0.1006560     1.2981690
  H        0.9320730     0.8904060    -1.3271310
  H        0.6744950     1.6778970     0.2503870
  H        2.8691440    -0.8060450    -1.5725570
  H        2.1878640    -1.8202610    -0.2948070
  H        3.8478330    -1.2217420    -0.1555610
  H        3.4181100     1.6939920    -1.0681710
  H        3.0282660     2.3570280     0.5308300
  H        4.3384750     1.1791220     0.3530350
  H       -2.8783840    -0.8196920    -0.9355340
  H       -2.9674710    -0.6619300     0.8385710
  H       -3.8465560     1.6647390     0.5984370
  H       -3.7534550     1.5250040    -1.1701160
  H       -4.8990420     0.5201230    -0.2596090
units angstrom
no_reorient  #important for SAPT in psi4, default
symmetry c1  #important for SAPT in psi4, default
}

set PROPERTIES_ORIGIN ["COM"]
properties('MP2/aug-cc-pvtz', properties = ['dipole'])
--------------------------------------------------------------------------

    Molecular point group: c1
  Charge       = 0
  Multiplicity = 1
  Basis Set: AUG-CC-PVTZ
    Blend: AUG-CC-PVTZ
  Basis Set: (AUG-CC-PVTZ AUX)
    Blend: AUG-CC-PVTZ-JKFIT

    Orbital Energies [Eh]
    ---------------------

    Doubly Occupied:

       1A    -92.200426     2A    -20.589437     3A    -20.543326
       4A    -20.542751     5A    -11.318432     6A    -11.268429
       7A    -11.244589     8A    -11.244039     9A    -11.224350
      10A    -11.213389    11A     -9.164466    12A     -6.849758
      13A     -6.848640    14A     -6.848515    15A     -1.459720
      16A     -1.331281    17A     -1.327425    18A     -1.113154
      19A     -1.070634    20A     -0.991189    21A     -0.937033
      22A     -0.879687    23A     -0.827875    24A     -0.778722
      25A     -0.701652    26A     -0.694425    27A     -0.679222
      28A     -0.656127    29A     -0.630781    30A     -0.608685
      31A     -0.603114    32A     -0.580901    33A     -0.574358
      34A     -0.554555    35A     -0.551083    36A     -0.538526
      37A     -0.529557    38A     -0.518477    39A     -0.500804
      40A     -0.492261    41A     -0.480700    42A     -0.478014
      43A     -0.475041    44A     -0.453231    45A     -0.441418

  @DF-RHF Final Energy:  -857.60068185431010

   => Energetics <=

    Nuclear Repulsion Energy =            718.7137052184018557
    One-Electron Energy =               -2605.5083746161108138
    Two-Electron Energy =                1029.1939875433988618
    Total Energy =                       -857.6006818543100962
  Basis Set: (AUG-CC-PVTZ AUX)
    Blend: AUG-CC-PVTZ-RI
    Molecular point group: c1

    Geometry (in Angstrom), charge = 0, multiplicity = 1:

       Center              X                  Y                   Z               Mass
    ------------   -----------------  -----------------  -----------------  -----------------
         S           -0.250621544329    -0.391964294460     0.148226323859    31.972071174400
         O           -1.521750544329     0.611471705540    -0.118346676141    15.994914619570
         O           -0.306784544329    -1.477081294460    -0.833725676141    15.994914619570
         O           -0.171936544329    -0.710973294460     1.574757323859    15.994914619570
         C            2.406205455671     0.345157705540     0.204734323859    12.000000000000
         C            1.018182455671     0.792460705540    -0.259954676141    12.000000000000
         C            2.882069455671    -0.920782294460    -0.506483676141    12.000000000000
         C            3.385064455671     1.497966705540    -0.019653676141    12.000000000000
         C           -2.991879444329    -0.162335794460    -0.119388076141    12.000000000000
         C           -3.858131544329     1.014053705540    -0.259020676141    12.000000000000
         H            2.342377455671     0.144777705540     1.280816323859     1.007825032230
         H            0.976111455671     0.934527705540    -1.344483676141     1.007825032230
         H            0.718533455671     1.722018705540     0.233034323859     1.007825032230
         H            2.913182455671    -0.761923294460    -1.589909676141     1.007825032230
         H            2.231902455671    -1.776139294460    -0.312159676141     1.007825032230
         H            3.891871455671    -1.177620294460    -0.172913676141     1.007825032230
         H            3.462148455671     1.738113705540    -1.085523676141     1.007825032230
         H            3.072304455671     2.401149705540     0.513477323859     1.007825032230
         H            4.382513455671     1.223243705540     0.335682323859     1.007825032230
         H           -2.834345544329    -0.775570294460    -0.952886676141     1.007825032230
         H           -2.923432544329    -0.617808294460     0.821218323859     1.007825032230
         H           -3.802517544329     1.708860705540     0.581084323859     1.007825032230
         H           -3.709416544329     1.569125705540    -1.187468676141     1.007825032230
         H           -4.855003544329     0.564244705540    -0.276961676141     1.007825032230

  Basis Set: AUG-CC-PVTZ
    Blend: AUG-CC-PVTZ
  Basis Set: (AUG-CC-PVTZ AUX)
    Blend: AUG-CC-PVTZ-JKFIT
	 Reference Energy          =    -857.6006818543100962 [Eh]
	 Singles Energy            =      -0.0000000000000000 [Eh]
	 Same-Spin Energy          =      -0.5261404391503417 [Eh]
	 Opposite-Spin Energy      =      -1.6833219384386719 [Eh]
	 Correlation Energy        =      -2.2094623775890136 [Eh]
	 Total Energy              =    -859.8101442318991303 [Eh]

	 ================> DF-SCS-MP2 Energies <==================
	-----------------------------------------------------------
	 SCS Same-Spin Scale       =       0.3333333333333333 [-]
	 SCS Opposite-Spin Scale   =       1.2000000000000000 [-]
	 SCS Same-Spin Energy      =      -0.1753801463834472 [Eh]
	 SCS Opposite-Spin Energy  =      -2.0199863261264062 [Eh]
	 SCS Correlation Energy    =      -2.1953664725098534 [Eh]
	 SCS Total Energy          =    -859.7960483268199141 [Eh]
	-----------------------------------------------------------

  Dipole Moment: [D]
     X:    -1.1356      Y:     2.6656      Z:    -1.0983     Total:     3.0985

*** Psi4 exiting successfully. Buy a developer a beer!
