                               Psi4 1.4a3.dev225

  ==> Input File <==

--------------------------------------------------------------------------
#psi4
#
memory 32 gb

molecule  {
0 1
  S       -0.2946600    -0.4360860     0.1655790
  O       -1.5657890     0.5673500    -0.1009940
  O       -0.3508230    -1.5212030    -0.8163730
  O       -0.2159750    -0.7550950     1.5921100
  C        2.3621670     0.3010360     0.2220870
  C        0.9741440     0.7483390    -0.2426020
  C        2.8380310    -0.9649040    -0.4891310
  C        3.3410260     1.4538450    -0.0023010
  C       -2.8589370    -0.1133030    -0.1019100
  C       -3.9021700     0.9699320    -0.2416680
  H        2.2983390     0.1006560     1.2981690
  H        0.9320730     0.8904060    -1.3271310
  H        0.6744950     1.6778970     0.2503870
  H        2.8691440    -0.8060450    -1.5725570
  H        2.1878640    -1.8202610    -0.2948070
  H        3.8478330    -1.2217420    -0.1555610
  H        3.4181100     1.6939920    -1.0681710
  H        3.0282660     2.3570280     0.5308300
  H        4.3384750     1.1791220     0.3530350
  H       -2.8766045    -0.7550539    -0.8592533
  H       -2.9674710    -0.6619300     0.8385710
  H       -3.8465560     1.6647390     0.5984370
  H       -3.7534550     1.5250040    -1.1701160
  H       -4.8990420     0.5201230    -0.2596090
units angstrom
no_reorient  #important for SAPT in psi4, default
symmetry c1  #important for SAPT in psi4, default
}

set PROPERTIES_ORIGIN ["COM"]
properties('MP2/aug-cc-pvtz', properties = ['dipole'])
--------------------------------------------------------------------------

    Molecular point group: c1
  Charge       = 0
  Multiplicity = 1
  Basis Set: AUG-CC-PVTZ
    Blend: AUG-CC-PVTZ
  Basis Set: (AUG-CC-PVTZ AUX)
    Blend: AUG-CC-PVTZ-JKFIT

    Orbital Energies [Eh]
    ---------------------

    Doubly Occupied:

       1A    -92.213648     2A    -20.613860     3A    -20.553765
       4A    -20.553340     5A    -11.290498     6A    -11.277957
       7A    -11.251379     8A    -11.232589     9A    -11.229442
      10A    -11.218559    11A     -9.177896    12A     -6.863344
      13A     -6.861911    14A     -6.861738    15A     -1.480852
      16A     -1.374911    17A     -1.337373    18A     -1.120922
      19A     -1.055642    20A     -0.997020    21A     -0.942271
      22A     -0.881667    23A     -0.837562    24A     -0.787928
      25A     -0.725567    26A     -0.699707    27A     -0.690912
      28A     -0.658098    29A     -0.636965    30A     -0.616011
      31A     -0.606779    32A     -0.586756    33A     -0.567090
      34A     -0.558657    35A     -0.554490    36A     -0.543945
      37A     -0.539170    38A     -0.511112    39A     -0.505065
      40A     -0.497603    41A     -0.490484    42A     -0.485645
      43A     -0.482706    44A     -0.463908    45A     -0.453438

  @DF-RHF Final Energy:  -857.62088356416143

   => Energetics <=

    Nuclear Repulsion Energy =            723.0894034579133631
    One-Electron Energy =               -2613.6402110359654216
    Two-Electron Energy =                1032.9299240138907408
    Total Energy =                       -857.6208835641614314
  Basis Set: (AUG-CC-PVTZ AUX)
    Blend: AUG-CC-PVTZ-RI
    Molecular point group: c1

    Geometry (in Angstrom), charge = 0, multiplicity = 1:

       Center              X                  Y                   Z               Mass
    ------------   -----------------  -----------------  -----------------  -----------------
         S           -0.263421030959    -0.399087939827     0.147754329432    31.972071174400
         O           -1.534550030959     0.604348060173    -0.118818670568    15.994914619570
         O           -0.319584030959    -1.484204939827    -0.834197670568    15.994914619570
         O           -0.184736030959    -0.718096939827     1.574285329432    15.994914619570
         C            2.393405969041     0.338034060173     0.204262329432    12.000000000000
         C            1.005382969041     0.785337060173    -0.260426670568    12.000000000000
         C            2.869269969041    -0.927905939827    -0.506955670568    12.000000000000
         C            3.372264969041     1.490843060173    -0.020125670568    12.000000000000
         C           -2.827698030959    -0.076304939827    -0.119734670568    12.000000000000
         C           -3.870931030959     1.006930060173    -0.259492670568    12.000000000000
         H            2.329577969041     0.137654060173     1.280344329432     1.007825032230
         H            0.963311969041     0.927404060173    -1.344955670568     1.007825032230
         H            0.705733969041     1.714895060173     0.232562329432     1.007825032230
         H            2.900382969041    -0.769046939827    -1.590381670568     1.007825032230
         H            2.219102969041    -1.783262939827    -0.312631670568     1.007825032230
         H            3.879071969041    -1.184743939827    -0.173385670568     1.007825032230
         H            3.449348969041     1.730990060173    -1.085995670568     1.007825032230
         H            3.059504969041     2.394026060173     0.513005329432     1.007825032230
         H            4.369713969041     1.216120060173     0.335210329432     1.007825032230
         H           -2.845365530959    -0.718055839827    -0.877077970568     1.007825032230
         H           -2.936232030959    -0.624931939827     0.820746329432     1.007825032230
         H           -3.815317030959     1.701737060173     0.580612329432     1.007825032230
         H           -3.722216030959     1.562002060173    -1.187940670568     1.007825032230
         H           -4.867803030959     0.557121060173    -0.277433670568     1.007825032230

  Basis Set: AUG-CC-PVTZ
    Blend: AUG-CC-PVTZ
  Basis Set: (AUG-CC-PVTZ AUX)
    Blend: AUG-CC-PVTZ-JKFIT
	 Reference Energy          =    -857.6208835641614314 [Eh]
	 Singles Energy            =      -0.0000000000000000 [Eh]
	 Same-Spin Energy          =      -0.5251067102366626 [Eh]
	 Opposite-Spin Energy      =      -1.6800984953951361 [Eh]
	 Correlation Energy        =      -2.2052052056317986 [Eh]
	 Total Energy              =    -859.8260887697932731 [Eh]

	 ================> DF-SCS-MP2 Energies <==================
	-----------------------------------------------------------
	 SCS Same-Spin Scale       =       0.3333333333333333 [-]
	 SCS Opposite-Spin Scale   =       1.2000000000000000 [-]
	 SCS Same-Spin Energy      =      -0.1750355700788875 [Eh]
	 SCS Opposite-Spin Energy  =      -2.0161181944741631 [Eh]
	 SCS Correlation Energy    =      -2.1911537645530506 [Eh]
	 SCS Total Energy          =    -859.8120373287144957 [Eh]
	-----------------------------------------------------------

  Dipole Moment: [D]
     X:    -0.0910      Y:     2.6906      Z:    -1.0580     Total:     2.8925

*** Psi4 exiting successfully. Buy a developer a beer!
