                               Psi4 1.4a3.dev225

  ==> Input File <==

--------------------------------------------------------------------------
#psi4
#
memory 32 gb

molecule  {
0 1
  S       -0.2946600    -0.4360860     0.1655790
  O       -1.5657890     0.5673500    -0.1009940
  O       -0.3508230    -1.5212030    -0.8163730
  O       -0.2159750    -0.7550950     1.5921100
  C        2.3621670     0.3010360     0.2220870
  C        0.9741440     0.7483390    -0.2426020
  C        2.8380310    -0.9649040    -0.4891310
  C        3.3410260     1.4538450    -0.0023010
  C       -2.8589370    -0.1133030    -0.1019100
  C       -3.9021700     0.9699320    -0.2416680
  H        2.2983390     0.1006560     1.2981690
  H        0.9320730     0.8904060    -1.3271310
  H        0.6744950     1.6778970     0.2503870
  H        2.8691440    -0.8060450    -1.5725570
  H        2.1878640    -1.8202610    -0.2948070
  H        3.8478330    -1.2217420    -0.1555610
  H        3.4181100     1.6939920    -1.0681710
  H        3.0282660     2.3570280     0.5308300
  H        4.3384750     1.1791220     0.3530350
  H       -2.8783840    -0.8196920    -0.9355340
  H       -2.9674710    -0.6619300     0.8385710
  H       -3.8589817     1.6055384     0.6447660
  H       -3.7534550     1.5250040    -1.1701160
  H       -4.8990420     0.5201230    -0.2596090
units angstrom
no_reorient  #important for SAPT in psi4, default
symmetry c1  #important for SAPT in psi4, default
}

set PROPERTIES_ORIGIN ["COM"]
properties('MP2/aug-cc-pvtz', properties = ['dipole'])
--------------------------------------------------------------------------

    Molecular point group: c1
  Charge       = 0
  Multiplicity = 1
  Basis Set: AUG-CC-PVTZ
    Blend: AUG-CC-PVTZ
  Basis Set: (AUG-CC-PVTZ AUX)
    Blend: AUG-CC-PVTZ-JKFIT

    Orbital Energies [Eh]
    ---------------------

    Doubly Occupied:

       1A    -92.213771     2A    -20.614781     3A    -20.553582
       4A    -20.553502     5A    -11.301372     6A    -11.278071
       7A    -11.251452     8A    -11.233230     9A    -11.229493
      10A    -11.218581    11A     -9.178018    12A     -6.863474
      13A     -6.862029    14A     -6.861854    15A     -1.480955
      16A     -1.374998    17A     -1.337354    18A     -1.120897
      19A     -1.051900    20A     -0.996825    21A     -0.942308
      22A     -0.876581    23A     -0.830190    24A     -0.787995
      25A     -0.725163    26A     -0.693443    27A     -0.690389
      28A     -0.657378    29A     -0.635394    30A     -0.615988
      31A     -0.605488    32A     -0.586655    33A     -0.568661
      34A     -0.561188    35A     -0.554261    36A     -0.543201
      37A     -0.534276    38A     -0.509989    39A     -0.499430
      40A     -0.497618    41A     -0.490551    42A     -0.485453
      43A     -0.482550    44A     -0.463275    45A     -0.453595

  @DF-RHF Final Energy:  -857.62588864861675

   => Energetics <=

    Nuclear Repulsion Energy =            722.6099460058318300
    One-Electron Energy =               -2612.7373565758894074
    Two-Electron Energy =                1032.5015219214410536
    Total Energy =                       -857.6258886486166375
  Basis Set: (AUG-CC-PVTZ AUX)
    Blend: AUG-CC-PVTZ-RI
    Molecular point group: c1

    Geometry (in Angstrom), charge = 0, multiplicity = 1:

       Center              X                  Y                   Z               Mass
    ------------   -----------------  -----------------  -----------------  -----------------
         S           -0.263334822315    -0.398336386426     0.147936100575    31.972071174400
         O           -1.534463822315     0.605099613574    -0.118636899425    15.994914619570
         O           -0.319497822315    -1.483453386426    -0.834015899425    15.994914619570
         O           -0.184649822315    -0.717345386426     1.574467100575    15.994914619570
         C            2.393492177685     0.338785613574     0.204444100575    12.000000000000
         C            1.005469177685     0.786088613574    -0.260244899425    12.000000000000
         C            2.869356177685    -0.927154386426    -0.506773899425    12.000000000000
         C            3.372351177685     1.491594613574    -0.019943899425    12.000000000000
         C           -2.827611822315    -0.075553386426    -0.119552899425    12.000000000000
         C           -3.870844822315     1.007681613574    -0.259310899425    12.000000000000
         H            2.329664177685     0.138405613574     1.280526100575     1.007825032230
         H            0.963398177685     0.928155613574    -1.344773899425     1.007825032230
         H            0.705820177685     1.715646613574     0.232744100575     1.007825032230
         H            2.900469177685    -0.768295386426    -1.590199899425     1.007825032230
         H            2.219189177685    -1.782511386426    -0.312449899425     1.007825032230
         H            3.879158177685    -1.183992386426    -0.173203899425     1.007825032230
         H            3.449435177685     1.731741613574    -1.085813899425     1.007825032230
         H            3.059591177685     2.394777613574     0.513187100575     1.007825032230
         H            4.369800177685     1.216871613574     0.335392100575     1.007825032230
         H           -2.847058822315    -0.781942386426    -0.953176899425     1.007825032230
         H           -2.936145822315    -0.624180386426     0.820928100575     1.007825032230
         H           -3.827656522315     1.643288013574     0.627123100575     1.007825032230
         H           -3.722129822315     1.562753613574    -1.187758899425     1.007825032230
         H           -4.867716822315     0.557872613574    -0.277251899425     1.007825032230

  Basis Set: AUG-CC-PVTZ
    Blend: AUG-CC-PVTZ
  Basis Set: (AUG-CC-PVTZ AUX)
    Blend: AUG-CC-PVTZ-JKFIT
	 Reference Energy          =    -857.6258886486167512 [Eh]
	 Singles Energy            =      -0.0000000000000000 [Eh]
	 Same-Spin Energy          =      -0.5253355155474264 [Eh]
	 Opposite-Spin Energy      =      -1.6808842785225944 [Eh]
	 Correlation Energy        =      -2.2062197940700208 [Eh]
	 Total Energy              =    -859.8321084426867174 [Eh]

	 ================> DF-SCS-MP2 Energies <==================
	-----------------------------------------------------------
	 SCS Same-Spin Scale       =       0.3333333333333333 [-]
	 SCS Opposite-Spin Scale   =       1.2000000000000000 [-]
	 SCS Same-Spin Energy      =      -0.1751118385158088 [Eh]
	 SCS Opposite-Spin Energy  =      -2.0170611342271130 [Eh]
	 SCS Correlation Energy    =      -2.1921729727429216 [Eh]
	 SCS Total Energy          =    -859.8180616213596750 [Eh]
	-----------------------------------------------------------

  Dipole Moment: [D]
     X:    -0.0814      Y:     2.6939      Z:    -1.0366     Total:     2.8876

*** Psi4 exiting successfully. Buy a developer a beer!
