                               Psi4 1.4a3.dev225

  ==> Input File <==

--------------------------------------------------------------------------
#psi4
#
memory 32 gb

molecule  {
0 1
  S       -0.2946600    -0.4360860     0.1655790
  O       -1.5657890     0.5673500    -0.1009940
  O       -0.3508230    -1.5212030    -0.8163730
  O       -0.2159750    -0.7550950     1.5921100
  C        2.3621670     0.3010360     0.2220870
  C        0.9741440     0.7483390    -0.2426020
  C        2.8380310    -0.9649040    -0.4891310
  C        3.3410260     1.4538450    -0.0023010
  C       -2.8589370    -0.1133030    -0.1019100
  C       -3.9021700     0.9699320    -0.2416680
  H        2.2983390     0.1006560     1.2981690
  H        0.9313043     0.8930018    -1.3469469
  H        0.6744950     1.6778970     0.2503870
  H        2.8691440    -0.8060450    -1.5725570
  H        2.1878640    -1.8202610    -0.2948070
  H        3.8478330    -1.2217420    -0.1555610
  H        3.4181100     1.6939920    -1.0681710
  H        3.0282660     2.3570280     0.5308300
  H        4.3384750     1.1791220     0.3530350
  H       -2.8783840    -0.8196920    -0.9355340
  H       -2.9674710    -0.6619300     0.8385710
  H       -3.8465560     1.6647390     0.5984370
  H       -3.7534550     1.5250040    -1.1701160
  H       -4.8990420     0.5201230    -0.2596090
units angstrom
no_reorient  #important for SAPT in psi4, default
symmetry c1  #important for SAPT in psi4, default
}

set PROPERTIES_ORIGIN ["COM"]
properties('MP2/aug-cc-pvtz', properties = ['dipole'])
--------------------------------------------------------------------------

    Molecular point group: c1
  Charge       = 0
  Multiplicity = 1
  Basis Set: AUG-CC-PVTZ
    Blend: AUG-CC-PVTZ
  Basis Set: (AUG-CC-PVTZ AUX)
    Blend: AUG-CC-PVTZ-JKFIT

    Orbital Energies [Eh]
    ---------------------

    Doubly Occupied:

       1A    -92.213922     2A    -20.614879     3A    -20.553669
       4A    -20.553625     5A    -11.301907     6A    -11.280256
       7A    -11.251627     8A    -11.233025     9A    -11.229522
      10A    -11.218613    11A     -9.178156    12A     -6.863613
      13A     -6.862170    14A     -6.861993    15A     -1.481041
      16A     -1.375081    17A     -1.337447    18A     -1.120405
      19A     -1.051485    20A     -0.995977    21A     -0.942333
      22A     -0.876800    23A     -0.830755    24A     -0.787006
      25A     -0.724985    26A     -0.692824    27A     -0.689922
      28A     -0.656590    29A     -0.635064    30A     -0.615847
      31A     -0.606640    32A     -0.584969    33A     -0.567080
      34A     -0.558699    35A     -0.554624    36A     -0.543471
      37A     -0.537389    38A     -0.510070    39A     -0.500025
      40A     -0.496863    41A     -0.490548    42A     -0.485028
      43A     -0.482536    44A     -0.463341    45A     -0.453671

  @DF-RHF Final Energy:  -857.62592401647169

   => Energetics <=

    Nuclear Repulsion Energy =            722.4641539765775633
    One-Electron Energy =               -2612.4491717475393671
    Two-Electron Energy =                1032.3590937544902317
    Total Energy =                       -857.6259240164715720
  Basis Set: (AUG-CC-PVTZ AUX)
    Blend: AUG-CC-PVTZ-RI
    Molecular point group: c1

    Geometry (in Angstrom), charge = 0, multiplicity = 1:

       Center              X                  Y                   Z               Mass
    ------------   -----------------  -----------------  -----------------  -----------------
         S           -0.263405566420    -0.398711416967     0.148337521331    31.972071174400
         O           -1.534534566420     0.604724583033    -0.118235478669    15.994914619570
         O           -0.319568566420    -1.483828416967    -0.833614478669    15.994914619570
         O           -0.184720566420    -0.717720416967     1.574868521331    15.994914619570
         C            2.393421433580     0.338410583033     0.204845521331    12.000000000000
         C            1.005398433580     0.785713583033    -0.259843478669    12.000000000000
         C            2.869285433580    -0.927529416967    -0.506372478669    12.000000000000
         C            3.372280433580     1.491219583033    -0.019542478669    12.000000000000
         C           -2.827682566420    -0.075928416967    -0.119151478669    12.000000000000
         C           -3.870915566420     1.007306583033    -0.258909478669    12.000000000000
         H            2.329593433580     0.138030583033     1.280927521331     1.007825032230
         H            0.962558733580     0.930376383033    -1.364188378669     1.007825032230
         H            0.705749433580     1.715271583033     0.233145521331     1.007825032230
         H            2.900398433580    -0.768670416967    -1.589798478669     1.007825032230
         H            2.219118433580    -1.782886416967    -0.312048478669     1.007825032230
         H            3.879087433580    -1.184367416967    -0.172802478669     1.007825032230
         H            3.449364433580     1.731366583033    -1.085412478669     1.007825032230
         H            3.059520433580     2.394402583033     0.513588521331     1.007825032230
         H            4.369729433580     1.216496583033     0.335793521331     1.007825032230
         H           -2.847129566420    -0.782317416967    -0.952775478669     1.007825032230
         H           -2.936216566420    -0.624555416967     0.821329521331     1.007825032230
         H           -3.815301566420     1.702113583033     0.581195521331     1.007825032230
         H           -3.722200566420     1.562378583033    -1.187357478669     1.007825032230
         H           -4.867787566420     0.557497583033    -0.276850478669     1.007825032230

  Basis Set: AUG-CC-PVTZ
    Blend: AUG-CC-PVTZ
  Basis Set: (AUG-CC-PVTZ AUX)
    Blend: AUG-CC-PVTZ-JKFIT
	 Reference Energy          =    -857.6259240164716857 [Eh]
	 Singles Energy            =      -0.0000000000000000 [Eh]
	 Same-Spin Energy          =      -0.5253311607001709 [Eh]
	 Opposite-Spin Energy      =      -1.6809608169797423 [Eh]
	 Correlation Energy        =      -2.2062919776799133 [Eh]
	 Total Energy              =    -859.8322159941516247 [Eh]

	 ================> DF-SCS-MP2 Energies <==================
	-----------------------------------------------------------
	 SCS Same-Spin Scale       =       0.3333333333333333 [-]
	 SCS Opposite-Spin Scale   =       1.2000000000000000 [-]
	 SCS Same-Spin Energy      =      -0.1751103869000570 [Eh]
	 SCS Opposite-Spin Energy  =      -2.0171529803756907 [Eh]
	 SCS Correlation Energy    =      -2.1922633672757477 [Eh]
	 SCS Total Energy          =    -859.8181873837473859 [Eh]
	-----------------------------------------------------------

  Dipole Moment: [D]
     X:    -0.0649      Y:     2.7071      Z:    -1.0418     Total:     2.9014

*** Psi4 exiting successfully. Buy a developer a beer!
