                               Psi4 1.4a3.dev225

  ==> Input File <==

--------------------------------------------------------------------------
#psi4
#
memory 32 gb

molecule  {
0 1
  S       -0.2946600    -0.4360860     0.1655790
  O       -1.5657890     0.5673500    -0.1009940
  O       -0.3508230    -1.5212030    -0.8163730
  O       -0.2159750    -0.7550950     1.5921100
  C        2.3621670     0.3010360     0.2220870
  C        0.9741440     0.7483390    -0.2426020
  C        2.8380310    -0.9649040    -0.4891310
  C        3.3410260     1.4538450    -0.0023010
  C       -2.8589370    -0.1133030    -0.1019100
  C       -3.9021700     0.9699320    -0.2416680
  H        2.2983390     0.1006560     1.2981690
  H        0.9320730     0.8904060    -1.3271310
  H        0.6744950     1.6778970     0.2503870
  H        2.8691440    -0.8060450    -1.5725570
  H        2.1878640    -1.8202610    -0.2948070
  H        3.8478330    -1.2217420    -0.1555610
  H        3.4181100     1.6939920    -1.0681710
  H        3.0282660     2.3570280     0.5308300
  H        4.3384750     1.1791220     0.3530350
  H       -2.8783840    -0.8196920    -0.9355340
  H       -2.9674710    -0.6619300     0.8385710
  H       -3.8645677     1.6604686     0.6029452
  H       -3.7534550     1.5250040    -1.1701160
  H       -4.8990420     0.5201230    -0.2596090
units angstrom
no_reorient  #important for SAPT in psi4, default
symmetry c1  #important for SAPT in psi4, default
}

set PROPERTIES_ORIGIN ["COM"]
properties('MP2/aug-cc-pvtz', properties = ['dipole'])
--------------------------------------------------------------------------

    Molecular point group: c1
  Charge       = 0
  Multiplicity = 1
  Basis Set: AUG-CC-PVTZ
    Blend: AUG-CC-PVTZ
  Basis Set: (AUG-CC-PVTZ AUX)
    Blend: AUG-CC-PVTZ-JKFIT

    Orbital Energies [Eh]
    ---------------------

    Doubly Occupied:

       1A    -92.213812     2A    -20.614867     3A    -20.553680
       4A    -20.553527     5A    -11.302049     6A    -11.278109
       7A    -11.251479     8A    -11.233037     9A    -11.229517
      10A    -11.218609    11A     -9.178061    12A     -6.863516
      13A     -6.862072    14A     -6.861897    15A     -1.481021
      16A     -1.375058    17A     -1.337415    18A     -1.120923
      19A     -1.051460    20A     -0.996724    21A     -0.942334
      22A     -0.877198    23A     -0.830766    24A     -0.788029
      25A     -0.725217    26A     -0.692849    27A     -0.690662
      28A     -0.656827    29A     -0.635064    30A     -0.616190
      31A     -0.606549    32A     -0.586603    33A     -0.567875
      34A     -0.559013    35A     -0.553930    36A     -0.543465
      37A     -0.537168    38A     -0.510085    39A     -0.500295
      40A     -0.496919    41A     -0.490504    42A     -0.485396
      43A     -0.482576    44A     -0.463315    45A     -0.453639

  @DF-RHF Final Energy:  -857.62649065717346

   => Energetics <=

    Nuclear Repulsion Energy =            722.5439099830377927
    One-Electron Energy =               -2612.6021968184363686
    Two-Electron Energy =                1032.4317961782251132
    Total Energy =                       -857.6264906571734628
  Basis Set: (AUG-CC-PVTZ AUX)
    Blend: AUG-CC-PVTZ-RI
    Molecular point group: c1

    Geometry (in Angstrom), charge = 0, multiplicity = 1:

       Center              X                  Y                   Z               Mass
    ------------   -----------------  -----------------  -----------------  -----------------
         S           -0.263300921949    -0.398669747311     0.148189903017    31.972071174400
         O           -1.534429921949     0.604766252689    -0.118383096983    15.994914619570
         O           -0.319463921949    -1.483786747311    -0.833762096983    15.994914619570
         O           -0.184615921949    -0.717678747311     1.574720903017    15.994914619570
         C            2.393526078051     0.338452252689     0.204697903017    12.000000000000
         C            1.005503078051     0.785755252689    -0.259991096983    12.000000000000
         C            2.869390078051    -0.927487747311    -0.506520096983    12.000000000000
         C            3.372385078051     1.491261252689    -0.019690096983    12.000000000000
         C           -2.827577921949    -0.075886747311    -0.119299096983    12.000000000000
         C           -3.870810921949     1.007348252689    -0.259057096983    12.000000000000
         H            2.329698078051     0.138072252689     1.280779903017     1.007825032230
         H            0.963432078051     0.927822252689    -1.344520096983     1.007825032230
         H            0.705854078051     1.715313252689     0.232997903017     1.007825032230
         H            2.900503078051    -0.768628747311    -1.589946096983     1.007825032230
         H            2.219223078051    -1.782844747311    -0.312196096983     1.007825032230
         H            3.879192078051    -1.184325747311    -0.172950096983     1.007825032230
         H            3.449469078051     1.731408252689    -1.085560096983     1.007825032230
         H            3.059625078051     2.394444252689     0.513440903017     1.007825032230
         H            4.369834078051     1.216538252689     0.335645903017     1.007825032230
         H           -2.847024921949    -0.782275747311    -0.952923096983     1.007825032230
         H           -2.936111921949    -0.624513747311     0.821181903017     1.007825032230
         H           -3.833208621949     1.697884852689     0.585556103017     1.007825032230
         H           -3.722095921949     1.562420252689    -1.187505096983     1.007825032230
         H           -4.867682921949     0.557539252689    -0.276998096983     1.007825032230

  Basis Set: AUG-CC-PVTZ
    Blend: AUG-CC-PVTZ
  Basis Set: (AUG-CC-PVTZ AUX)
    Blend: AUG-CC-PVTZ-JKFIT
	 Reference Energy          =    -857.6264906571734628 [Eh]
	 Singles Energy            =      -0.0000000000000000 [Eh]
	 Same-Spin Energy          =      -0.5252874625011283 [Eh]
	 Opposite-Spin Energy      =      -1.6807921844932014 [Eh]
	 Correlation Energy        =      -2.2060796469943300 [Eh]
	 Total Energy              =    -859.8325703041678025 [Eh]

	 ================> DF-SCS-MP2 Energies <==================
	-----------------------------------------------------------
	 SCS Same-Spin Scale       =       0.3333333333333333 [-]
	 SCS Opposite-Spin Scale   =       1.2000000000000000 [-]
	 SCS Same-Spin Energy      =      -0.1750958208337094 [Eh]
	 SCS Opposite-Spin Energy  =      -2.0169506213918416 [Eh]
	 SCS Correlation Energy    =      -2.1920464422255508 [Eh]
	 SCS Total Energy          =    -859.8185370993990091 [Eh]
	-----------------------------------------------------------

  Dipole Moment: [D]
     X:    -0.0721      Y:     2.7086      Z:    -1.0411     Total:     2.9027

*** Psi4 exiting successfully. Buy a developer a beer!
