                               Psi4 1.4a3.dev225

  ==> Input File <==

--------------------------------------------------------------------------
#psi4
#
memory 32 gb

molecule  {
0 1
  S       -0.2946600    -0.4360860     0.1655790
  O       -1.5657890     0.5673500    -0.1009940
  O       -0.3508230    -1.5212030    -0.8163730
  O       -0.2159750    -0.7550950     1.5921100
  C        2.3621670     0.3010360     0.2220870
  C        0.9741440     0.7483390    -0.2426020
  C        2.8380310    -0.9649040    -0.4891310
  C        3.3410260     1.4538450    -0.0023010
  C       -2.8589370    -0.1133030    -0.1019100
  C       -3.9021700     0.9699320    -0.2416680
  H        2.2983390     0.1006560     1.2981690
  H        0.9320730     0.8904060    -1.3271310
  H        0.6744950     1.6778970     0.2503870
  H        2.8691440    -0.8060450    -1.5725570
  H        2.1878640    -1.8202610    -0.2948070
  H        3.8478330    -1.2217420    -0.1555610
  H        3.4110723     1.6720669    -0.9708583
  H        3.0282660     2.3570280     0.5308300
  H        4.3384750     1.1791220     0.3530350
  H       -2.8783840    -0.8196920    -0.9355340
  H       -2.9674710    -0.6619300     0.8385710
  H       -3.8465560     1.6647390     0.5984370
  H       -3.7534550     1.5250040    -1.1701160
  H       -4.8990420     0.5201230    -0.2596090
units angstrom
no_reorient  #important for SAPT in psi4, default
symmetry c1  #important for SAPT in psi4, default
}

set PROPERTIES_ORIGIN ["COM"]
properties('MP2/aug-cc-pvtz', properties = ['dipole'])
--------------------------------------------------------------------------

    Molecular point group: c1
  Charge       = 0
  Multiplicity = 1
  Basis Set: AUG-CC-PVTZ
    Blend: AUG-CC-PVTZ
  Basis Set: (AUG-CC-PVTZ AUX)
    Blend: AUG-CC-PVTZ-JKFIT

    Orbital Energies [Eh]
    ---------------------

    Doubly Occupied:

       1A    -92.213713     2A    -20.614806     3A    -20.553578
       4A    -20.553399     5A    -11.301847     6A    -11.277985
       7A    -11.250382     8A    -11.232990     9A    -11.218490
      10A    -11.216853    11A     -9.177959    12A     -6.863415
      13A     -6.861970    14A     -6.861794    15A     -1.480917
      16A     -1.374975    17A     -1.337289    18A     -1.121812
      19A     -1.051848    20A     -0.998719    21A     -0.948078
      22A     -0.877813    23A     -0.831675    24A     -0.790702
      25A     -0.725203    26A     -0.692768    27A     -0.690789
      28A     -0.657169    29A     -0.636969    30A     -0.616306
      31A     -0.606609    32A     -0.588401    33A     -0.570913
      34A     -0.562952    35A     -0.556877    36A     -0.545459
      37A     -0.537180    38A     -0.509584    39A     -0.499876
      40A     -0.496956    41A     -0.489961    42A     -0.485311
      43A     -0.484594    44A     -0.463218    45A     -0.453230

  @DF-RHF Final Energy:  -857.62041776012211

   => Energetics <=

    Nuclear Repulsion Energy =            723.0355045657970550
    One-Electron Energy =               -2613.5451779342906775
    Two-Electron Energy =                1032.8892556083715135
    Total Energy =                       -857.6204177601221090
  Basis Set: (AUG-CC-PVTZ AUX)
    Blend: AUG-CC-PVTZ-RI
    Molecular point group: c1

    Geometry (in Angstrom), charge = 0, multiplicity = 1:

       Center              X                  Y                   Z               Mass
    ------------   -----------------  -----------------  -----------------  -----------------
         S           -0.263367521057    -0.398562604311     0.147626690244    31.972071174400
         O           -1.534496521057     0.604873395689    -0.118946309756    15.994914619570
         O           -0.319530521057    -1.483679604311    -0.834325309756    15.994914619570
         O           -0.184682521057    -0.717571604311     1.574157690244    15.994914619570
         C            2.393459478943     0.338559395689     0.204134690244    12.000000000000
         C            1.005436478943     0.785862395689    -0.260554309756    12.000000000000
         C            2.869323478943    -0.927380604311    -0.507083309756    12.000000000000
         C            3.372318478943     1.491368395689    -0.020253309756    12.000000000000
         C           -2.827644521057    -0.075779604311    -0.119862309756    12.000000000000
         C           -3.870877521057     1.007455395689    -0.259620309756    12.000000000000
         H            2.329631478943     0.138179395689     1.280216690244     1.007825032230
         H            0.963365478943     0.927929395689    -1.345083309756     1.007825032230
         H            0.705787478943     1.715420395689     0.232434690244     1.007825032230
         H            2.900436478943    -0.768521604311    -1.590509309756     1.007825032230
         H            2.219156478943    -1.782737604311    -0.312759309756     1.007825032230
         H            3.879125478943    -1.184218604311    -0.173513309756     1.007825032230
         H            3.442364778943     1.709590295689    -0.988810609756     1.007825032230
         H            3.059558478943     2.394551395689     0.512877690244     1.007825032230
         H            4.369767478943     1.216645395689     0.335082690244     1.007825032230
         H           -2.847091521057    -0.782168604311    -0.953486309756     1.007825032230
         H           -2.936178521057    -0.624406604311     0.820618690244     1.007825032230
         H           -3.815263521057     1.702262395689     0.580484690244     1.007825032230
         H           -3.722162521057     1.562527395689    -1.188068309756     1.007825032230
         H           -4.867749521057     0.557646395689    -0.277561309756     1.007825032230

  Basis Set: AUG-CC-PVTZ
    Blend: AUG-CC-PVTZ
  Basis Set: (AUG-CC-PVTZ AUX)
    Blend: AUG-CC-PVTZ-JKFIT
	 Reference Energy          =    -857.6204177601221090 [Eh]
	 Singles Energy            =      -0.0000000000000000 [Eh]
	 Same-Spin Energy          =      -0.5253229124757005 [Eh]
	 Opposite-Spin Energy      =      -1.6803593384601587 [Eh]
	 Correlation Energy        =      -2.2056822509358591 [Eh]
	 Total Energy              =    -859.8261000110579744 [Eh]

	 ================> DF-SCS-MP2 Energies <==================
	-----------------------------------------------------------
	 SCS Same-Spin Scale       =       0.3333333333333333 [-]
	 SCS Opposite-Spin Scale   =       1.2000000000000000 [-]
	 SCS Same-Spin Energy      =      -0.1751076374919002 [Eh]
	 SCS Opposite-Spin Energy  =      -2.0164312061521903 [Eh]
	 SCS Correlation Energy    =      -2.1915388436440906 [Eh]
	 SCS Total Energy          =    -859.8119566037662480 [Eh]
	-----------------------------------------------------------

  Dipole Moment: [D]
     X:    -0.0529      Y:     2.7296      Z:    -1.0901     Total:     2.9397

*** Psi4 exiting successfully. Buy a developer a beer!
