                               Psi4 1.4a3.dev225

  ==> Input File <==

--------------------------------------------------------------------------
#psi4
#
memory 32 gb

molecule  {
0 1
  S       -0.2946600    -0.4360860     0.1655790
  O       -1.5657890     0.5673500    -0.1009940
  O       -0.3890994    -1.5421318    -0.7897255
  O       -0.2159750    -0.7550950     1.5921100
  C        2.3621670     0.3010360     0.2220870
  C        0.9741440     0.7483390    -0.2426020
  C        2.8380310    -0.9649040    -0.4891310
  C        3.3410260     1.4538450    -0.0023010
  C       -2.8589370    -0.1133030    -0.1019100
  C       -3.9021700     0.9699320    -0.2416680
  H        2.2983390     0.1006560     1.2981690
  H        0.9320730     0.8904060    -1.3271310
  H        0.6744950     1.6778970     0.2503870
  H        2.8691440    -0.8060450    -1.5725570
  H        2.1878640    -1.8202610    -0.2948070
  H        3.8478330    -1.2217420    -0.1555610
  H        3.4181100     1.6939920    -1.0681710
  H        3.0282660     2.3570280     0.5308300
  H        4.3384750     1.1791220     0.3530350
  H       -2.8783840    -0.8196920    -0.9355340
  H       -2.9674710    -0.6619300     0.8385710
  H       -3.8465560     1.6647390     0.5984370
  H       -3.7534550     1.5250040    -1.1701160
  H       -4.8990420     0.5201230    -0.2596090
units angstrom
no_reorient  #important for SAPT in psi4, default
symmetry c1  #important for SAPT in psi4, default
}

set PROPERTIES_ORIGIN ["COM"]
properties('MP2/aug-cc-pvtz', properties = ['dipole'])
--------------------------------------------------------------------------

    Molecular point group: c1
  Charge       = 0
  Multiplicity = 1
  Basis Set: AUG-CC-PVTZ
    Blend: AUG-CC-PVTZ
  Basis Set: (AUG-CC-PVTZ AUX)
    Blend: AUG-CC-PVTZ-JKFIT

    Orbital Energies [Eh]
    ---------------------

    Doubly Occupied:

       1A    -92.213456     2A    -20.613625     3A    -20.553031
       4A    -20.551304     5A    -11.300758     6A    -11.280591
       7A    -11.252665     8A    -11.232297     9A    -11.230482
      10A    -11.219872    11A     -9.177757    12A     -6.863217
      13A     -6.861741    14A     -6.861604    15A     -1.480527
      16A     -1.373958    17A     -1.335304    18A     -1.122549
      19A     -1.051124    20A     -0.997911    21A     -0.943477
      22A     -0.876755    23A     -0.830141    24A     -0.788721
      25A     -0.725102    26A     -0.692021    27A     -0.691030
      28A     -0.656804    29A     -0.634791    30A     -0.617095
      31A     -0.606467    32A     -0.587549    33A     -0.566698
      34A     -0.558588    35A     -0.554513    36A     -0.544438
      37A     -0.536759    38A     -0.510715    39A     -0.499157
      40A     -0.496279    41A     -0.491304    42A     -0.484773
      43A     -0.482534    44A     -0.462073    45A     -0.455036

  @DF-RHF Final Energy:  -857.62664654366927

   => Energetics <=

    Nuclear Repulsion Energy =            722.4563811224792289
    One-Electron Energy =               -2612.4328738362983131
    Two-Electron Energy =                1032.3498461701497035
    Total Energy =                       -857.6266465436692670
  Basis Set: (AUG-CC-PVTZ AUX)
    Blend: AUG-CC-PVTZ-RI
    Molecular point group: c1

    Geometry (in Angstrom), charge = 0, multiplicity = 1:

       Center              X                  Y                   Z               Mass
    ------------   -----------------  -----------------  -----------------  -----------------
         S           -0.259723586429    -0.396679876863     0.145650671131    31.972071174400
         O           -1.530852586429     0.606756123137    -0.120922328869    15.994914619570
         O           -0.354162986429    -1.502725676863    -0.809653828869    15.994914619570
         O           -0.181038586429    -0.715688876863     1.572181671131    15.994914619570
         C            2.397103413571     0.340442123137     0.202158671131    12.000000000000
         C            1.009080413571     0.787745123137    -0.262530328869    12.000000000000
         C            2.872967413571    -0.925497876863    -0.509059328869    12.000000000000
         C            3.375962413571     1.493251123137    -0.022229328869    12.000000000000
         C           -2.824000586429    -0.073896876863    -0.121838328869    12.000000000000
         C           -3.867233586429     1.009338123137    -0.261596328869    12.000000000000
         H            2.333275413571     0.140062123137     1.278240671131     1.007825032230
         H            0.967009413571     0.929812123137    -1.347059328869     1.007825032230
         H            0.709431413571     1.717303123137     0.230458671131     1.007825032230
         H            2.904080413571    -0.766638876863    -1.592485328869     1.007825032230
         H            2.222800413571    -1.780854876863    -0.314735328869     1.007825032230
         H            3.882769413571    -1.182335876863    -0.175489328869     1.007825032230
         H            3.453046413571     1.733398123137    -1.088099328869     1.007825032230
         H            3.063202413571     2.396434123137     0.510901671131     1.007825032230
         H            4.373411413571     1.218528123137     0.333106671131     1.007825032230
         H           -2.843447586429    -0.780285876863    -0.955462328869     1.007825032230
         H           -2.932534586429    -0.622523876863     0.818642671131     1.007825032230
         H           -3.811619586429     1.704145123137     0.578508671131     1.007825032230
         H           -3.718518586429     1.564410123137    -1.190044328869     1.007825032230
         H           -4.864105586429     0.559529123137    -0.279537328869     1.007825032230

  Basis Set: AUG-CC-PVTZ
    Blend: AUG-CC-PVTZ
  Basis Set: (AUG-CC-PVTZ AUX)
    Blend: AUG-CC-PVTZ-JKFIT
	 Reference Energy          =    -857.6266465436692670 [Eh]
	 Singles Energy            =      -0.0000000000000000 [Eh]
	 Same-Spin Energy          =      -0.5252082610796398 [Eh]
	 Opposite-Spin Energy      =      -1.6805760903800029 [Eh]
	 Correlation Energy        =      -2.2057843514596427 [Eh]
	 Total Energy              =    -859.8324308951289368 [Eh]

	 ================> DF-SCS-MP2 Energies <==================
	-----------------------------------------------------------
	 SCS Same-Spin Scale       =       0.3333333333333333 [-]
	 SCS Opposite-Spin Scale   =       1.2000000000000000 [-]
	 SCS Same-Spin Energy      =      -0.1750694203598799 [Eh]
	 SCS Opposite-Spin Energy  =      -2.0166913084560032 [Eh]
	 SCS Correlation Energy    =      -2.1917607288158831 [Eh]
	 SCS Total Energy          =    -859.8184072724851603 [Eh]
	-----------------------------------------------------------

  Dipole Moment: [D]
     X:     0.0702      Y:     2.7668      Z:    -1.1055     Total:     2.9803

*** Psi4 exiting successfully. Buy a developer a beer!
