                               Psi4 1.4a3.dev225

  ==> Input File <==

--------------------------------------------------------------------------
#psi4
#
memory 32 gb

molecule  {
0 1
  S       -0.2946600    -0.4360860     0.1655790
  O       -1.5657890     0.5673500    -0.1009940
  O       -0.3508230    -1.5212030    -0.8163730
  O       -0.2159750    -0.7550950     1.5921100
  C        2.3621670     0.3010360     0.2220870
  C        0.9741440     0.7483390    -0.2426020
  C        2.8380310    -0.9649040    -0.4891310
  C        3.3410260     1.4538450    -0.0023010
  C       -2.8589370    -0.1133030    -0.1019100
  C       -3.9021700     0.9699320    -0.2416680
  H        2.2983390     0.1006560     1.2981690
  H        0.9320730     0.8904060    -1.3271310
  H        0.6744950     1.6778970     0.2503870
  H        2.8691440    -0.8060450    -1.5725570
  H        2.1878640    -1.8202610    -0.2948070
  H        3.8478330    -1.2217420    -0.1555610
  H        3.4181100     1.6939920    -1.0681710
  H        3.0282660     2.3570280     0.5308300
  H        4.3384750     1.1791220     0.3530350
  H       -2.8783840    -0.8196920    -0.9355340
  H       -2.9674710    -0.6619300     0.8385710
  H       -3.8404410     1.6930873     0.5737227
  H       -3.7534550     1.5250040    -1.1701160
  H       -4.8990420     0.5201230    -0.2596090
units angstrom
no_reorient  #important for SAPT in psi4, default
symmetry c1  #important for SAPT in psi4, default
}

set PROPERTIES_ORIGIN ["COM"]
properties('MP2/aug-cc-pvtz', properties = ['dipole'])
--------------------------------------------------------------------------

    Molecular point group: c1
  Charge       = 0
  Multiplicity = 1
  Basis Set: AUG-CC-PVTZ
    Blend: AUG-CC-PVTZ
  Basis Set: (AUG-CC-PVTZ AUX)
    Blend: AUG-CC-PVTZ-JKFIT

    Orbital Energies [Eh]
    ---------------------

    Doubly Occupied:

       1A    -92.213868     2A    -20.614968     3A    -20.553737
       4A    -20.553566     5A    -11.302202     6A    -11.278160
       7A    -11.251515     8A    -11.232945     9A    -11.229549
      10A    -11.218638    11A     -9.178116    12A     -6.863572
      13A     -6.862127    14A     -6.861952    15A     -1.481082
      16A     -1.375131    17A     -1.337461    18A     -1.120963
      19A     -1.051383    20A     -0.996703    21A     -0.942365
      22A     -0.877294    23A     -0.831078    24A     -0.788063
      25A     -0.725243    26A     -0.692617    27A     -0.690837
      28A     -0.656538    29A     -0.634898    30A     -0.616253
      31A     -0.607460    32A     -0.586761    33A     -0.566818
      34A     -0.557577    35A     -0.554872    36A     -0.543943
      37A     -0.538585    38A     -0.510031    39A     -0.500208
      40A     -0.496415    41A     -0.490442    42A     -0.485395
      43A     -0.482567    44A     -0.463353    45A     -0.453695

  @DF-RHF Final Energy:  -857.62639346948663

   => Energetics <=

    Nuclear Repulsion Energy =            722.5596455078440385
    One-Electron Energy =               -2612.6301847148538400
    Two-Electron Energy =                1032.4441457375232858
    Total Energy =                       -857.6263934694866293
  Basis Set: (AUG-CC-PVTZ AUX)
    Blend: AUG-CC-PVTZ-RI
    Molecular point group: c1

    Geometry (in Angstrom), charge = 0, multiplicity = 1:

       Center              X                  Y                   Z               Mass
    ------------   -----------------  -----------------  -----------------  -----------------
         S           -0.263447342280    -0.398867703967     0.148367248784    31.972071174400
         O           -1.534576342280     0.604568296033    -0.118205751216    15.994914619570
         O           -0.319610342280    -1.483984703967    -0.833584751216    15.994914619570
         O           -0.184762342280    -0.717876703967     1.574898248784    15.994914619570
         C            2.393379657720     0.338254296033     0.204875248784    12.000000000000
         C            1.005356657720     0.785557296033    -0.259813751216    12.000000000000
         C            2.869243657720    -0.927685703967    -0.506342751216    12.000000000000
         C            3.372238657720     1.491063296033    -0.019512751216    12.000000000000
         C           -2.827724342280    -0.076084703967    -0.119121751216    12.000000000000
         C           -3.870957342280     1.007150296033    -0.258879751216    12.000000000000
         H            2.329551657720     0.137874296033     1.280957248784     1.007825032230
         H            0.963285657720     0.927624296033    -1.344342751216     1.007825032230
         H            0.705707657720     1.715115296033     0.233175248784     1.007825032230
         H            2.900356657720    -0.768826703967    -1.589768751216     1.007825032230
         H            2.219076657720    -1.783042703967    -0.312018751216     1.007825032230
         H            3.879045657720    -1.184523703967    -0.172772751216     1.007825032230
         H            3.449322657720     1.731210296033    -1.085382751216     1.007825032230
         H            3.059478657720     2.394246296033     0.513618248784     1.007825032230
         H            4.369687657720     1.216340296033     0.335823248784     1.007825032230
         H           -2.847171342280    -0.782473703967    -0.952745751216     1.007825032230
         H           -2.936258342280    -0.624711703967     0.821359248784     1.007825032230
         H           -3.809228342280     1.730305596033     0.556510948784     1.007825032230
         H           -3.722242342280     1.562222296033    -1.187327751216     1.007825032230
         H           -4.867829342280     0.557341296033    -0.276820751216     1.007825032230

  Basis Set: AUG-CC-PVTZ
    Blend: AUG-CC-PVTZ
  Basis Set: (AUG-CC-PVTZ AUX)
    Blend: AUG-CC-PVTZ-JKFIT
	 Reference Energy          =    -857.6263934694866293 [Eh]
	 Singles Energy            =      -0.0000000000000000 [Eh]
	 Same-Spin Energy          =      -0.5252854106378724 [Eh]
	 Opposite-Spin Energy      =      -1.6807853850160444 [Eh]
	 Correlation Energy        =      -2.2060707956539165 [Eh]
	 Total Energy              =    -859.8324642651405156 [Eh]

	 ================> DF-SCS-MP2 Energies <==================
	-----------------------------------------------------------
	 SCS Same-Spin Scale       =       0.3333333333333333 [-]
	 SCS Opposite-Spin Scale   =       1.2000000000000000 [-]
	 SCS Same-Spin Energy      =      -0.1750951368792908 [Eh]
	 SCS Opposite-Spin Energy  =      -2.0169424620192533 [Eh]
	 SCS Correlation Energy    =      -2.1920375988985441 [Eh]
	 SCS Total Energy          =    -859.8184310683851663 [Eh]
	-----------------------------------------------------------

  Dipole Moment: [D]
     X:    -0.0578      Y:     2.7166      Z:    -1.0492     Total:     2.9128

*** Psi4 exiting successfully. Buy a developer a beer!
