                               Psi4 1.4a3.dev225

  ==> Input File <==

--------------------------------------------------------------------------
#psi4
#
memory 32 gb

molecule  {
0 1
  S       -0.2595134    -0.3910414     0.1613873
  O       -1.5657890     0.5673500    -0.1009940
  O       -0.3508230    -1.5212030    -0.8163730
  O       -0.2159750    -0.7550950     1.5921100
  C        2.3621670     0.3010360     0.2220870
  C        0.9741440     0.7483390    -0.2426020
  C        2.8380310    -0.9649040    -0.4891310
  C        3.3410260     1.4538450    -0.0023010
  C       -2.8589370    -0.1133030    -0.1019100
  C       -3.9021700     0.9699320    -0.2416680
  H        2.2983390     0.1006560     1.2981690
  H        0.9320730     0.8904060    -1.3271310
  H        0.6744950     1.6778970     0.2503870
  H        2.8691440    -0.8060450    -1.5725570
  H        2.1878640    -1.8202610    -0.2948070
  H        3.8478330    -1.2217420    -0.1555610
  H        3.4181100     1.6939920    -1.0681710
  H        3.0282660     2.3570280     0.5308300
  H        4.3384750     1.1791220     0.3530350
  H       -2.8783840    -0.8196920    -0.9355340
  H       -2.9674710    -0.6619300     0.8385710
  H       -3.8465560     1.6647390     0.5984370
  H       -3.7534550     1.5250040    -1.1701160
  H       -4.8990420     0.5201230    -0.2596090
units angstrom
no_reorient  #important for SAPT in psi4, default
symmetry c1  #important for SAPT in psi4, default
}

set PROPERTIES_ORIGIN ["COM"]
properties('MP2/aug-cc-pvtz', properties = ['dipole'])
--------------------------------------------------------------------------

    Molecular point group: c1
  Charge       = 0
  Multiplicity = 1
  Basis Set: AUG-CC-PVTZ
    Blend: AUG-CC-PVTZ
  Basis Set: (AUG-CC-PVTZ AUX)
    Blend: AUG-CC-PVTZ-JKFIT

    Orbital Energies [Eh]
    ---------------------

    Doubly Occupied:

       1A    -92.215658     2A    -20.613426     3A    -20.551168
       4A    -20.546397     5A    -11.300734     6A    -11.282870
       7A    -11.256799     8A    -11.232882     9A    -11.232170
      10A    -11.220717    11A     -9.180050    12A     -6.865431
      13A     -6.864113    14A     -6.863601    15A     -1.471813
      16A     -1.367326    17A     -1.319065    18A     -1.131536
      19A     -1.054025    20A     -1.008530    21A     -0.945255
      22A     -0.878143    23A     -0.830353    24A     -0.791353
      25A     -0.726472    26A     -0.693148    27A     -0.689177
      28A     -0.658349    29A     -0.631807    30A     -0.618544
      31A     -0.603991    32A     -0.587910    33A     -0.567009
      34A     -0.557526    35A     -0.554005    36A     -0.545317
      37A     -0.534510    38A     -0.509778    39A     -0.496994
      40A     -0.495503    41A     -0.491098    42A     -0.485345
      43A     -0.478945    44A     -0.459534    45A     -0.454658

  @DF-RHF Final Energy:  -857.61966263937313

   => Energetics <=

    Nuclear Repulsion Energy =            722.6143461617841695
    One-Electron Energy =               -2612.7419444043262047
    Two-Electron Energy =                1032.5079356031690168
    Total Energy =                       -857.6196626393730185
  Basis Set: (AUG-CC-PVTZ AUX)
    Blend: AUG-CC-PVTZ-RI
    Molecular point group: c1

    Geometry (in Angstrom), charge = 0, multiplicity = 1:

       Center              X                  Y                   Z               Mass
    ------------   -----------------  -----------------  -----------------  -----------------
         S           -0.235030261189    -0.362323314270     0.144832573103    31.972071174400
         O           -1.541305861189     0.596068085730    -0.117548726897    15.994914619570
         O           -0.326339861189    -1.492484914270    -0.832927726897    15.994914619570
         O           -0.191491861189    -0.726376914270     1.575555273103    15.994914619570
         C            2.386650138811     0.329754085730     0.205532273103    12.000000000000
         C            0.998627138811     0.777057085730    -0.259156726897    12.000000000000
         C            2.862514138811    -0.936185914270    -0.505685726897    12.000000000000
         C            3.365509138811     1.482563085730    -0.018855726897    12.000000000000
         C           -2.834453861189    -0.084584914270    -0.118464726897    12.000000000000
         C           -3.877686861189     0.998650085730    -0.258222726897    12.000000000000
         H            2.322822138811     0.129374085730     1.281614273103     1.007825032230
         H            0.956556138811     0.919124085730    -1.343685726897     1.007825032230
         H            0.698978138811     1.706615085730     0.233832273103     1.007825032230
         H            2.893627138811    -0.777326914270    -1.589111726897     1.007825032230
         H            2.212347138811    -1.791542914270    -0.311361726897     1.007825032230
         H            3.872316138811    -1.193023914270    -0.172115726897     1.007825032230
         H            3.442593138811     1.722710085730    -1.084725726897     1.007825032230
         H            3.052749138811     2.385746085730     0.514275273103     1.007825032230
         H            4.362958138811     1.207840085730     0.336480273103     1.007825032230
         H           -2.853900861189    -0.790973914270    -0.952088726897     1.007825032230
         H           -2.942987861189    -0.633211914270     0.822016273103     1.007825032230
         H           -3.822072861189     1.693457085730     0.581882273103     1.007825032230
         H           -3.728971861189     1.553722085730    -1.186670726897     1.007825032230
         H           -4.874558861189     0.548841085730    -0.276163726897     1.007825032230

  Basis Set: AUG-CC-PVTZ
    Blend: AUG-CC-PVTZ
  Basis Set: (AUG-CC-PVTZ AUX)
    Blend: AUG-CC-PVTZ-JKFIT
	 Reference Energy          =    -857.6196626393731322 [Eh]
	 Singles Energy            =      -0.0000000000000000 [Eh]
	 Same-Spin Energy          =      -0.5262811776281131 [Eh]
	 Opposite-Spin Energy      =      -1.6822057662663004 [Eh]
	 Correlation Energy        =      -2.2084869438944135 [Eh]
	 Total Energy              =    -859.8281495832675319 [Eh]

	 ================> DF-SCS-MP2 Energies <==================
	-----------------------------------------------------------
	 SCS Same-Spin Scale       =       0.3333333333333333 [-]
	 SCS Opposite-Spin Scale   =       1.2000000000000000 [-]
	 SCS Same-Spin Energy      =      -0.1754270592093710 [Eh]
	 SCS Opposite-Spin Energy  =      -2.0186469195195604 [Eh]
	 SCS Correlation Energy    =      -2.1940739787289316 [Eh]
	 SCS Total Energy          =    -859.8137366181020980 [Eh]
	-----------------------------------------------------------

  Dipole Moment: [D]
     X:     0.2717      Y:     3.0583      Z:    -1.0596     Total:     3.2481

*** Psi4 exiting successfully. Buy a developer a beer!
