                               Psi4 1.4a3.dev225

  ==> Input File <==

--------------------------------------------------------------------------
#psi4
#
memory 32 gb

molecule  {
0 1
  S       -0.2946600    -0.4360860     0.1655790
  O       -1.5589135     0.5538373    -0.1215034
  O       -0.3508230    -1.5212030    -0.8163730
  O       -0.2159750    -0.7550950     1.5921100
  C        2.3621670     0.3010360     0.2220870
  C        0.9741440     0.7483390    -0.2426020
  C        2.8380310    -0.9649040    -0.4891310
  C        3.3410260     1.4538450    -0.0023010
  C       -2.8589370    -0.1133030    -0.1019100
  C       -3.9021700     0.9699320    -0.2416680
  H        2.2983390     0.1006560     1.2981690
  H        0.9320730     0.8904060    -1.3271310
  H        0.6744950     1.6778970     0.2503870
  H        2.8691440    -0.8060450    -1.5725570
  H        2.1878640    -1.8202610    -0.2948070
  H        3.8478330    -1.2217420    -0.1555610
  H        3.4181100     1.6939920    -1.0681710
  H        3.0282660     2.3570280     0.5308300
  H        4.3384750     1.1791220     0.3530350
  H       -2.8783840    -0.8196920    -0.9355340
  H       -2.9674710    -0.6619300     0.8385710
  H       -3.8465560     1.6647390     0.5984370
  H       -3.7534550     1.5250040    -1.1701160
  H       -4.8990420     0.5201230    -0.2596090
units angstrom
no_reorient  #important for SAPT in psi4, default
symmetry c1  #important for SAPT in psi4, default
}

set PROPERTIES_ORIGIN ["COM"]
properties('MP2/aug-cc-pvtz', properties = ['dipole'])
--------------------------------------------------------------------------

    Molecular point group: c1
  Charge       = 0
  Multiplicity = 1
  Basis Set: AUG-CC-PVTZ
    Blend: AUG-CC-PVTZ
  Basis Set: (AUG-CC-PVTZ AUX)
    Blend: AUG-CC-PVTZ-JKFIT

    Orbital Energies [Eh]
    ---------------------

    Doubly Occupied:

       1A    -92.213373     2A    -20.615005     3A    -20.553782
       4A    -20.551552     5A    -11.302701     6A    -11.277684
       7A    -11.251187     8A    -11.233767     9A    -11.229306
      10A    -11.218290    11A     -9.177622    12A     -6.863113
      13A     -6.861652    14A     -6.861466    15A     -1.482795
      16A     -1.375949    17A     -1.336699    18A     -1.120669
      19A     -1.052711    20A     -0.996590    21A     -0.942063
      22A     -0.878563    23A     -0.830111    24A     -0.788012
      25A     -0.725777    26A     -0.693982    27A     -0.690607
      28A     -0.656949    29A     -0.634575    30A     -0.616242
      31A     -0.606808    32A     -0.586420    33A     -0.568147
      34A     -0.559355    35A     -0.554783    36A     -0.543330
      37A     -0.537501    38A     -0.509503    39A     -0.499909
      40A     -0.497057    41A     -0.490399    42A     -0.485465
      43A     -0.482371    44A     -0.462665    45A     -0.453414

  @DF-RHF Final Energy:  -857.62744595053482

   => Energetics <=

    Nuclear Repulsion Energy =            722.9499815449973994
    One-Electron Energy =               -2613.4150091563915339
    Two-Electron Energy =                1032.8375816608593141
    Total Energy =                       -857.6274459505348204
  Basis Set: (AUG-CC-PVTZ AUX)
    Blend: AUG-CC-PVTZ-RI
    Molecular point group: c1

    Geometry (in Angstrom), charge = 0, multiplicity = 1:

       Center              X                  Y                   Z               Mass
    ------------   -----------------  -----------------  -----------------  -----------------
         S           -0.264072454927    -0.397394168923     0.150192654012    31.972071174400
         O           -1.528325954927     0.592529131077    -0.136889745988    15.994914619570
         O           -0.320235454927    -1.482511168923    -0.831759345988    15.994914619570
         O           -0.185387454927    -0.716403168923     1.576723654012    15.994914619570
         C            2.392754545073     0.339727831077     0.206700654012    12.000000000000
         C            1.004731545073     0.787030831077    -0.257988345988    12.000000000000
         C            2.868618545073    -0.926212168923    -0.504517345988    12.000000000000
         C            3.371613545073     1.492536831077    -0.017687345988    12.000000000000
         C           -2.828349454927    -0.074611168923    -0.117296345988    12.000000000000
         C           -3.871582454927     1.008623831077    -0.257054345988    12.000000000000
         H            2.328926545073     0.139347831077     1.282782654012     1.007825032230
         H            0.962660545073     0.929097831077    -1.342517345988     1.007825032230
         H            0.705082545073     1.716588831077     0.235000654012     1.007825032230
         H            2.899731545073    -0.767353168923    -1.587943345988     1.007825032230
         H            2.218451545073    -1.781569168923    -0.310193345988     1.007825032230
         H            3.878420545073    -1.183050168923    -0.170947345988     1.007825032230
         H            3.448697545073     1.732683831077    -1.083557345988     1.007825032230
         H            3.058853545073     2.395719831077     0.515443654012     1.007825032230
         H            4.369062545073     1.217813831077     0.337648654012     1.007825032230
         H           -2.847796454927    -0.781000168923    -0.950920345988     1.007825032230
         H           -2.936883454927    -0.623238168923     0.823184654012     1.007825032230
         H           -3.815968454927     1.703430831077     0.583050654012     1.007825032230
         H           -3.722867454927     1.563695831077    -1.185502345988     1.007825032230
         H           -4.868454454927     0.558814831077    -0.274995345988     1.007825032230

  Basis Set: AUG-CC-PVTZ
    Blend: AUG-CC-PVTZ
  Basis Set: (AUG-CC-PVTZ AUX)
    Blend: AUG-CC-PVTZ-JKFIT
	 Reference Energy          =    -857.6274459505348204 [Eh]
	 Singles Energy            =      -0.0000000000000000 [Eh]
	 Same-Spin Energy          =      -0.5250698587312765 [Eh]
	 Opposite-Spin Energy      =      -1.6802165925920405 [Eh]
	 Correlation Energy        =      -2.2052864513233170 [Eh]
	 Total Energy              =    -859.8327324018581521 [Eh]

	 ================> DF-SCS-MP2 Energies <==================
	-----------------------------------------------------------
	 SCS Same-Spin Scale       =       0.3333333333333333 [-]
	 SCS Opposite-Spin Scale   =       1.2000000000000000 [-]
	 SCS Same-Spin Energy      =      -0.1750232862437588 [Eh]
	 SCS Opposite-Spin Energy  =      -2.0162599111104487 [Eh]
	 SCS Correlation Energy    =      -2.1912831973542075 [Eh]
	 SCS Total Energy          =    -859.8187291478890302 [Eh]
	-----------------------------------------------------------

  Dipole Moment: [D]
     X:    -0.1330      Y:     2.7522      Z:    -1.0080     Total:     2.9340

*** Psi4 exiting successfully. Buy a developer a beer!
