                               Psi4 1.4a3.dev225

  ==> Input File <==

--------------------------------------------------------------------------
#psi4
#
memory 32 gb

molecule  {
0 1
  S       -0.2946600    -0.4360860     0.1655790
  O       -1.5657890     0.5673500    -0.1009940
  O       -0.3508230    -1.5212030    -0.8163730
  O       -0.2159750    -0.7550950     1.5921100
  C        2.3621670     0.3010360     0.2220870
  C        0.9741440     0.7483390    -0.2426020
  C        2.8380310    -0.9649040    -0.4891310
  C        3.3410260     1.4538450    -0.0023010
  C       -2.9474274    -0.1598802    -0.1019727
  C       -3.9021700     0.9699320    -0.2416680
  H        2.2983390     0.1006560     1.2981690
  H        0.9320730     0.8904060    -1.3271310
  H        0.6744950     1.6778970     0.2503870
  H        2.8691440    -0.8060450    -1.5725570
  H        2.1878640    -1.8202610    -0.2948070
  H        3.8478330    -1.2217420    -0.1555610
  H        3.4181100     1.6939920    -1.0681710
  H        3.0282660     2.3570280     0.5308300
  H        4.3384750     1.1791220     0.3530350
  H       -2.8783840    -0.8196920    -0.9355340
  H       -2.9674710    -0.6619300     0.8385710
  H       -3.8465560     1.6647390     0.5984370
  H       -3.7534550     1.5250040    -1.1701160
  H       -4.8990420     0.5201230    -0.2596090
units angstrom
no_reorient  #important for SAPT in psi4, default
symmetry c1  #important for SAPT in psi4, default
}

set PROPERTIES_ORIGIN ["COM"]
properties('MP2/aug-cc-pvtz', properties = ['dipole'])
--------------------------------------------------------------------------

    Molecular point group: c1
  Charge       = 0
  Multiplicity = 1
  Basis Set: AUG-CC-PVTZ
    Blend: AUG-CC-PVTZ
  Basis Set: (AUG-CC-PVTZ AUX)
    Blend: AUG-CC-PVTZ-JKFIT

    Orbital Energies [Eh]
    ---------------------

    Doubly Occupied:

       1A    -92.207377     2A    -20.603185     3A    -20.548617
       4A    -20.548270     5A    -11.308392     6A    -11.273490
       7A    -11.248203     8A    -11.237790     9A    -11.227056
      10A    -11.216117    11A     -9.171508    12A     -6.856881
      13A     -6.855607    14A     -6.855452    15A     -1.469247
      16A     -1.351979    17A     -1.332616    18A     -1.117117
      19A     -1.060107    20A     -0.994766    21A     -0.939805
      22A     -0.875664    23A     -0.831064    24A     -0.783448
      25A     -0.712732    26A     -0.690573    27A     -0.684987
      28A     -0.657106    29A     -0.633775    30A     -0.612005
      31A     -0.599264    32A     -0.583815    33A     -0.567552
      34A     -0.555886    35A     -0.551656    36A     -0.543661
      37A     -0.539922    38A     -0.512244    39A     -0.504518
      40A     -0.497251    41A     -0.486714    42A     -0.482053
      43A     -0.479478    44A     -0.459288    45A     -0.448012

  @DF-RHF Final Energy:  -857.61851601603439

   => Energetics <=

    Nuclear Repulsion Energy =            720.6062729409117082
    One-Electron Energy =               -2609.0170730742761407
    Two-Electron Energy =                1030.7922841173299275
    Total Energy =                       -857.6185160160343912
  Basis Set: (AUG-CC-PVTZ AUX)
    Blend: AUG-CC-PVTZ-RI
    Molecular point group: c1

    Geometry (in Angstrom), charge = 0, multiplicity = 1:

       Center              X                  Y                   Z               Mass
    ------------   -----------------  -----------------  -----------------  -----------------
         S           -0.257015891534    -0.395329982619     0.148221793140    31.972071174400
         O           -1.528144891534     0.608106017381    -0.118351206860    15.994914619570
         O           -0.313178891534    -1.480446982619    -0.833730206860    15.994914619570
         O           -0.178330891534    -0.714338982619     1.574752793140    15.994914619570
         C            2.399811108466     0.341792017381     0.204729793140    12.000000000000
         C            1.011788108466     0.789095017381    -0.259959206860    12.000000000000
         C            2.875675108466    -0.924147982619    -0.506488206860    12.000000000000
         C            3.378670108466     1.494601017381    -0.019658206860    12.000000000000
         C           -2.909783291534    -0.119124182619    -0.119329906860    12.000000000000
         C           -3.864525891534     1.010688017381    -0.259025206860    12.000000000000
         H            2.335983108466     0.141412017381     1.280811793140     1.007825032230
         H            0.969717108466     0.931162017381    -1.344488206860     1.007825032230
         H            0.712139108466     1.718653017381     0.233029793140     1.007825032230
         H            2.906788108466    -0.765288982619    -1.589914206860     1.007825032230
         H            2.225508108466    -1.779504982619    -0.312164206860     1.007825032230
         H            3.885477108466    -1.180985982619    -0.172918206860     1.007825032230
         H            3.455754108466     1.734748017381    -1.085528206860     1.007825032230
         H            3.065910108466     2.397784017381     0.513472793140     1.007825032230
         H            4.376119108466     1.219878017381     0.335677793140     1.007825032230
         H           -2.840739891534    -0.778935982619    -0.952891206860     1.007825032230
         H           -2.929826891534    -0.621173982619     0.821213793140     1.007825032230
         H           -3.808911891534     1.705495017381     0.581079793140     1.007825032230
         H           -3.715810891534     1.565760017381    -1.187473206860     1.007825032230
         H           -4.861397891534     0.560879017381    -0.276966206860     1.007825032230

  Basis Set: AUG-CC-PVTZ
    Blend: AUG-CC-PVTZ
  Basis Set: (AUG-CC-PVTZ AUX)
    Blend: AUG-CC-PVTZ-JKFIT
	 Reference Energy          =    -857.6185160160343912 [Eh]
	 Singles Energy            =      -0.0000000000000000 [Eh]
	 Same-Spin Energy          =      -0.5255693804523924 [Eh]
	 Opposite-Spin Energy      =      -1.6819057522617469 [Eh]
	 Correlation Energy        =      -2.2074751327141393 [Eh]
	 Total Energy              =    -859.8259911487485851 [Eh]

	 ================> DF-SCS-MP2 Energies <==================
	-----------------------------------------------------------
	 SCS Same-Spin Scale       =       0.3333333333333333 [-]
	 SCS Opposite-Spin Scale   =       1.2000000000000000 [-]
	 SCS Same-Spin Energy      =      -0.1751897934841308 [Eh]
	 SCS Opposite-Spin Energy  =      -2.0182869027140962 [Eh]
	 SCS Correlation Energy    =      -2.1934766961982270 [Eh]
	 SCS Total Energy          =    -859.8119927122326089 [Eh]
	-----------------------------------------------------------

  Dipole Moment: [D]
     X:    -0.6000      Y:     2.6815      Z:    -1.0709     Total:     2.9491

*** Psi4 exiting successfully. Buy a developer a beer!
