                               Psi4 1.4a3.dev225

  ==> Input File <==

--------------------------------------------------------------------------
#psi4
#
memory 32 gb

molecule  {
0 1
  S       -0.2946600    -0.4360860     0.1655790
  O       -1.5972071     0.6192872    -0.0190216
  O       -0.3508230    -1.5212030    -0.8163730
  O       -0.2159750    -0.7550950     1.5921100
  C        2.3621670     0.3010360     0.2220870
  C        0.9741440     0.7483390    -0.2426020
  C        2.8380310    -0.9649040    -0.4891310
  C        3.3410260     1.4538450    -0.0023010
  C       -2.8589370    -0.1133030    -0.1019100
  C       -3.9021700     0.9699320    -0.2416680
  H        2.2983390     0.1006560     1.2981690
  H        0.9320730     0.8904060    -1.3271310
  H        0.6744950     1.6778970     0.2503870
  H        2.8691440    -0.8060450    -1.5725570
  H        2.1878640    -1.8202610    -0.2948070
  H        3.8478330    -1.2217420    -0.1555610
  H        3.4181100     1.6939920    -1.0681710
  H        3.0282660     2.3570280     0.5308300
  H        4.3384750     1.1791220     0.3530350
  H       -2.8783840    -0.8196920    -0.9355340
  H       -2.9674710    -0.6619300     0.8385710
  H       -3.8465560     1.6647390     0.5984370
  H       -3.7534550     1.5250040    -1.1701160
  H       -4.8990420     0.5201230    -0.2596090
units angstrom
no_reorient  #important for SAPT in psi4, default
symmetry c1  #important for SAPT in psi4, default
}

set PROPERTIES_ORIGIN ["COM"]
properties('MP2/aug-cc-pvtz', properties = ['dipole'])
--------------------------------------------------------------------------

    Molecular point group: c1
  Charge       = 0
  Multiplicity = 1
  Basis Set: AUG-CC-PVTZ
    Blend: AUG-CC-PVTZ
  Basis Set: (AUG-CC-PVTZ AUX)
    Blend: AUG-CC-PVTZ-JKFIT

    Orbital Energies [Eh]
    ---------------------

    Doubly Occupied:

       1A    -92.215558     2A    -20.614077     3A    -20.561979
       4A    -20.553026     5A    -11.298508     6A    -11.280195
       7A    -11.252891     8A    -11.230556     9A    -11.229896
      10A    -11.220028    11A     -9.179882    12A     -6.865197
      13A     -6.863801    14A     -6.863651    15A     -1.474631
      16A     -1.370808    17A     -1.339882    18A     -1.122193
      19A     -1.046314    20A     -0.997473    21A     -0.943585
      22A     -0.870763    23A     -0.833530    24A     -0.788295
      25A     -0.722688    26A     -0.691108    27A     -0.688060
      28A     -0.656349    29A     -0.637009    30A     -0.615840
      31A     -0.606221    32A     -0.588129    33A     -0.564448
      34A     -0.556509    35A     -0.553411    36A     -0.544698
      37A     -0.536871    38A     -0.512525    39A     -0.500643
      40A     -0.496669    41A     -0.490809    42A     -0.484664
      43A     -0.483474    44A     -0.464550    45A     -0.453830

  @DF-RHF Final Energy:  -857.61916674717031

   => Energetics <=

    Nuclear Repulsion Energy =            720.9455538387352362
    One-Electron Energy =               -2609.3989935244776461
    Two-Electron Energy =                1030.8342729385722123
    Total Energy =                       -857.6191667471703113
  Basis Set: (AUG-CC-PVTZ AUX)
    Blend: AUG-CC-PVTZ-RI
    Molecular point group: c1

    Geometry (in Angstrom), charge = 0, multiplicity = 1:

       Center              X                  Y                   Z               Mass
    ------------   -----------------  -----------------  -----------------  -----------------
         S           -0.260384153201    -0.403698067725     0.140321975887    31.972071174400
         O           -1.562931253201     0.651675132275    -0.044278624113    15.994914619570
         O           -0.316547153201    -1.488815067725    -0.841630024113    15.994914619570
         O           -0.181699153201    -0.722707067725     1.566852975887    15.994914619570
         C            2.396442846799     0.333423932275     0.196829975887    12.000000000000
         C            1.008419846799     0.780726932275    -0.267859024113    12.000000000000
         C            2.872306846799    -0.932516067725    -0.514388024113    12.000000000000
         C            3.375301846799     1.486232932275    -0.027558024113    12.000000000000
         C           -2.824661153201    -0.080915067725    -0.127167024113    12.000000000000
         C           -3.867894153201     1.002319932275    -0.266925024113    12.000000000000
         H            2.332614846799     0.133043932275     1.272911975887     1.007825032230
         H            0.966348846799     0.922793932275    -1.352388024113     1.007825032230
         H            0.708770846799     1.710284932275     0.225129975887     1.007825032230
         H            2.903419846799    -0.773657067725    -1.597814024113     1.007825032230
         H            2.222139846799    -1.787873067725    -0.320064024113     1.007825032230
         H            3.882108846799    -1.189354067725    -0.180818024113     1.007825032230
         H            3.452385846799     1.726379932275    -1.093428024113     1.007825032230
         H            3.062541846799     2.389415932275     0.505572975887     1.007825032230
         H            4.372750846799     1.211509932275     0.327777975887     1.007825032230
         H           -2.844108153201    -0.787304067725    -0.960791024113     1.007825032230
         H           -2.933195153201    -0.629542067725     0.813313975887     1.007825032230
         H           -3.812280153201     1.697126932275     0.573179975887     1.007825032230
         H           -3.719179153201     1.557391932275    -1.195373024113     1.007825032230
         H           -4.864766153201     0.552510932275    -0.284866024113     1.007825032230

  Basis Set: AUG-CC-PVTZ
    Blend: AUG-CC-PVTZ
  Basis Set: (AUG-CC-PVTZ AUX)
    Blend: AUG-CC-PVTZ-JKFIT
	 Reference Energy          =    -857.6191667471703113 [Eh]
	 Singles Energy            =      -0.0000000000000000 [Eh]
	 Same-Spin Energy          =      -0.5263759590439367 [Eh]
	 Opposite-Spin Energy      =      -1.6836112987500771 [Eh]
	 Correlation Energy        =      -2.2099872577940136 [Eh]
	 Total Energy              =    -859.8291540049643800 [Eh]

	 ================> DF-SCS-MP2 Energies <==================
	-----------------------------------------------------------
	 SCS Same-Spin Scale       =       0.3333333333333333 [-]
	 SCS Opposite-Spin Scale   =       1.2000000000000000 [-]
	 SCS Same-Spin Energy      =      -0.1754586530146456 [Eh]
	 SCS Opposite-Spin Energy  =      -2.0203335585000923 [Eh]
	 SCS Correlation Energy    =      -2.1957922115147377 [Eh]
	 SCS Total Energy          =    -859.8149589586849970 [Eh]
	-----------------------------------------------------------

  Dipole Moment: [D]
     X:     0.2340      Y:     2.5364      Z:    -1.1853     Total:     2.8094

*** Psi4 exiting successfully. Buy a developer a beer!
