                               Psi4 1.4a3.dev225

  ==> Input File <==

--------------------------------------------------------------------------
#psi4
#
memory 32 gb

molecule  {
0 1
  S       -0.2946600    -0.4360860     0.1655790
  O       -1.5657890     0.5673500    -0.1009940
  O       -0.3508230    -1.5212030    -0.8163730
  O       -0.2159750    -0.7550950     1.5921100
  C        2.3621670     0.3010360     0.2220870
  C        0.9741440     0.7483390    -0.2426020
  C        2.8380310    -0.9649040    -0.4891310
  C        3.3410260     1.4538450    -0.0023010
  C       -2.8589370    -0.1133030    -0.1019100
  C       -3.9021700     0.9699320    -0.2416680
  H        2.2983390     0.1006560     1.2981690
  H        0.9320730     0.8904060    -1.3271310
  H        0.6744950     1.6778970     0.2503870
  H        2.8691440    -0.8060450    -1.5725570
  H        2.1878640    -1.8202610    -0.2948070
  H        3.8478330    -1.2217420    -0.1555610
  H        3.4181100     1.6939920    -1.0681710
  H        3.0282660     2.3570280     0.5308300
  H        4.1561111     1.2293497     0.2880688
  H       -2.8783840    -0.8196920    -0.9355340
  H       -2.9674710    -0.6619300     0.8385710
  H       -3.8465560     1.6647390     0.5984370
  H       -3.7534550     1.5250040    -1.1701160
  H       -4.8990420     0.5201230    -0.2596090
units angstrom
no_reorient  #important for SAPT in psi4, default
symmetry c1  #important for SAPT in psi4, default
}

set PROPERTIES_ORIGIN ["COM"]
properties('MP2/aug-cc-pvtz', properties = ['dipole'])
--------------------------------------------------------------------------

    Molecular point group: c1
  Charge       = 0
  Multiplicity = 1
  Basis Set: AUG-CC-PVTZ
    Blend: AUG-CC-PVTZ
  Basis Set: (AUG-CC-PVTZ AUX)
    Blend: AUG-CC-PVTZ-JKFIT

    Orbital Energies [Eh]
    ---------------------

    Doubly Occupied:

       1A    -92.212924     2A    -20.614253     3A    -20.553044
       4A    -20.552912     5A    -11.301455     6A    -11.276903
       7A    -11.250208     8A    -11.232673     9A    -11.218782
      10A    -11.204869    11A     -9.177213    12A     -6.862668
      13A     -6.861210    14A     -6.861049    15A     -1.480388
      16A     -1.374471    17A     -1.336813    18A     -1.122788
      19A     -1.052338    20A     -1.003541    21A     -0.954873
      22A     -0.879268    23A     -0.833016    24A     -0.790516
      25A     -0.726096    26A     -0.692548    27A     -0.692146
      28A     -0.656209    29A     -0.636373    30A     -0.621231
      31A     -0.610967    32A     -0.592987    33A     -0.569152
      34A     -0.561459    35A     -0.554441    36A     -0.553177
      37A     -0.537922    38A     -0.509403    39A     -0.499598
      40A     -0.496882    41A     -0.492438    42A     -0.484796
      43A     -0.482096    44A     -0.462803    45A     -0.453461

  @DF-RHF Final Energy:  -857.59256873530535

   => Energetics <=

    Nuclear Repulsion Energy =            723.6492221992735949
    One-Electron Energy =               -2614.6948609173578006
    Two-Electron Energy =                1033.4530699827789704
    Total Energy =                       -857.5925687353053490
  Basis Set: (AUG-CC-PVTZ AUX)
    Blend: AUG-CC-PVTZ-RI
    Molecular point group: c1

    Geometry (in Angstrom), charge = 0, multiplicity = 1:

       Center              X                  Y                   Z               Mass
    ------------   -----------------  -----------------  -----------------  -----------------
         S           -0.262303499859    -0.399000485864     0.148611529872    31.972071174400
         O           -1.533432499859     0.604435514136    -0.117961470128    15.994914619570
         O           -0.318466499859    -1.484117485864    -0.833340470128    15.994914619570
         O           -0.183618499859    -0.718009485864     1.575142529872    15.994914619570
         C            2.394523500141     0.338121514136     0.205119529872    12.000000000000
         C            1.006500500141     0.785424514136    -0.259569470128    12.000000000000
         C            2.870387500141    -0.927818485864    -0.506098470128    12.000000000000
         C            3.373382500141     1.490930514136    -0.019268470128    12.000000000000
         C           -2.826580499859    -0.076217485864    -0.118877470128    12.000000000000
         C           -3.869813499859     1.007017514136    -0.258635470128    12.000000000000
         H            2.330695500141     0.137741514136     1.281201529872     1.007825032230
         H            0.964429500141     0.927491514136    -1.344098470128     1.007825032230
         H            0.706851500141     1.714982514136     0.233419529872     1.007825032230
         H            2.901500500141    -0.768959485864    -1.589524470128     1.007825032230
         H            2.220220500141    -1.783175485864    -0.311774470128     1.007825032230
         H            3.880189500141    -1.184656485864    -0.172528470128     1.007825032230
         H            3.450466500141     1.731077514136    -1.085138470128     1.007825032230
         H            3.060622500141     2.394113514136     0.513862529872     1.007825032230
         H            4.188467600141     1.266435214136     0.271101329872     1.007825032230
         H           -2.846027499859    -0.782606485864    -0.952501470128     1.007825032230
         H           -2.935114499859    -0.624844485864     0.821603529872     1.007825032230
         H           -3.814199499859     1.701824514136     0.581469529872     1.007825032230
         H           -3.721098499859     1.562089514136    -1.187083470128     1.007825032230
         H           -4.866685499859     0.557208514136    -0.276576470128     1.007825032230

  Basis Set: AUG-CC-PVTZ
    Blend: AUG-CC-PVTZ
  Basis Set: (AUG-CC-PVTZ AUX)
    Blend: AUG-CC-PVTZ-JKFIT
	 Reference Energy          =    -857.5925687353053490 [Eh]
	 Singles Energy            =      -0.0000000000000000 [Eh]
	 Same-Spin Energy          =      -0.5253663331941147 [Eh]
	 Opposite-Spin Energy      =      -1.6801479021628078 [Eh]
	 Correlation Energy        =      -2.2055142353569224 [Eh]
	 Total Energy              =    -859.7980829706622217 [Eh]

	 ================> DF-SCS-MP2 Energies <==================
	-----------------------------------------------------------
	 SCS Same-Spin Scale       =       0.3333333333333333 [-]
	 SCS Opposite-Spin Scale   =       1.2000000000000000 [-]
	 SCS Same-Spin Energy      =      -0.1751221110647049 [Eh]
	 SCS Opposite-Spin Energy  =      -2.0161774825953693 [Eh]
	 SCS Correlation Energy    =      -2.1912995936600743 [Eh]
	 SCS Total Energy          =    -859.7838683289654682 [Eh]
	-----------------------------------------------------------

  Dipole Moment: [D]
     X:     0.0409      Y:     2.7188      Z:    -1.0279     Total:     2.9069

*** Psi4 exiting successfully. Buy a developer a beer!
