                               Psi4 1.4a3.dev225

  ==> Input File <==

--------------------------------------------------------------------------
#psi4
#
memory 32 gb

molecule  {
0 1
  S       -0.2946600    -0.4360860     0.1655790
  O       -1.5657890     0.5673500    -0.1009940
  O       -0.3508230    -1.5212030    -0.8163730
  O       -0.2159750    -0.7550950     1.5921100
  C        2.3621670     0.3010360     0.2220870
  C        0.9741440     0.7483390    -0.2426020
  C        2.8380310    -0.9649040    -0.4891310
  C        3.3410260     1.4538450    -0.0023010
  C       -2.8589370    -0.1133030    -0.1019100
  C       -3.9021700     0.9699320    -0.2416680
  H        2.2983390     0.1006560     1.2981690
  H        0.9320730     0.8904060    -1.3271310
  H        0.6744950     1.6778970     0.2503870
  H        2.8691440    -0.8060450    -1.5725570
  H        2.1878640    -1.8202610    -0.2948070
  H        3.8478330    -1.2217420    -0.1555610
  H        3.4181100     1.6939920    -1.0681710
  H        3.0282660     2.3570280     0.5308300
  H        4.3384750     1.1791220     0.3530350
  H       -2.8783840    -0.8196920    -0.9355340
  H       -2.9674710    -0.6619300     0.8385710
  H       -3.8465560     1.6647390     0.5984370
  H       -3.7602649     1.4995862    -1.1276006
  H       -4.8990420     0.5201230    -0.2596090
units angstrom
no_reorient  #important for SAPT in psi4, default
symmetry c1  #important for SAPT in psi4, default
}

set PROPERTIES_ORIGIN ["COM"]
properties('MP2/aug-cc-pvtz', properties = ['dipole'])
--------------------------------------------------------------------------

    Molecular point group: c1
  Charge       = 0
  Multiplicity = 1
  Basis Set: AUG-CC-PVTZ
    Blend: AUG-CC-PVTZ
  Basis Set: (AUG-CC-PVTZ AUX)
    Blend: AUG-CC-PVTZ-JKFIT

    Orbital Energies [Eh]
    ---------------------

    Doubly Occupied:

       1A    -92.213783     2A    -20.614803     3A    -20.553627
       4A    -20.553481     5A    -11.301396     6A    -11.278105
       7A    -11.251471     8A    -11.229518     9A    -11.226925
      10A    -11.218600    11A     -9.178028    12A     -6.863484
      13A     -6.862039    14A     -6.861864    15A     -1.480963
      16A     -1.375009    17A     -1.337360    18A     -1.120929
      19A     -1.053171    20A     -0.997531    21A     -0.942330
      22A     -0.879649    23A     -0.831536    24A     -0.788016
      25A     -0.725112    26A     -0.693351    27A     -0.690737
      28A     -0.657593    29A     -0.635220    30A     -0.616203
      31A     -0.607922    32A     -0.586664    33A     -0.568787
      34A     -0.561136    35A     -0.554421    36A     -0.543709
      37A     -0.539555    38A     -0.510054    39A     -0.499980
      40A     -0.497548    41A     -0.490602    42A     -0.485420
      43A     -0.482581    44A     -0.463290    45A     -0.453615

  @DF-RHF Final Energy:  -857.62543958308788

   => Energetics <=

    Nuclear Repulsion Energy =            722.7919717303597054
    One-Electron Energy =               -2613.0805883104744680
    Two-Electron Energy =                1032.6631769970267669
    Total Energy =                       -857.6254395830878821
  Basis Set: (AUG-CC-PVTZ AUX)
    Blend: AUG-CC-PVTZ-RI
    Molecular point group: c1

    Geometry (in Angstrom), charge = 0, multiplicity = 1:

       Center              X                  Y                   Z               Mass
    ------------   -----------------  -----------------  -----------------  -----------------
         S           -0.263368903532    -0.398541407783     0.147959244585    31.972071174400
         O           -1.534497903532     0.604894592217    -0.118613755415    15.994914619570
         O           -0.319531903532    -1.483658407783    -0.833992755415    15.994914619570
         O           -0.184683903532    -0.717550407783     1.574490244585    15.994914619570
         C            2.393458096468     0.338580592217     0.204467244585    12.000000000000
         C            1.005435096468     0.785883592217    -0.260221755415    12.000000000000
         C            2.869322096468    -0.927359407783    -0.506750755415    12.000000000000
         C            3.372317096468     1.491389592217    -0.019920755415    12.000000000000
         C           -2.827645903532    -0.075758407783    -0.119529755415    12.000000000000
         C           -3.870878903532     1.007476592217    -0.259287755415    12.000000000000
         H            2.329630096468     0.138200592217     1.280549244585     1.007825032230
         H            0.963364096468     0.927950592217    -1.344750755415     1.007825032230
         H            0.705786096468     1.715441592217     0.232767244585     1.007825032230
         H            2.900435096468    -0.768500407783    -1.590176755415     1.007825032230
         H            2.219155096468    -1.782716407783    -0.312426755415     1.007825032230
         H            3.879124096468    -1.184197407783    -0.173180755415     1.007825032230
         H            3.449401096468     1.731536592217    -1.085790755415     1.007825032230
         H            3.059557096468     2.394572592217     0.513210244585     1.007825032230
         H            4.369766096468     1.216666592217     0.335415244585     1.007825032230
         H           -2.847092903532    -0.782147407783    -0.953153755415     1.007825032230
         H           -2.936179903532    -0.624385407783     0.820951244585     1.007825032230
         H           -3.815264903532     1.702283592217     0.580817244585     1.007825032230
         H           -3.728973803532     1.537130792217    -1.145220355415     1.007825032230
         H           -4.867750903532     0.557667592217    -0.277228755415     1.007825032230

  Basis Set: AUG-CC-PVTZ
    Blend: AUG-CC-PVTZ
  Basis Set: (AUG-CC-PVTZ AUX)
    Blend: AUG-CC-PVTZ-JKFIT
	 Reference Energy          =    -857.6254395830878821 [Eh]
	 Singles Energy            =      -0.0000000000000000 [Eh]
	 Same-Spin Energy          =      -0.5253180174679155 [Eh]
	 Opposite-Spin Energy      =      -1.6805536737295335 [Eh]
	 Correlation Energy        =      -2.2058716911974487 [Eh]
	 Total Energy              =    -859.8313112742853264 [Eh]

	 ================> DF-SCS-MP2 Energies <==================
	-----------------------------------------------------------
	 SCS Same-Spin Scale       =       0.3333333333333333 [-]
	 SCS Opposite-Spin Scale   =       1.2000000000000000 [-]
	 SCS Same-Spin Energy      =      -0.1751060058226385 [Eh]
	 SCS Opposite-Spin Energy  =      -2.0166644084754402 [Eh]
	 SCS Correlation Energy    =      -2.1917704142980785 [Eh]
	 SCS Total Energy          =    -859.8172099973859304 [Eh]
	-----------------------------------------------------------

  Dipole Moment: [D]
     X:    -0.0701      Y:     2.7220      Z:    -1.0604     Total:     2.9221

*** Psi4 exiting successfully. Buy a developer a beer!
