                               Psi4 1.4a3.dev225

  ==> Input File <==

--------------------------------------------------------------------------
#psi4
#
memory 32 gb

molecule  {
0 1
  S       -0.2946600    -0.4360860     0.1655790
  O       -1.5657890     0.5673500    -0.1009940
  O       -0.3508230    -1.5212030    -0.8163730
  O       -0.2159750    -0.7550950     1.5921100
  C        2.3621670     0.3010360     0.2220870
  C        0.9741440     0.7483390    -0.2426020
  C        2.8380310    -0.9649040    -0.4891310
  C        3.3410260     1.4538450    -0.0023010
  C       -2.8589370    -0.1133030    -0.1019100
  C       -3.9021700     0.9699320    -0.2416680
  H        2.2983390     0.1006560     1.2981690
  H        0.9328417     0.8878102    -1.3073151
  H        0.6744950     1.6778970     0.2503870
  H        2.8691440    -0.8060450    -1.5725570
  H        2.1878640    -1.8202610    -0.2948070
  H        3.8478330    -1.2217420    -0.1555610
  H        3.4181100     1.6939920    -1.0681710
  H        3.0282660     2.3570280     0.5308300
  H        4.3384750     1.1791220     0.3530350
  H       -2.8783840    -0.8196920    -0.9355340
  H       -2.9674710    -0.6619300     0.8385710
  H       -3.8465560     1.6647390     0.5984370
  H       -3.7534550     1.5250040    -1.1701160
  H       -4.8990420     0.5201230    -0.2596090
units angstrom
no_reorient  #important for SAPT in psi4, default
symmetry c1  #important for SAPT in psi4, default
}

set PROPERTIES_ORIGIN ["COM"]
properties('MP2/aug-cc-pvtz', properties = ['dipole'])
--------------------------------------------------------------------------

    Molecular point group: c1
  Charge       = 0
  Multiplicity = 1
  Basis Set: AUG-CC-PVTZ
    Blend: AUG-CC-PVTZ
  Basis Set: (AUG-CC-PVTZ AUX)
    Blend: AUG-CC-PVTZ-JKFIT

    Orbital Energies [Eh]
    ---------------------

    Doubly Occupied:

       1A    -92.213753     2A    -20.614927     3A    -20.553742
       4A    -20.553430     5A    -11.301926     6A    -11.275971
       7A    -11.251366     8A    -11.233045     9A    -11.229539
      10A    -11.218625    11A     -9.178015    12A     -6.863469
      13A     -6.862023    14A     -6.861851    15A     -1.481040
      16A     -1.375090    17A     -1.337406    18A     -1.121527
      19A     -1.051574    20A     -0.997544    21A     -0.942359
      22A     -0.877285    23A     -0.830807    24A     -0.789145
      25A     -0.725462    26A     -0.692974    27A     -0.691425
      28A     -0.656992    29A     -0.635061    30A     -0.616496
      31A     -0.606874    32A     -0.588446    33A     -0.567332
      34A     -0.559033    35A     -0.554691    36A     -0.543715
      37A     -0.537420    38A     -0.510005    39A     -0.500019
      40A     -0.496923    41A     -0.490447    42A     -0.485816
      43A     -0.482579    44A     -0.463328    45A     -0.453653

  @DF-RHF Final Energy:  -857.62660685163519

   => Energetics <=

    Nuclear Repulsion Energy =            722.6887909896104247
    One-Electron Energy =               -2612.8824962567059629
    Two-Electron Energy =                1032.5670984154603502
    Total Energy =                       -857.6266068516351879
  Basis Set: (AUG-CC-PVTZ AUX)
    Blend: AUG-CC-PVTZ-RI
    Molecular point group: c1

    Geometry (in Angstrom), charge = 0, multiplicity = 1:

       Center              X                  Y                   Z               Mass
    ------------   -----------------  -----------------  -----------------  -----------------
         S           -0.263414896607    -0.398679910139     0.148097003512    31.972071174400
         O           -1.534543896607     0.604756089861    -0.118475996488    15.994914619570
         O           -0.319577896607    -1.483796910139    -0.833854996488    15.994914619570
         O           -0.184729896607    -0.717688910139     1.574628003512    15.994914619570
         C            2.393412103393     0.338442089861     0.204605003512    12.000000000000
         C            1.005389103393     0.785745089861    -0.260083996488    12.000000000000
         C            2.869276103393    -0.927497910139    -0.506612996488    12.000000000000
         C            3.372271103393     1.491251089861    -0.019782996488    12.000000000000
         C           -2.827691896607    -0.075896910139    -0.119391996488    12.000000000000
         C           -3.870924896607     1.007338089861    -0.259149996488    12.000000000000
         H            2.329584103393     0.138062089861     1.280687003512     1.007825032230
         H            0.964086803393     0.925216289861    -1.324797096488     1.007825032230
         H            0.705740103393     1.715303089861     0.232905003512     1.007825032230
         H            2.900389103393    -0.768638910139    -1.590038996488     1.007825032230
         H            2.219109103393    -1.782854910139    -0.312288996488     1.007825032230
         H            3.879078103393    -1.184335910139    -0.173042996488     1.007825032230
         H            3.449355103393     1.731398089861    -1.085652996488     1.007825032230
         H            3.059511103393     2.394434089861     0.513348003512     1.007825032230
         H            4.369720103393     1.216528089861     0.335553003512     1.007825032230
         H           -2.847138896607    -0.782285910139    -0.953015996488     1.007825032230
         H           -2.936225896607    -0.624523910139     0.821089003512     1.007825032230
         H           -3.815310896607     1.702145089861     0.580955003512     1.007825032230
         H           -3.722209896607     1.562410089861    -1.187597996488     1.007825032230
         H           -4.867796896607     0.557529089861    -0.277090996488     1.007825032230

  Basis Set: AUG-CC-PVTZ
    Blend: AUG-CC-PVTZ
  Basis Set: (AUG-CC-PVTZ AUX)
    Blend: AUG-CC-PVTZ-JKFIT
	 Reference Energy          =    -857.6266068516351879 [Eh]
	 Singles Energy            =      -0.0000000000000000 [Eh]
	 Same-Spin Energy          =      -0.5252509786324443 [Eh]
	 Opposite-Spin Energy      =      -1.6806518742019090 [Eh]
	 Correlation Energy        =      -2.2059028528343534 [Eh]
	 Total Energy              =    -859.8325097044695440 [Eh]

	 ================> DF-SCS-MP2 Energies <==================
	-----------------------------------------------------------
	 SCS Same-Spin Scale       =       0.3333333333333333 [-]
	 SCS Opposite-Spin Scale   =       1.2000000000000000 [-]
	 SCS Same-Spin Energy      =      -0.1750836595441481 [Eh]
	 SCS Opposite-Spin Energy  =      -2.0167822490422909 [Eh]
	 SCS Correlation Energy    =      -2.1918659085864389 [Eh]
	 SCS Total Energy          =    -859.8184727602216526 [Eh]
	-----------------------------------------------------------

  Dipole Moment: [D]
     X:    -0.0668      Y:     2.7108      Z:    -1.0463     Total:     2.9065

*** Psi4 exiting successfully. Buy a developer a beer!
