                               Psi4 1.4a3.dev225

  ==> Input File <==

--------------------------------------------------------------------------
#psi4
#
memory 32 gb

molecule  {
0 1
  S       -0.2946600    -0.4360860     0.1655790
  O       -1.5657890     0.5673500    -0.1009940
  O       -0.3508230    -1.5212030    -0.8163730
  O       -0.2159750    -0.7550950     1.5921100
  C        2.3621670     0.3010360     0.2220870
  C        0.9754922     0.6217861    -0.3408304
  C        2.8380310    -0.9649040    -0.4891310
  C        3.3410260     1.4538450    -0.0023010
  C       -2.8589370    -0.1133030    -0.1019100
  C       -3.9021700     0.9699320    -0.2416680
  H        2.2983390     0.1006560     1.2981690
  H        0.9320730     0.8904060    -1.3271310
  H        0.6744950     1.6778970     0.2503870
  H        2.8691440    -0.8060450    -1.5725570
  H        2.1878640    -1.8202610    -0.2948070
  H        3.8478330    -1.2217420    -0.1555610
  H        3.4181100     1.6939920    -1.0681710
  H        3.0282660     2.3570280     0.5308300
  H        4.3384750     1.1791220     0.3530350
  H       -2.8783840    -0.8196920    -0.9355340
  H       -2.9674710    -0.6619300     0.8385710
  H       -3.8465560     1.6647390     0.5984370
  H       -3.7534550     1.5250040    -1.1701160
  H       -4.8990420     0.5201230    -0.2596090
units angstrom
no_reorient  #important for SAPT in psi4, default
symmetry c1  #important for SAPT in psi4, default
}

set PROPERTIES_ORIGIN ["COM"]
properties('MP2/aug-cc-pvtz', properties = ['dipole'])
--------------------------------------------------------------------------

    Molecular point group: c1
  Charge       = 0
  Multiplicity = 1
  Basis Set: AUG-CC-PVTZ
    Blend: AUG-CC-PVTZ
  Basis Set: (AUG-CC-PVTZ AUX)
    Blend: AUG-CC-PVTZ-JKFIT

    Orbital Energies [Eh]
    ---------------------

    Doubly Occupied:

       1A    -92.216627     2A    -20.616715     3A    -20.557847
       4A    -20.547397     5A    -11.302845     6A    -11.280738
       7A    -11.253971     8A    -11.233571     9A    -11.231089
      10A    -11.216108    11A     -9.180915    12A     -6.866338
      13A     -6.865293    14A     -6.864698    15A     -1.482992
      16A     -1.376356    17A     -1.337461    18A     -1.123955
      19A     -1.053174    20A     -1.001881    21A     -0.941955
      22A     -0.877053    23A     -0.832118    24A     -0.792511
      25A     -0.732968    26A     -0.696144    27A     -0.691506
      28A     -0.648370    29A     -0.628736    30A     -0.620472
      31A     -0.607048    32A     -0.588238    33A     -0.567026
      34A     -0.557629    35A     -0.554775    36A     -0.544091
      37A     -0.537658    38A     -0.505971    39A     -0.502035
      40A     -0.499320    41A     -0.489658    42A     -0.486269
      43A     -0.474218    44A     -0.462193    45A     -0.452245

  @DF-RHF Final Energy:  -857.60222677766058

   => Energetics <=

    Nuclear Repulsion Energy =            723.9458111690180431
    One-Electron Energy =               -2615.2957192326061886
    Two-Electron Energy =                1033.7476812859276833
    Total Energy =                       -857.6022267776604622
  Basis Set: (AUG-CC-PVTZ AUX)
    Blend: AUG-CC-PVTZ-RI
    Molecular point group: c1

    Geometry (in Angstrom), charge = 0, multiplicity = 1:

       Center              X                  Y                   Z               Mass
    ------------   -----------------  -----------------  -----------------  -----------------
         S           -0.263507652806    -0.389550917140     0.155315272886    31.972071174400
         O           -1.534636652806     0.613885082860    -0.111257727114    15.994914619570
         O           -0.319670652806    -1.474667917140    -0.826636727114    15.994914619570
         O           -0.184822652806    -0.708559917140     1.581846272886    15.994914619570
         C            2.393319347194     0.347571082860     0.211823272886    12.000000000000
         C            1.006644547194     0.668321182860    -0.351094127114    12.000000000000
         C            2.869183347194    -0.918368917140    -0.499394727114    12.000000000000
         C            3.372178347194     1.500380082860    -0.012564727114    12.000000000000
         C           -2.827784652806    -0.066767917140    -0.112173727114    12.000000000000
         C           -3.871017652806     1.016467082860    -0.251931727114    12.000000000000
         H            2.329491347194     0.147191082860     1.287905272886     1.007825032230
         H            0.963225347194     0.936941082860    -1.337394727114     1.007825032230
         H            0.705647347194     1.724432082860     0.240123272886     1.007825032230
         H            2.900296347194    -0.759509917140    -1.582820727114     1.007825032230
         H            2.219016347194    -1.773725917140    -0.305070727114     1.007825032230
         H            3.878985347194    -1.175206917140    -0.165824727114     1.007825032230
         H            3.449262347194     1.740527082860    -1.078434727114     1.007825032230
         H            3.059418347194     2.403563082860     0.520566272886     1.007825032230
         H            4.369627347194     1.225657082860     0.342771272886     1.007825032230
         H           -2.847231652806    -0.773156917140    -0.945797727114     1.007825032230
         H           -2.936318652806    -0.615394917140     0.828307272886     1.007825032230
         H           -3.815403652806     1.711274082860     0.588173272886     1.007825032230
         H           -3.722302652806     1.571539082860    -1.180379727114     1.007825032230
         H           -4.867889652806     0.566658082860    -0.269872727114     1.007825032230

  Basis Set: AUG-CC-PVTZ
    Blend: AUG-CC-PVTZ
  Basis Set: (AUG-CC-PVTZ AUX)
    Blend: AUG-CC-PVTZ-JKFIT
	 Reference Energy          =    -857.6022267776605759 [Eh]
	 Singles Energy            =      -0.0000000000000000 [Eh]
	 Same-Spin Energy          =      -0.5261146032485849 [Eh]
	 Opposite-Spin Energy      =      -1.6823562902652425 [Eh]
	 Correlation Energy        =      -2.2084708935138275 [Eh]
	 Total Energy              =    -859.8106976711743528 [Eh]

	 ================> DF-SCS-MP2 Energies <==================
	-----------------------------------------------------------
	 SCS Same-Spin Scale       =       0.3333333333333333 [-]
	 SCS Opposite-Spin Scale   =       1.2000000000000000 [-]
	 SCS Same-Spin Energy      =      -0.1753715344161950 [Eh]
	 SCS Opposite-Spin Energy  =      -2.0188275483182907 [Eh]
	 SCS Correlation Energy    =      -2.1941990827344857 [Eh]
	 SCS Total Energy          =    -859.7964258603950611 [Eh]
	-----------------------------------------------------------

  Dipole Moment: [D]
     X:    -0.0382      Y:     2.7755      Z:    -1.0143     Total:     2.9552

*** Psi4 exiting successfully. Buy a developer a beer!
