                               Psi4 1.4a3.dev225

  ==> Input File <==

--------------------------------------------------------------------------
#psi4
#
memory 32 gb

molecule  {
0 1
  S       -0.2946600    -0.4360860     0.1655790
  O       -1.5657890     0.5673500    -0.1009940
  O       -0.3508230    -1.5212030    -0.8163730
  O       -0.2159750    -0.7550950     1.5921100
  C        2.3621670     0.3010360     0.2220870
  C        0.9741440     0.7483390    -0.2426020
  C        2.8380310    -0.9649040    -0.4891310
  C        3.3410260     1.4538450    -0.0023010
  C       -2.8589370    -0.1133030    -0.1019100
  C       -3.9021700     0.9699320    -0.2416680
  H        2.2983390     0.1006560     1.2981690
  H        0.9320730     0.8904060    -1.3271310
  H        0.6744950     1.6778970     0.2503870
  H        2.8691440    -0.8060450    -1.5725570
  H        2.1878640    -1.8202610    -0.2948070
  H        3.8478330    -1.2217420    -0.1555610
  H        3.4321854     1.7378423    -1.2627964
  H        3.0282660     2.3570280     0.5308300
  H        4.3384750     1.1791220     0.3530350
  H       -2.8783840    -0.8196920    -0.9355340
  H       -2.9674710    -0.6619300     0.8385710
  H       -3.8465560     1.6647390     0.5984370
  H       -3.7534550     1.5250040    -1.1701160
  H       -4.8990420     0.5201230    -0.2596090
units angstrom
no_reorient  #important for SAPT in psi4, default
symmetry c1  #important for SAPT in psi4, default
}

set PROPERTIES_ORIGIN ["COM"]
properties('MP2/aug-cc-pvtz', properties = ['dipole'])
--------------------------------------------------------------------------

    Molecular point group: c1
  Charge       = 0
  Multiplicity = 1
  Basis Set: AUG-CC-PVTZ
    Blend: AUG-CC-PVTZ
  Basis Set: (AUG-CC-PVTZ AUX)
    Blend: AUG-CC-PVTZ-JKFIT

    Orbital Energies [Eh]
    ---------------------

    Doubly Occupied:

       1A    -92.214269     2A    -20.615241     3A    -20.554062
       4A    -20.554034     5A    -11.302155     6A    -11.278672
       7A    -11.254600     8A    -11.252936     9A    -11.233193
      10A    -11.219137    11A     -9.178520    12A     -6.863975
      13A     -6.862532    14A     -6.862358    15A     -1.481450
      16A     -1.375459    17A     -1.337877    18A     -1.120869
      19A     -1.051478    20A     -0.995408    21A     -0.936164
      22A     -0.876215    23A     -0.829967    24A     -0.784722
      25A     -0.725552    26A     -0.693226    27A     -0.690825
      28A     -0.656797    29A     -0.633376    30A     -0.617208
      31A     -0.607427    32A     -0.586352    33A     -0.566632
      34A     -0.558389    35A     -0.550644    36A     -0.538043
      37A     -0.526357    38A     -0.511476    39A     -0.500502
      40A     -0.496814    41A     -0.492077    42A     -0.486017
      43A     -0.472462    44A     -0.463645    45A     -0.454861

  @DF-RHF Final Energy:  -857.60692878058694

   => Energetics <=

    Nuclear Repulsion Energy =            721.7940123961288919
    One-Electron Energy =               -2611.0739271383686173
    Two-Electron Energy =                1031.6729859616527847
    Total Energy =                       -857.6069287805869408
  Basis Set: (AUG-CC-PVTZ AUX)
    Blend: AUG-CC-PVTZ-RI
    Molecular point group: c1

    Geometry (in Angstrom), charge = 0, multiplicity = 1:

       Center              X                  Y                   Z               Mass
    ------------   -----------------  -----------------  -----------------  -----------------
         S           -0.263495652426    -0.398961782642     0.149398406776    31.972071174400
         O           -1.534624652426     0.604474217358    -0.117174593224    15.994914619570
         O           -0.319658652426    -1.484078782642    -0.832553593224    15.994914619570
         O           -0.184810652426    -0.717970782642     1.575929406776    15.994914619570
         C            2.393331347574     0.338160217358     0.205906406776    12.000000000000
         C            1.005308347574     0.785463217358    -0.258782593224    12.000000000000
         C            2.869195347574    -0.927779782642    -0.505311593224    12.000000000000
         C            3.372190347574     1.490969217358    -0.018481593224    12.000000000000
         C           -2.827772652426    -0.076178782642    -0.118090593224    12.000000000000
         C           -3.871005652426     1.007056217358    -0.257848593224    12.000000000000
         H            2.329503347574     0.137780217358     1.281988406776     1.007825032230
         H            0.963237347574     0.927530217358    -1.343311593224     1.007825032230
         H            0.705659347574     1.715021217358     0.234206406776     1.007825032230
         H            2.900308347574    -0.768920782642    -1.588737593224     1.007825032230
         H            2.219028347574    -1.783136782642    -0.310987593224     1.007825032230
         H            3.878997347574    -1.184617782642    -0.171741593224     1.007825032230
         H            3.463349747574     1.774966517358    -1.278976993224     1.007825032230
         H            3.059430347574     2.394152217358     0.514649406776     1.007825032230
         H            4.369639347574     1.216246217358     0.336854406776     1.007825032230
         H           -2.847219652426    -0.782567782642    -0.951714593224     1.007825032230
         H           -2.936306652426    -0.624805782642     0.822390406776     1.007825032230
         H           -3.815391652426     1.701863217358     0.582256406776     1.007825032230
         H           -3.722290652426     1.562128217358    -1.186296593224     1.007825032230
         H           -4.867877652426     0.557247217358    -0.275789593224     1.007825032230

  Basis Set: AUG-CC-PVTZ
    Blend: AUG-CC-PVTZ
  Basis Set: (AUG-CC-PVTZ AUX)
    Blend: AUG-CC-PVTZ-JKFIT
	 Reference Energy          =    -857.6069287805869408 [Eh]
	 Singles Energy            =      -0.0000000000000000 [Eh]
	 Same-Spin Energy          =      -0.5252532818349910 [Eh]
	 Opposite-Spin Energy      =      -1.6822817768497487 [Eh]
	 Correlation Energy        =      -2.2075350586847398 [Eh]
	 Total Energy              =    -859.8144638392716388 [Eh]

	 ================> DF-SCS-MP2 Energies <==================
	-----------------------------------------------------------
	 SCS Same-Spin Scale       =       0.3333333333333333 [-]
	 SCS Opposite-Spin Scale   =       1.2000000000000000 [-]
	 SCS Same-Spin Energy      =      -0.1750844272783303 [Eh]
	 SCS Opposite-Spin Energy  =      -2.0187381322196982 [Eh]
	 SCS Correlation Energy    =      -2.1938225594980287 [Eh]
	 SCS Total Energy          =    -859.8007513400849575 [Eh]
	-----------------------------------------------------------

  Dipole Moment: [D]
     X:    -0.1045      Y:     2.6511      Z:    -0.9159     Total:     2.8068

*** Psi4 exiting successfully. Buy a developer a beer!
