                               Psi4 1.4a3.dev225

  ==> Input File <==

--------------------------------------------------------------------------
#psi4
#
memory 32 gb

molecule  {
0 1
  S       -0.2946600    -0.4360860     0.1655790
  O       -1.5657890     0.5673500    -0.1009940
  O       -0.3508230    -1.5212030    -0.8163730
  O       -0.2159750    -0.7550950     1.5921100
  C        2.3621670     0.3010360     0.2220870
  C        0.9741440     0.7483390    -0.2426020
  C        2.8380310    -0.9649040    -0.4891310
  C        3.3410260     1.4538450    -0.0023010
  C       -2.8589370    -0.1133030    -0.1019100
  C       -3.9021700     0.9699320    -0.2416680
  H        2.2983390     0.1006560     1.2981690
  H        0.9320730     0.8904060    -1.3271310
  H        0.6197162     1.8478295     0.3405103
  H        2.8691440    -0.8060450    -1.5725570
  H        2.1878640    -1.8202610    -0.2948070
  H        3.8478330    -1.2217420    -0.1555610
  H        3.4181100     1.6939920    -1.0681710
  H        3.0282660     2.3570280     0.5308300
  H        4.3384750     1.1791220     0.3530350
  H       -2.8783840    -0.8196920    -0.9355340
  H       -2.9674710    -0.6619300     0.8385710
  H       -3.8465560     1.6647390     0.5984370
  H       -3.7534550     1.5250040    -1.1701160
  H       -4.8990420     0.5201230    -0.2596090
units angstrom
no_reorient  #important for SAPT in psi4, default
symmetry c1  #important for SAPT in psi4, default
}

set PROPERTIES_ORIGIN ["COM"]
properties('MP2/aug-cc-pvtz', properties = ['dipole'])
--------------------------------------------------------------------------

    Molecular point group: c1
  Charge       = 0
  Multiplicity = 1
  Basis Set: AUG-CC-PVTZ
    Blend: AUG-CC-PVTZ
  Basis Set: (AUG-CC-PVTZ AUX)
    Blend: AUG-CC-PVTZ-JKFIT

    Orbital Energies [Eh]
    ---------------------

    Doubly Occupied:

       1A    -92.214874     2A    -20.614330     3A    -20.555034
       4A    -20.553427     5A    -11.301515     6A    -11.297465
       7A    -11.252654     8A    -11.232793     9A    -11.229180
      10A    -11.220066    11A     -9.178954    12A     -6.864427
      13A     -6.862994    14A     -6.862807    15A     -1.481076
      16A     -1.374901    17A     -1.337887    18A     -1.117455
      19A     -1.050919    20A     -0.990718    21A     -0.942335
      22A     -0.875188    23A     -0.830218    24A     -0.784838
      25A     -0.722863    26A     -0.691567    27A     -0.690433
      28A     -0.645597    29A     -0.628596    30A     -0.613761
      31A     -0.606519    32A     -0.583826    33A     -0.564949
      34A     -0.556195    35A     -0.552935    36A     -0.542930
      37A     -0.536481    38A     -0.506997    39A     -0.499980
      40A     -0.496588    41A     -0.489043    42A     -0.483880
      43A     -0.481613    44A     -0.462729    45A     -0.452508

  @DF-RHF Final Energy:  -857.60533207600429

   => Energetics <=

    Nuclear Repulsion Energy =            721.5493688767776348
    One-Electron Energy =               -2610.6373168995187370
    Two-Electron Energy =                1031.4826159467368143
    Total Energy =                       -857.6053320760042880
  Basis Set: (AUG-CC-PVTZ AUX)
    Blend: AUG-CC-PVTZ-RI
    Molecular point group: c1

    Geometry (in Angstrom), charge = 0, multiplicity = 1:

       Center              X                  Y                   Z               Mass
    ------------   -----------------  -----------------  -----------------  -----------------
         S           -0.263077789446    -0.399726951416     0.147670321339    31.972071174400
         O           -1.534206789446     0.603709048584    -0.118902678661    15.994914619570
         O           -0.319240789446    -1.484843951416    -0.834281678661    15.994914619570
         O           -0.184392789446    -0.718735951416     1.574201321339    15.994914619570
         C            2.393749210554     0.337395048584     0.204178321339    12.000000000000
         C            1.005726210554     0.784698048584    -0.260510678661    12.000000000000
         C            2.869613210554    -0.928544951416    -0.507039678661    12.000000000000
         C            3.372608210554     1.490204048584    -0.020209678661    12.000000000000
         C           -2.827354789446    -0.076943951416    -0.119818678661    12.000000000000
         C           -3.870587789446     1.006291048584    -0.259576678661    12.000000000000
         H            2.329921210554     0.137015048584     1.280260321339     1.007825032230
         H            0.963655210554     0.926765048584    -1.345039678661     1.007825032230
         H            0.651298410554     1.884188548584     0.322601621339     1.007825032230
         H            2.900726210554    -0.769685951416    -1.590465678661     1.007825032230
         H            2.219446210554    -1.783901951416    -0.312715678661     1.007825032230
         H            3.879415210554    -1.185382951416    -0.173469678661     1.007825032230
         H            3.449692210554     1.730351048584    -1.086079678661     1.007825032230
         H            3.059848210554     2.393387048584     0.512921321339     1.007825032230
         H            4.370057210554     1.215481048584     0.335126321339     1.007825032230
         H           -2.846801789446    -0.783332951416    -0.953442678661     1.007825032230
         H           -2.935888789446    -0.625570951416     0.820662321339     1.007825032230
         H           -3.814973789446     1.701098048584     0.580528321339     1.007825032230
         H           -3.721872789446     1.561363048584    -1.188024678661     1.007825032230
         H           -4.867459789446     0.556482048584    -0.277517678661     1.007825032230

  Basis Set: AUG-CC-PVTZ
    Blend: AUG-CC-PVTZ
  Basis Set: (AUG-CC-PVTZ AUX)
    Blend: AUG-CC-PVTZ-JKFIT
	 Reference Energy          =    -857.6053320760042880 [Eh]
	 Singles Energy            =      -0.0000000000000000 [Eh]
	 Same-Spin Energy          =      -0.5258327385465777 [Eh]
	 Opposite-Spin Energy      =      -1.6829905617465299 [Eh]
	 Correlation Energy        =      -2.2088233002931075 [Eh]
	 Total Energy              =    -859.8141553762974354 [Eh]

	 ================> DF-SCS-MP2 Energies <==================
	-----------------------------------------------------------
	 SCS Same-Spin Scale       =       0.3333333333333333 [-]
	 SCS Opposite-Spin Scale   =       1.2000000000000000 [-]
	 SCS Same-Spin Energy      =      -0.1752775795155259 [Eh]
	 SCS Opposite-Spin Energy  =      -2.0195886740958358 [Eh]
	 SCS Correlation Energy    =      -2.1948662536113615 [Eh]
	 SCS Total Energy          =    -859.8001983296156823 [Eh]
	-----------------------------------------------------------

  Dipole Moment: [D]
     X:    -0.0396      Y:     2.6608      Z:    -1.0488     Total:     2.8603

*** Psi4 exiting successfully. Buy a developer a beer!
