                               Psi4 1.3.2 release

  ==> Input File <==

--------------------------------------------------------------------------
#psi4
#
memory 32 gb

molecule  {
-1 1
  O        0.6232130    -0.7170940    -0.0000140
  O       -0.2658470     1.3958930    -0.0000020
  O        1.9606930    -0.1412830     0.0000110
  C       -1.7044290    -0.5379690     0.0000040
  C       -0.2747511     0.2140586    -0.0000045
  H       -1.5968530    -1.6227110     0.0000310
  H       -2.2707620    -0.2273260    -0.8817580
  H       -2.2707590    -0.2273030     0.8817680
units angstrom
no_reorient  #important for SAPT in psi4, default
symmetry c1  #important for SAPT in psi4, default
}

set PROPERTIES_ORIGIN ["COM"]
properties('MP2/aug-cc-pvtz', properties = ['dipole'])
--------------------------------------------------------------------------

    Molecular point group: c1
  Charge       = -1
  Multiplicity = 1
  Basis Set: AUG-CC-PVTZ
    Blend: AUG-CC-PVTZ
  Basis Set: (AUG-CC-PVTZ AUX)
    Blend: AUG-CC-PVTZ-JKFIT

    Orbital Energies [Eh]
    ---------------------

    Doubly Occupied:

       1A    -20.411904     2A    -20.350518     3A    -20.299075
       4A    -11.184918     5A    -11.077161     6A     -1.272414
       7A     -1.189152     8A     -0.929227     9A     -0.804627
      10A     -0.566791    11A     -0.490108    12A     -0.466007
      13A     -0.463578    14A     -0.413684    15A     -0.392596
      16A     -0.314503    17A     -0.304434    18A     -0.239268
      19A     -0.192281    20A     -0.168280

  @DF-RHF Final Energy:  -302.08852404830805

   => Energetics <=

    Nuclear Repulsion Energy =            168.8457438598614999
    One-Electron Energy =                -758.8074842187106697
    Two-Electron Energy =                 287.8732163105411246
    Total Energy =                       -302.0885240483080452
  Basis Set: (AUG-CC-PVTZ AUX)
    Blend: AUG-CC-PVTZ-RI
    Molecular point group: c1

    Geometry (in Angstrom), charge = -1, multiplicity = 1:

       Center              X                  Y                   Z               Mass
    ------------   -----------------  -----------------  -----------------  -----------------
         O            0.528015597460    -0.751983542915    -0.000013404682    15.994914619570
         O           -0.361044402540     1.361003457085    -0.000001404682    15.994914619570
         O            1.865495597460    -0.176172542915     0.000011595318    15.994914619570
         C           -1.799626402540    -0.572858542915     0.000004595318    12.000000000000
         C           -0.369948502540     0.179169057085    -0.000003904682    12.000000000000
         H           -1.692050402540    -1.657600542915     0.000031595318     1.007825032230
         H           -2.365959402540    -0.262215542915    -0.881757404682     1.007825032230
         H           -2.365956402540    -0.262192542915     0.881768595318     1.007825032230

  Basis Set: AUG-CC-PVTZ
    Blend: AUG-CC-PVTZ
  Basis Set: (AUG-CC-PVTZ AUX)
    Blend: AUG-CC-PVTZ-JKFIT
	 Reference Energy          =    -302.0885240483080452 [Eh]
	 Singles Energy            =      -0.0000000000000000 [Eh]
	 Same-Spin Energy          =      -0.2855386805455701 [Eh]
	 Opposite-Spin Energy      =      -0.8617360564044849 [Eh]
	 Correlation Energy        =      -1.1472747369500551 [Eh]
	 Total Energy              =    -303.2357987852581118 [Eh]

	 ================> DF-SCS-MP2 Energies <==================
	-----------------------------------------------------------
	 SCS Same-Spin Scale       =       0.3333333333333333 [-]
	 SCS Opposite-Spin Scale   =       1.2000000000000000 [-]
	 SCS Same-Spin Energy      =      -0.0951795601818567 [Eh]
	 SCS Opposite-Spin Energy  =      -1.0340832676853819 [Eh]
	 SCS Correlation Energy    =      -1.1292628278672387 [Eh]
	 SCS Total Energy          =    -303.2177868761752961 [Eh]
	-----------------------------------------------------------

  Dipole Moment: [D]
     X:    -5.7279      Y:    -1.2699      Z:    -0.0000     Total:     5.8670

*** Psi4 exiting successfully. Buy a developer a beer!
