                               Psi4 1.3.2 release

  ==> Input File <==

--------------------------------------------------------------------------
#psi4
#
memory 32 gb

molecule  {
-1 1
  O        0.6232130    -0.7170940    -0.0000140
  O       -0.2230362     1.3917452    -0.0000023
  O        1.9606930    -0.1412830     0.0000110
  C       -1.7044290    -0.5379690     0.0000040
  C       -0.3632540     0.1675050    -0.0000040
  H       -1.5968530    -1.6227110     0.0000310
  H       -2.2707620    -0.2273260    -0.8817580
  H       -2.2707590    -0.2273030     0.8817680
units angstrom
no_reorient  #important for SAPT in psi4, default
symmetry c1  #important for SAPT in psi4, default
}

set PROPERTIES_ORIGIN ["COM"]
properties('MP2/aug-cc-pvtz', properties = ['dipole'])
--------------------------------------------------------------------------

    Molecular point group: c1
  Charge       = -1
  Multiplicity = 1
  Basis Set: AUG-CC-PVTZ
    Blend: AUG-CC-PVTZ
  Basis Set: (AUG-CC-PVTZ AUX)
    Blend: AUG-CC-PVTZ-JKFIT

    Orbital Energies [Eh]
    ---------------------

    Doubly Occupied:

       1A    -20.403752     2A    -20.342013     3A    -20.295305
       4A    -11.184886     5A    -11.090469     6A     -1.249381
       7A     -1.149947     8A     -0.925847     9A     -0.831343
      10A     -0.566516    11A     -0.484756    12A     -0.464544
      13A     -0.463782    14A     -0.410746    15A     -0.388773
      16A     -0.308802    17A     -0.283646    18A     -0.250866
      19A     -0.184923    20A     -0.159956

  @DF-RHF Final Energy:  -302.09025123602510

   => Energetics <=

    Nuclear Repulsion Energy =            168.2387522564085600
    One-Electron Energy =                -757.7775018267030873
    Two-Electron Energy =                 287.4484983342694022
    Total Energy =                       -302.0902512360250967
  Basis Set: (AUG-CC-PVTZ AUX)
    Blend: AUG-CC-PVTZ-RI
    Molecular point group: c1

    Geometry (in Angstrom), charge = -1, multiplicity = 1:

       Center              X                  Y                   Z               Mass
    ------------   -----------------  -----------------  -----------------  -----------------
         O            0.533045442381    -0.743651297255    -0.000013420701    15.994914619570
         O           -0.313203757619     1.365187902745    -0.000001720701    15.994914619570
         O            1.870525442381    -0.167840297255     0.000011579299    15.994914619570
         C           -1.794596557619    -0.564526297255     0.000004579299    12.000000000000
         C           -0.453421557619     0.140947702745    -0.000003420701    12.000000000000
         H           -1.687020557619    -1.649268297255     0.000031579299     1.007825032230
         H           -2.360929557619    -0.253883297255    -0.881757420701     1.007825032230
         H           -2.360926557619    -0.253860297255     0.881768579299     1.007825032230

  Basis Set: AUG-CC-PVTZ
    Blend: AUG-CC-PVTZ
  Basis Set: (AUG-CC-PVTZ AUX)
    Blend: AUG-CC-PVTZ-JKFIT
	 Reference Energy          =    -302.0902512360250967 [Eh]
	 Singles Energy            =      -0.0000000000000000 [Eh]
	 Same-Spin Energy          =      -0.2870947444681072 [Eh]
	 Opposite-Spin Energy      =      -0.8645464838712411 [Eh]
	 Correlation Energy        =      -1.1516412283393485 [Eh]
	 Total Energy              =    -303.2418924643644687 [Eh]

	 ================> DF-SCS-MP2 Energies <==================
	-----------------------------------------------------------
	 SCS Same-Spin Scale       =       0.3333333333333333 [-]
	 SCS Opposite-Spin Scale   =       1.2000000000000000 [-]
	 SCS Same-Spin Energy      =      -0.0956982481560357 [Eh]
	 SCS Opposite-Spin Energy  =      -1.0374557806454894 [Eh]
	 SCS Correlation Energy    =      -1.1331540288015252 [Eh]
	 SCS Total Energy          =    -303.2234052648266243 [Eh]
	-----------------------------------------------------------

  Dipole Moment: [D]
     X:    -6.3326      Y:    -1.6924      Z:    -0.0000     Total:     6.5549

*** Psi4 exiting successfully. Buy a developer a beer!
