                               Psi4 1.3.2 release

  ==> Input File <==

--------------------------------------------------------------------------
#psi4
#
memory 32 gb

molecule  {
-1 1
  O        0.6825165    -0.6461267    -0.0000143
  O       -0.2658470     1.3958930    -0.0000020
  O        1.9606930    -0.1412830     0.0000110
  C       -1.7044290    -0.5379690     0.0000040
  C       -0.3632540     0.1675050    -0.0000040
  H       -1.5968530    -1.6227110     0.0000310
  H       -2.2707620    -0.2273260    -0.8817580
  H       -2.2707590    -0.2273030     0.8817680
units angstrom
no_reorient  #important for SAPT in psi4, default
symmetry c1  #important for SAPT in psi4, default
}

set PROPERTIES_ORIGIN ["COM"]
properties('MP2/aug-cc-pvtz', properties = ['dipole'])
--------------------------------------------------------------------------

    Molecular point group: c1
  Charge       = -1
  Multiplicity = 1
  Basis Set: AUG-CC-PVTZ
    Blend: AUG-CC-PVTZ
  Basis Set: (AUG-CC-PVTZ AUX)
    Blend: AUG-CC-PVTZ-JKFIT

    Orbital Energies [Eh]
    ---------------------

    Doubly Occupied:

       1A    -20.410520     2A    -20.339270     3A    -20.283790
       4A    -11.184746     5A    -11.094895     6A     -1.270233
       7A     -1.158237     8A     -0.928691     9A     -0.833738
      10A     -0.565105    11A     -0.493064    12A     -0.468969
      13A     -0.464734    14A     -0.412319    15A     -0.399158
      16A     -0.328933    17A     -0.288762    18A     -0.252916
      19A     -0.170800    20A     -0.142235

  @DF-RHF Final Energy:  -302.08774393436488

   => Energetics <=

    Nuclear Repulsion Energy =            169.3733460149725829
    One-Electron Energy =                -759.9399469855267171
    Two-Electron Energy =                 288.4788570361893107
    Total Energy =                       -302.0877439343648803
  Basis Set: (AUG-CC-PVTZ AUX)
    Blend: AUG-CC-PVTZ-RI
    Molecular point group: c1

    Geometry (in Angstrom), charge = -1, multiplicity = 1:

       Center              X                  Y                   Z               Mass
    ------------   -----------------  -----------------  -----------------  -----------------
         O            0.588832003411    -0.688701703419    -0.000013720701    15.994914619570
         O           -0.359531496589     1.353317996581    -0.000001420701    15.994914619570
         O            1.867008503411    -0.183858003419     0.000011579299    15.994914619570
         C           -1.798113496589    -0.580544003419     0.000004579299    12.000000000000
         C           -0.456938496589     0.124929996581    -0.000003420701    12.000000000000
         H           -1.690537496589    -1.665286003419     0.000031579299     1.007825032230
         H           -2.364446496589    -0.269901003419    -0.881757420701     1.007825032230
         H           -2.364443496589    -0.269878003419     0.881768579299     1.007825032230

  Basis Set: AUG-CC-PVTZ
    Blend: AUG-CC-PVTZ
  Basis Set: (AUG-CC-PVTZ AUX)
    Blend: AUG-CC-PVTZ-JKFIT
	 Reference Energy          =    -302.0877439343648803 [Eh]
	 Singles Energy            =      -0.0000000000000000 [Eh]
	 Same-Spin Energy          =      -0.2879730559616610 [Eh]
	 Opposite-Spin Energy      =      -0.8633975612066378 [Eh]
	 Correlation Energy        =      -1.1513706171682987 [Eh]
	 Total Energy              =    -303.2391145515331914 [Eh]

	 ================> DF-SCS-MP2 Energies <==================
	-----------------------------------------------------------
	 SCS Same-Spin Scale       =       0.3333333333333333 [-]
	 SCS Opposite-Spin Scale   =       1.2000000000000000 [-]
	 SCS Same-Spin Energy      =      -0.0959910186538870 [Eh]
	 SCS Opposite-Spin Energy  =      -1.0360770734479654 [Eh]
	 SCS Correlation Energy    =      -1.1320680921018524 [Eh]
	 SCS Total Energy          =    -303.2198120264667409 [Eh]
	-----------------------------------------------------------

  Dipole Moment: [D]
     X:    -6.1517      Y:    -1.8901      Z:    -0.0000     Total:     6.4355

*** Psi4 exiting successfully. Buy a developer a beer!
