                               Psi4 1.3.2 release

  ==> Input File <==

--------------------------------------------------------------------------
#psi4
#
memory 32 gb

molecule  {
-1 1
  O        0.6232130    -0.7170940    -0.0000140
  O       -0.2658470     1.3958930    -0.0000020
  O        1.9606930    -0.1412830     0.0000110
  C       -1.7044290    -0.5379690     0.0000040
  C       -0.3512372     0.1426774     0.0451297
  H       -1.5968530    -1.6227110     0.0000310
  H       -2.2707620    -0.2273260    -0.8817580
  H       -2.2707590    -0.2273030     0.8817680
units angstrom
no_reorient  #important for SAPT in psi4, default
symmetry c1  #important for SAPT in psi4, default
}

set PROPERTIES_ORIGIN ["COM"]
properties('MP2/aug-cc-pvtz', properties = ['dipole'])
--------------------------------------------------------------------------

    Molecular point group: c1
  Charge       = -1
  Multiplicity = 1
  Basis Set: AUG-CC-PVTZ
    Blend: AUG-CC-PVTZ
  Basis Set: (AUG-CC-PVTZ AUX)
    Blend: AUG-CC-PVTZ-JKFIT

    Orbital Energies [Eh]
    ---------------------

    Doubly Occupied:

       1A    -20.412384     2A    -20.336817     3A    -20.301740
       4A    -11.186236     5A    -11.088086     6A     -1.257875
       7A     -1.139118     8A     -0.934527     9A     -0.830852
      10A     -0.568604    11A     -0.486225    12A     -0.465024
      13A     -0.462618    14A     -0.406551    15A     -0.392246
      16A     -0.312312    17A     -0.277162    18A     -0.246716
      19A     -0.191937    20A     -0.166986

  @DF-RHF Final Energy:  -302.08918806318701

   => Energetics <=

    Nuclear Repulsion Energy =            168.0947582633515367
    One-Electron Energy =                -757.4398585114980733
    Two-Electron Energy =                 287.2559121849595272
    Total Energy =                       -302.0891880631870094
  Basis Set: (AUG-CC-PVTZ AUX)
    Blend: AUG-CC-PVTZ-RI
    Molecular point group: c1

    Geometry (in Angstrom), charge = -1, multiplicity = 1:

       Center              X                  Y                   Z               Mass
    ------------   -----------------  -----------------  -----------------  -----------------
         O            0.540252032517    -0.740563802359    -0.007234085396    15.994914619570
         O           -0.348807967483     1.372423197641    -0.007222085396    15.994914619570
         O            1.877732032517    -0.164752802359    -0.007209085396    15.994914619570
         C           -1.787389967483    -0.561438802359    -0.007216085396    12.000000000000
         C           -0.434198167483     0.119207597641     0.037909614604    12.000000000000
         H           -1.679813967483    -1.646180802359    -0.007189085396     1.007825032230
         H           -2.353722967483    -0.250795802359    -0.888978085396     1.007825032230
         H           -2.353719967483    -0.250772802359     0.874547914604     1.007825032230

  Basis Set: AUG-CC-PVTZ
    Blend: AUG-CC-PVTZ
  Basis Set: (AUG-CC-PVTZ AUX)
    Blend: AUG-CC-PVTZ-JKFIT
	 Reference Energy          =    -302.0891880631870094 [Eh]
	 Singles Energy            =      -0.0000000000000000 [Eh]
	 Same-Spin Energy          =      -0.2869159434999575 [Eh]
	 Opposite-Spin Energy      =      -0.8643290029383595 [Eh]
	 Correlation Energy        =      -1.1512449464383170 [Eh]
	 Total Energy              =    -303.2404330096253489 [Eh]

	 ================> DF-SCS-MP2 Energies <==================
	-----------------------------------------------------------
	 SCS Same-Spin Scale       =       0.3333333333333333 [-]
	 SCS Opposite-Spin Scale   =       1.2000000000000000 [-]
	 SCS Same-Spin Energy      =      -0.0956386478333192 [Eh]
	 SCS Opposite-Spin Energy  =      -1.0371948035260312 [Eh]
	 SCS Correlation Energy    =      -1.1328334513593503 [Eh]
	 SCS Total Energy          =    -303.2220215145463840 [Eh]
	-----------------------------------------------------------

  Dipole Moment: [D]
     X:    -6.0708      Y:    -1.9141      Z:     0.0575     Total:     6.3657

*** Psi4 exiting successfully. Buy a developer a beer!
