                               Psi4 1.4a3.dev225

  ==> Input File <==

--------------------------------------------------------------------------
#psi4
#
memory 32 gb

molecule  {
-1 1
  O        0.6232130    -0.7170940    -0.0000140
  O       -0.2658470     1.3958930    -0.0000020
  O        1.9606930    -0.1412830     0.0000110
  C       -1.7044290    -0.5379690     0.0000040
  C       -0.3483640     0.1541526    -0.0000042
  H       -1.5968530    -1.6227110     0.0000310
  H       -2.2707620    -0.2273260    -0.8817580
  H       -2.2707590    -0.2273030     0.8817680
units angstrom
no_reorient  #important for SAPT in psi4, default
symmetry c1  #important for SAPT in psi4, default
}

set PROPERTIES_ORIGIN ["COM"]
properties('MP2/aug-cc-pvtz', properties = ['dipole'])
--------------------------------------------------------------------------

    Molecular point group: c1
  Charge       = -1
  Multiplicity = 1
  Basis Set: AUG-CC-PVTZ
    Blend: AUG-CC-PVTZ
  Basis Set: (AUG-CC-PVTZ AUX)
    Blend: AUG-CC-PVTZ-JKFIT

    Orbital Energies [Eh]
    ---------------------

    Doubly Occupied:

       1A    -20.410757     2A    -20.339211     3A    -20.300316
       4A    -11.185740     5A    -11.087414     6A     -1.256746
       7A     -1.146794     8A     -0.932320     9A     -0.828718
      10A     -0.567810    11A     -0.485941    12A     -0.464350
      13A     -0.462942    14A     -0.408776    15A     -0.391719
      16A     -0.311849    17A     -0.281414    18A     -0.248080
      19A     -0.190691    20A     -0.165858

  @DF-RHF Final Energy:  -302.09159136873950

   => Energetics <=

    Nuclear Repulsion Energy =            168.1638155596924946
    One-Electron Energy =                -757.5759224535319163
    Two-Electron Energy =                 287.3205155250999496
    Total Energy =                       -302.0915913687395005
  Basis Set: (AUG-CC-PVTZ AUX)
    Blend: AUG-CC-PVTZ-RI
    Molecular point group: c1

    Geometry (in Angstrom), charge = -1, multiplicity = 1:

       Center              X                  Y                   Z               Mass
    ------------   -----------------  -----------------  -----------------  -----------------
         O            0.539792370889    -0.742399633178    -0.000013452677    15.994914619570
         O           -0.349267629111     1.370587366822    -0.000001452677    15.994914619570
         O            1.877272370889    -0.166588633178     0.000011547323    15.994914619570
         C           -1.787849629111    -0.563274633178     0.000004547323    12.000000000000
         C           -0.431784629111     0.128846966822    -0.000003652677    12.000000000000
         H           -1.680273629111    -1.648016633178     0.000031547323     1.007825032230
         H           -2.354182629111    -0.252631633178    -0.881757452677     1.007825032230
         H           -2.354179629111    -0.252608633178     0.881768547323     1.007825032230

  Basis Set: AUG-CC-PVTZ
    Blend: AUG-CC-PVTZ
  Basis Set: (AUG-CC-PVTZ AUX)
    Blend: AUG-CC-PVTZ-JKFIT
	 Reference Energy          =    -302.0915913687395005 [Eh]
	 Singles Energy            =      -0.0000000000000000 [Eh]
	 Same-Spin Energy          =      -0.2867199741231294 [Eh]
	 Opposite-Spin Energy      =      -0.8639323294290431 [Eh]
	 Correlation Energy        =      -1.1506523035521725 [Eh]
	 Total Energy              =    -303.2422436722916927 [Eh]

	 ================> DF-SCS-MP2 Energies <==================
	-----------------------------------------------------------
	 SCS Same-Spin Scale       =       0.3333333333333333 [-]
	 SCS Opposite-Spin Scale   =       1.2000000000000000 [-]
	 SCS Same-Spin Energy      =      -0.0955733247077098 [Eh]
	 SCS Opposite-Spin Energy  =      -1.0367187953148516 [Eh]
	 SCS Correlation Energy    =      -1.1322921200225613 [Eh]
	 SCS Total Energy          =    -303.2238834887620555 [Eh]
	-----------------------------------------------------------

  Dipole Moment: [D]
     X:    -6.0978      Y:    -1.8158      Z:    -0.0000     Total:     6.3624

*** Psi4 exiting successfully. Buy a developer a beer!
