                               Psi4 1.3.2 release

  ==> Input File <==

--------------------------------------------------------------------------
#psi4
#
memory 32 gb

molecule  {
-1 1
  O        0.6232130    -0.7170940    -0.0000140
  O       -0.2658470     1.3958930    -0.0000020
  O        1.9606930    -0.1412830     0.0000110
  C       -1.7044290    -0.5379690     0.0000040
  C       -0.3769048     0.1914731    -0.0451377
  H       -1.5968530    -1.6227110     0.0000310
  H       -2.2707620    -0.2273260    -0.8817580
  H       -2.2707590    -0.2273030     0.8817680
units angstrom
no_reorient  #important for SAPT in psi4, default
symmetry c1  #important for SAPT in psi4, default
}

set PROPERTIES_ORIGIN ["COM"]
properties('MP2/aug-cc-pvtz', properties = ['dipole'])
--------------------------------------------------------------------------

    Molecular point group: c1
  Charge       = -1
  Multiplicity = 1
  Basis Set: AUG-CC-PVTZ
    Blend: AUG-CC-PVTZ
  Basis Set: (AUG-CC-PVTZ AUX)
    Blend: AUG-CC-PVTZ-JKFIT

    Orbital Energies [Eh]
    ---------------------

    Doubly Occupied:

       1A    -20.400279     2A    -20.350132     3A    -20.292119
       4A    -11.185885     5A    -11.088853     6A     -1.245649
       7A     -1.162499     8A     -0.919323     9A     -0.829066
      10A     -0.566833    11A     -0.484675    12A     -0.465864
      13A     -0.463381    14A     -0.413853    15A     -0.385639
      16A     -0.307368    17A     -0.293109    18A     -0.254997
      19A     -0.180946    20A     -0.156223

  @DF-RHF Final Energy:  -302.08872439414586

   => Energetics <=

    Nuclear Repulsion Energy =            167.9809920455937515
    One-Electron Energy =                -757.2460465588392253
    Two-Electron Energy =                 287.1763301190995890
    Total Energy =                       -302.0887243941458564
  Basis Set: (AUG-CC-PVTZ AUX)
    Blend: AUG-CC-PVTZ-RI
    Molecular point group: c1

    Geometry (in Angstrom), charge = -1, multiplicity = 1:

       Center              X                  Y                   Z               Mass
    ------------   -----------------  -----------------  -----------------  -----------------
         O            0.544358398516    -0.748370258880     0.007207116050    15.994914619570
         O           -0.344701601484     1.364616741120     0.007219116050    15.994914619570
         O            1.881838398516    -0.172559258880     0.007232116050    15.994914619570
         C           -1.783283601484    -0.569245258880     0.007225116050    12.000000000000
         C           -0.455759401484     0.160196841120    -0.037916583950    12.000000000000
         H           -1.675707601484    -1.653987258880     0.007252116050     1.007825032230
         H           -2.349616601484    -0.258602258880    -0.874536883950     1.007825032230
         H           -2.349613601484    -0.258579258880     0.888989116050     1.007825032230

  Basis Set: AUG-CC-PVTZ
    Blend: AUG-CC-PVTZ
  Basis Set: (AUG-CC-PVTZ AUX)
    Blend: AUG-CC-PVTZ-JKFIT
	 Reference Energy          =    -302.0887243941458564 [Eh]
	 Singles Energy            =      -0.0000000000000000 [Eh]
	 Same-Spin Energy          =      -0.2872056965007993 [Eh]
	 Opposite-Spin Energy      =      -0.8649664697079908 [Eh]
	 Correlation Energy        =      -1.1521721662087900 [Eh]
	 Total Energy              =    -303.2408965603546562 [Eh]

	 ================> DF-SCS-MP2 Energies <==================
	-----------------------------------------------------------
	 SCS Same-Spin Scale       =       0.3333333333333333 [-]
	 SCS Opposite-Spin Scale   =       1.2000000000000000 [-]
	 SCS Same-Spin Energy      =      -0.0957352321669331 [Eh]
	 SCS Opposite-Spin Energy  =      -1.0379597636495890 [Eh]
	 SCS Correlation Energy    =      -1.1336949958165221 [Eh]
	 SCS Total Energy          =    -303.2224193899623970 [Eh]
	-----------------------------------------------------------

  Dipole Moment: [D]
     X:    -6.4375      Y:    -1.4697      Z:    -0.0626     Total:     6.6034

*** Psi4 exiting successfully. Buy a developer a beer!
