                               Psi4 1.3.2 release

  ==> Input File <==

--------------------------------------------------------------------------
#psi4
#
memory 32 gb

molecule  {
-1 1
  O        0.6232130    -0.7170940    -0.0000140
  O       -0.2658470     1.3958930    -0.0000020
  O        2.0135548    -0.2842421     0.0000084
  C       -1.7044290    -0.5379690     0.0000040
  C       -0.3632540     0.1675050    -0.0000040
  H       -1.5968530    -1.6227110     0.0000310
  H       -2.2707620    -0.2273260    -0.8817580
  H       -2.2707590    -0.2273030     0.8817680
units angstrom
no_reorient  #important for SAPT in psi4, default
symmetry c1  #important for SAPT in psi4, default
}

set PROPERTIES_ORIGIN ["COM"]
properties('MP2/aug-cc-pvtz', properties = ['dipole'])
--------------------------------------------------------------------------

    Molecular point group: c1
  Charge       = -1
  Multiplicity = 1
  Basis Set: AUG-CC-PVTZ
    Blend: AUG-CC-PVTZ
  Basis Set: (AUG-CC-PVTZ AUX)
    Blend: AUG-CC-PVTZ-JKFIT

    Orbital Energies [Eh]
    ---------------------

    Doubly Occupied:

       1A    -20.404169     2A    -20.344813     3A    -20.302063
       4A    -11.188277     5A    -11.089481     6A     -1.247563
       7A     -1.155034     8A     -0.931390     9A     -0.831990
      10A     -0.566488    11A     -0.484413    12A     -0.465252
      13A     -0.464862    14A     -0.411599    15A     -0.388476
      16A     -0.311395    17A     -0.288738    18A     -0.254576
      19A     -0.187562    20A     -0.163781

  @DF-RHF Final Energy:  -302.09083538116528

   => Energetics <=

    Nuclear Repulsion Energy =            167.0784053301919982
    One-Electron Energy =                -755.3746345890942848
    Two-Electron Energy =                 286.2053938777369808
    Total Energy =                       -302.0908353811652773
  Basis Set: (AUG-CC-PVTZ AUX)
    Blend: AUG-CC-PVTZ-RI
    Molecular point group: c1

    Geometry (in Angstrom), charge = -1, multiplicity = 1:

       Center              X                  Y                   Z               Mass
    ------------   -----------------  -----------------  -----------------  -----------------
         O            0.530902145432    -0.714050875825    -0.000012930244    15.994914619570
         O           -0.358157854568     1.398936124175    -0.000000930244    15.994914619570
         O            1.921243945432    -0.281198975825     0.000009469756    15.994914619570
         C           -1.796739854568    -0.534925875825     0.000005069756    12.000000000000
         C           -0.455564854568     0.170548124175    -0.000002930244    12.000000000000
         H           -1.689163854568    -1.619667875825     0.000032069756     1.007825032230
         H           -2.363072854568    -0.224282875825    -0.881756930244     1.007825032230
         H           -2.363069854568    -0.224259875825     0.881769069756     1.007825032230

  Basis Set: AUG-CC-PVTZ
    Blend: AUG-CC-PVTZ
  Basis Set: (AUG-CC-PVTZ AUX)
    Blend: AUG-CC-PVTZ-JKFIT
	 Reference Energy          =    -302.0908353811652773 [Eh]
	 Singles Energy            =      -0.0000000000000000 [Eh]
	 Same-Spin Energy          =      -0.2865998117941380 [Eh]
	 Opposite-Spin Energy      =      -0.8638290952036298 [Eh]
	 Correlation Energy        =      -1.1504289069977678 [Eh]
	 Total Energy              =    -303.2412642881630518 [Eh]

	 ================> DF-SCS-MP2 Energies <==================
	-----------------------------------------------------------
	 SCS Same-Spin Scale       =       0.3333333333333333 [-]
	 SCS Opposite-Spin Scale   =       1.2000000000000000 [-]
	 SCS Same-Spin Energy      =      -0.0955332705980460 [Eh]
	 SCS Opposite-Spin Energy  =      -1.0365949142443558 [Eh]
	 SCS Correlation Energy    =      -1.1321281848424019 [Eh]
	 SCS Total Energy          =    -303.2229635660077065 [Eh]
	-----------------------------------------------------------

  Dipole Moment: [D]
     X:    -6.3271      Y:    -1.4743      Z:    -0.0000     Total:     6.4966

*** Psi4 exiting successfully. Buy a developer a beer!
