                               Psi4 1.3.2 release

  ==> Input File <==

--------------------------------------------------------------------------
#psi4
#
memory 32 gb

molecule  {
-1 1
  O        0.6232130    -0.7170940    -0.0000140
  O       -0.2658470     1.3958930    -0.0000020
  O        1.9606930    -0.1412830     0.0000110
  C       -1.7044290    -0.5379690     0.0000040
  C       -0.3921730     0.2145525    -0.0902164
  H       -1.5968530    -1.6227110     0.0000310
  H       -2.2707620    -0.2273260    -0.8817580
  H       -2.2707590    -0.2273030     0.8817680
units angstrom
no_reorient  #important for SAPT in psi4, default
symmetry c1  #important for SAPT in psi4, default
}

set PROPERTIES_ORIGIN ["COM"]
properties('MP2/aug-cc-pvtz', properties = ['dipole'])
--------------------------------------------------------------------------

    Molecular point group: c1
  Charge       = -1
  Multiplicity = 1
  Basis Set: AUG-CC-PVTZ
    Blend: AUG-CC-PVTZ
  Basis Set: (AUG-CC-PVTZ AUX)
    Blend: AUG-CC-PVTZ-JKFIT

    Orbital Energies [Eh]
    ---------------------

    Doubly Occupied:

       1A    -20.394302     2A    -20.357019     3A    -20.287472
       4A    -11.186303     5A    -11.089871     6A     -1.246709
       7A     -1.165130     8A     -0.911939     9A     -0.827943
      10A     -0.567318    11A     -0.484696    12A     -0.468693
      13A     -0.463000    14A     -0.415670    15A     -0.383084
      16A     -0.303704    17A     -0.298699    18A     -0.257372
      19A     -0.175062    20A     -0.150577

  @DF-RHF Final Energy:  -302.08185854493541

   => Energetics <=

    Nuclear Repulsion Energy =            167.8327620158440823
    One-Electron Energy =                -756.9601169459549510
    Two-Electron Energy =                 287.0454963851754542
    Total Energy =                       -302.0818585449354146
  Basis Set: (AUG-CC-PVTZ AUX)
    Blend: AUG-CC-PVTZ-RI
    Molecular point group: c1

    Geometry (in Angstrom), charge = -1, multiplicity = 1:

       Center              X                  Y                   Z               Mass
    ------------   -----------------  -----------------  -----------------  -----------------
         O            0.546801042836    -0.752062558256     0.014418917737    15.994914619570
         O           -0.342258957164     1.360924441744     0.014430917737    15.994914619570
         O            1.884281042836    -0.176251558256     0.014443917737    15.994914619570
         C           -1.780840957164    -0.572937558256     0.014436917737    12.000000000000
         C           -0.468584957164     0.179583941744    -0.075783482263    12.000000000000
         H           -1.673264957164    -1.657679558256     0.014463917737     1.007825032230
         H           -2.347173957164    -0.262294558256    -0.867325082263     1.007825032230
         H           -2.347170957164    -0.262271558256     0.896200917737     1.007825032230

  Basis Set: AUG-CC-PVTZ
    Blend: AUG-CC-PVTZ
  Basis Set: (AUG-CC-PVTZ AUX)
    Blend: AUG-CC-PVTZ-JKFIT
	 Reference Energy          =    -302.0818585449354146 [Eh]
	 Singles Energy            =      -0.0000000000000000 [Eh]
	 Same-Spin Energy          =      -0.2876591141261031 [Eh]
	 Opposite-Spin Energy      =      -0.8660060003750976 [Eh]
	 Correlation Energy        =      -1.1536651145012007 [Eh]
	 Total Energy              =    -303.2355236594366374 [Eh]

	 ================> DF-SCS-MP2 Energies <==================
	-----------------------------------------------------------
	 SCS Same-Spin Scale       =       0.3333333333333333 [-]
	 SCS Opposite-Spin Scale   =       1.2000000000000000 [-]
	 SCS Same-Spin Energy      =      -0.0958863713753677 [Eh]
	 SCS Opposite-Spin Energy  =      -1.0392072004501169 [Eh]
	 SCS Correlation Energy    =      -1.1350935718254846 [Eh]
	 SCS Total Energy          =    -303.2169521167609219 [Eh]
	-----------------------------------------------------------

  Dipole Moment: [D]
     X:    -6.6204      Y:    -1.2535      Z:    -0.1286     Total:     6.7392

*** Psi4 exiting successfully. Buy a developer a beer!
