                               Psi4 1.3.2 release

  ==> Input File <==

--------------------------------------------------------------------------
#psi4
#
memory 32 gb

molecule  {
-1 1
  O        0.6232130    -0.7170940    -0.0000140
  O       -0.2658470     1.3958930    -0.0000020
  O        1.9606930    -0.1412830     0.0000110
  C       -1.7044290    -0.5379690     0.0000040
  C       -0.1862482     0.2606122    -0.0000051
  H       -1.5968530    -1.6227110     0.0000310
  H       -2.2707620    -0.2273260    -0.8817580
  H       -2.2707590    -0.2273030     0.8817680
units angstrom
no_reorient  #important for SAPT in psi4, default
symmetry c1  #important for SAPT in psi4, default
}

set PROPERTIES_ORIGIN ["COM"]
properties('MP2/aug-cc-pvtz', properties = ['dipole'])
--------------------------------------------------------------------------

    Molecular point group: c1
  Charge       = -1
  Multiplicity = 1
  Basis Set: AUG-CC-PVTZ
    Blend: AUG-CC-PVTZ
  Basis Set: (AUG-CC-PVTZ AUX)
    Blend: AUG-CC-PVTZ-JKFIT

    Orbital Energies [Eh]
    ---------------------

    Doubly Occupied:

       1A    -20.420203     2A    -20.362179     3A    -20.303500
       4A    -11.190288     5A    -11.060258     6A     -1.296935
       7A     -1.226342     8A     -0.934225     9A     -0.779738
      10A     -0.573420    11A     -0.503687    12A     -0.474440
      13A     -0.473036    14A     -0.407001    15A     -0.386156
      16A     -0.324717    17A     -0.324147    18A     -0.214824
      19A     -0.197721    20A     -0.176575

  @DF-RHF Final Energy:  -302.06419268893762

   => Energetics <=

    Nuclear Repulsion Energy =            169.6051254130343580
    One-Electron Energy =                -760.0798510829024508
    Two-Electron Energy =                 288.4105329809304976
    Total Energy =                       -302.0641926889376236
  Basis Set: (AUG-CC-PVTZ AUX)
    Blend: AUG-CC-PVTZ-RI
    Molecular point group: c1

    Geometry (in Angstrom), charge = -1, multiplicity = 1:

       Center              X                  Y                   Z               Mass
    ------------   -----------------  -----------------  -----------------  -----------------
         O            0.513856685079    -0.759431302744    -0.000013308692    15.994914619570
         O           -0.375203314921     1.353555697256    -0.000001308692    15.994914619570
         O            1.851336685079    -0.183620302744     0.000011691308    15.994914619570
         C           -1.813785314921    -0.580306302744     0.000004691308    12.000000000000
         C           -0.295604514921     0.218274897256    -0.000004408692    12.000000000000
         H           -1.706209314921    -1.665048302744     0.000031691308     1.007825032230
         H           -2.380118314921    -0.269663302744    -0.881757308692     1.007825032230
         H           -2.380115314921    -0.269640302744     0.881768691308     1.007825032230

  Basis Set: AUG-CC-PVTZ
    Blend: AUG-CC-PVTZ
  Basis Set: (AUG-CC-PVTZ AUX)
    Blend: AUG-CC-PVTZ-JKFIT
	 Reference Energy          =    -302.0641926889376236 [Eh]
	 Singles Energy            =      -0.0000000000000000 [Eh]
	 Same-Spin Energy          =      -0.2853793210034259 [Eh]
	 Opposite-Spin Energy      =      -0.8611772985325239 [Eh]
	 Correlation Energy        =      -1.1465566195359498 [Eh]
	 Total Energy              =    -303.2107493084735665 [Eh]

	 ================> DF-SCS-MP2 Energies <==================
	-----------------------------------------------------------
	 SCS Same-Spin Scale       =       0.3333333333333333 [-]
	 SCS Opposite-Spin Scale   =       1.2000000000000000 [-]
	 SCS Same-Spin Energy      =      -0.0951264403344753 [Eh]
	 SCS Opposite-Spin Energy  =      -1.0334127582390287 [Eh]
	 SCS Correlation Energy    =      -1.1285391985735040 [Eh]
	 SCS Total Energy          =    -303.1927318875111155 [Eh]
	-----------------------------------------------------------

  Dipole Moment: [D]
     X:    -4.9980      Y:    -0.7572      Z:    -0.0000     Total:     5.0551

*** Psi4 exiting successfully. Buy a developer a beer!
