                               Psi4 1.3.2 release

  ==> Input File <==

--------------------------------------------------------------------------
#psi4
#
memory 32 gb

molecule  {
-1 1
  O        0.6232130    -0.7170940    -0.0000140
  O       -0.2658470     1.3958930    -0.0000020
  O        1.9172684    -0.0493878     0.0000126
  C       -1.7044290    -0.5379690     0.0000040
  C       -0.3632540     0.1675050    -0.0000040
  H       -1.5968530    -1.6227110     0.0000310
  H       -2.2707620    -0.2273260    -0.8817580
  H       -2.2707590    -0.2273030     0.8817680
units angstrom
no_reorient  #important for SAPT in psi4, default
symmetry c1  #important for SAPT in psi4, default
}

set PROPERTIES_ORIGIN ["COM"]
properties('MP2/aug-cc-pvtz', properties = ['dipole'])
--------------------------------------------------------------------------

    Molecular point group: c1
  Charge       = -1
  Multiplicity = 1
  Basis Set: AUG-CC-PVTZ
    Blend: AUG-CC-PVTZ
  Basis Set: (AUG-CC-PVTZ AUX)
    Blend: AUG-CC-PVTZ-JKFIT

    Orbital Energies [Eh]
    ---------------------

    Doubly Occupied:

       1A    -20.407123     2A    -20.341938     3A    -20.293335
       4A    -11.184149     5A    -11.087139     6A     -1.251447
       7A     -1.151632     8A     -0.923830     9A     -0.828316
      10A     -0.567659    11A     -0.485446    12A     -0.463718
      13A     -0.462134    14A     -0.409870    15A     -0.388815
      16A     -0.309571    17A     -0.283287    18A     -0.248958
      19A     -0.185303    20A     -0.160424

  @DF-RHF Final Energy:  -302.08968725645894

   => Energetics <=

    Nuclear Repulsion Energy =            168.8186394423281911
    One-Electron Energy =                -758.9484693452063766
    Two-Electron Energy =                 288.0401426464192696
    Total Energy =                       -302.0896872564589444
  Basis Set: (AUG-CC-PVTZ AUX)
    Blend: AUG-CC-PVTZ-RI
    Molecular point group: c1

    Geometry (in Angstrom), charge = -1, multiplicity = 1:

       Center              X                  Y                   Z               Mass
    ------------   -----------------  -----------------  -----------------  -----------------
         O            0.551434465336    -0.764131714017    -0.000013825861    15.994914619570
         O           -0.337625534664     1.348855285983    -0.000001825861    15.994914619570
         O            1.845489865336    -0.096425514017     0.000012774139    15.994914619570
         C           -1.776207534664    -0.585006714017     0.000004174139    12.000000000000
         C           -0.435032534664     0.120467285983    -0.000003825861    12.000000000000
         H           -1.668631534664    -1.669748714017     0.000031174139     1.007825032230
         H           -2.342540534664    -0.274363714017    -0.881757825861     1.007825032230
         H           -2.342537534664    -0.274340714017     0.881768174139     1.007825032230

  Basis Set: AUG-CC-PVTZ
    Blend: AUG-CC-PVTZ
  Basis Set: (AUG-CC-PVTZ AUX)
    Blend: AUG-CC-PVTZ-JKFIT
	 Reference Energy          =    -302.0896872564589444 [Eh]
	 Singles Energy            =      -0.0000000000000000 [Eh]
	 Same-Spin Energy          =      -0.2872480772541955 [Eh]
	 Opposite-Spin Energy      =      -0.8648516022031389 [Eh]
	 Correlation Energy        =      -1.1520996794573346 [Eh]
	 Total Energy              =    -303.2417869359162523 [Eh]

	 ================> DF-SCS-MP2 Energies <==================
	-----------------------------------------------------------
	 SCS Same-Spin Scale       =       0.3333333333333333 [-]
	 SCS Opposite-Spin Scale   =       1.2000000000000000 [-]
	 SCS Same-Spin Energy      =      -0.0957493590847318 [Eh]
	 SCS Opposite-Spin Energy  =      -1.0378219226437666 [Eh]
	 SCS Correlation Energy    =      -1.1335712817284984 [Eh]
	 SCS Total Energy          =    -303.2232585381874514 [Eh]
	-----------------------------------------------------------

  Dipole Moment: [D]
     X:    -6.1767      Y:    -1.8250      Z:    -0.0000     Total:     6.4407

*** Psi4 exiting successfully. Buy a developer a beer!
