                               Psi4 1.3.2 release

  ==> Input File <==

--------------------------------------------------------------------------
#psi4
#
memory 32 gb

molecule  {
-1 1
  O        0.6534841    -0.6821279    -0.0000142
  O       -0.2658470     1.3958930    -0.0000020
  O        1.9606930    -0.1412830     0.0000110
  C       -1.7044290    -0.5379690     0.0000040
  C       -0.3632540     0.1675050    -0.0000040
  H       -1.5968530    -1.6227110     0.0000310
  H       -2.2707620    -0.2273260    -0.8817580
  H       -2.2707590    -0.2273030     0.8817680
units angstrom
no_reorient  #important for SAPT in psi4, default
symmetry c1  #important for SAPT in psi4, default
}

set PROPERTIES_ORIGIN ["COM"]
properties('MP2/aug-cc-pvtz', properties = ['dipole'])
--------------------------------------------------------------------------

    Molecular point group: c1
  Charge       = -1
  Multiplicity = 1
  Basis Set: AUG-CC-PVTZ
    Blend: AUG-CC-PVTZ
  Basis Set: (AUG-CC-PVTZ AUX)
    Blend: AUG-CC-PVTZ-JKFIT

    Orbital Energies [Eh]
    ---------------------

    Doubly Occupied:

       1A    -20.408599     2A    -20.341597     3A    -20.289857
       4A    -11.185469     5A    -11.091717     6A     -1.259170
       7A     -1.155834     8A     -0.927520     9A     -0.831866
      10A     -0.566455    11A     -0.489126    12A     -0.466658
      13A     -0.464195    14A     -0.411621    15A     -0.393866
      16A     -0.319503    17A     -0.287296    18A     -0.252434
      19A     -0.178692    20A     -0.151981

  @DF-RHF Final Energy:  -302.09093213364332

   => Energetics <=

    Nuclear Repulsion Energy =            168.7018474659033984
    One-Electron Energy =                -758.6386504720948096
    Two-Electron Energy =                 287.8458708725481188
    Total Energy =                       -302.0909321336433209
  Basis Set: (AUG-CC-PVTZ AUX)
    Blend: AUG-CC-PVTZ-RI
    Molecular point group: c1

    Geometry (in Angstrom), charge = -1, multiplicity = 1:

       Center              X                  Y                   Z               Mass
    ------------   -----------------  -----------------  -----------------  -----------------
         O            0.565990535094    -0.717025929772    -0.000013642025    15.994914619570
         O           -0.353340564906     1.360994970228    -0.000001442025    15.994914619570
         O            1.873199435094    -0.176181029772     0.000011557975    15.994914619570
         C           -1.791922564906    -0.572867029772     0.000004557975    12.000000000000
         C           -0.450747564906     0.132606970228    -0.000003442025    12.000000000000
         H           -1.684346564906    -1.657609029772     0.000031557975     1.007825032230
         H           -2.358255564906    -0.262224029772    -0.881757442025     1.007825032230
         H           -2.358252564906    -0.262201029772     0.881768557975     1.007825032230

  Basis Set: AUG-CC-PVTZ
    Blend: AUG-CC-PVTZ
  Basis Set: (AUG-CC-PVTZ AUX)
    Blend: AUG-CC-PVTZ-JKFIT
	 Reference Energy          =    -302.0909321336433209 [Eh]
	 Singles Energy            =      -0.0000000000000000 [Eh]
	 Same-Spin Energy          =      -0.2874255112248665 [Eh]
	 Opposite-Spin Energy      =      -0.8638295723054368 [Eh]
	 Correlation Energy        =      -1.1512550835303033 [Eh]
	 Total Energy              =    -303.2421872171736368 [Eh]

	 ================> DF-SCS-MP2 Energies <==================
	-----------------------------------------------------------
	 SCS Same-Spin Scale       =       0.3333333333333333 [-]
	 SCS Opposite-Spin Scale   =       1.2000000000000000 [-]
	 SCS Same-Spin Energy      =      -0.0958085037416222 [Eh]
	 SCS Opposite-Spin Energy  =      -1.0365954867665241 [Eh]
	 SCS Correlation Energy    =      -1.1324039905081462 [Eh]
	 SCS Total Energy          =    -303.2233361241514444 [Eh]
	-----------------------------------------------------------

  Dipole Moment: [D]
     X:    -6.2186      Y:    -1.7841      Z:    -0.0000     Total:     6.4694

*** Psi4 exiting successfully. Buy a developer a beer!
