                               Psi4 1.4a3.dev225

  ==> Input File <==

--------------------------------------------------------------------------
#psi4
#
memory 32 gb

molecule  {
-1 1
  O        0.6232130    -0.7170940    -0.0000140
  O       -0.2658470     1.3958930    -0.0000020
  O        1.9606930    -0.1412830     0.0000110
  C       -1.7044290    -0.5379690     0.0000040
  C       -0.3593016     0.2173485    -0.0000039
  H       -1.5968530    -1.6227110     0.0000310
  H       -2.2707620    -0.2273260    -0.8817580
  H       -2.2707590    -0.2273030     0.8817680
units angstrom
no_reorient  #important for SAPT in psi4, default
symmetry c1  #important for SAPT in psi4, default
}

set PROPERTIES_ORIGIN ["COM"]
properties('MP2/aug-cc-pvtz', properties = ['dipole'])
--------------------------------------------------------------------------

    Molecular point group: c1
  Charge       = -1
  Multiplicity = 1
  Basis Set: AUG-CC-PVTZ
    Blend: AUG-CC-PVTZ
  Basis Set: (AUG-CC-PVTZ AUX)
    Blend: AUG-CC-PVTZ-JKFIT

    Orbital Energies [Eh]
    ---------------------

    Doubly Occupied:

       1A    -20.398259     2A    -20.355106     3A    -20.290020
       4A    -11.184367     5A    -11.086345     6A     -1.254368
       7A     -1.174459     8A     -0.915168     9A     -0.821982
      10A     -0.565590    11A     -0.486435    12A     -0.467291
      13A     -0.463456    14A     -0.416592    15A     -0.387152
      16A     -0.306811    17A     -0.302033    18A     -0.254277
      19A     -0.179355    20A     -0.155000

  @DF-RHF Final Energy:  -302.08924251279780

   => Energetics <=

    Nuclear Repulsion Energy =            168.2185290416763337
    One-Electron Energy =                -757.6874135935998993
    Two-Electron Energy =                 287.3796420391257698
    Total Energy =                       -302.0892425127977958
  Basis Set: (AUG-CC-PVTZ AUX)
    Blend: AUG-CC-PVTZ-RI
    Molecular point group: c1

    Geometry (in Angstrom), charge = -1, multiplicity = 1:

       Center              X                  Y                   Z               Mass
    ------------   -----------------  -----------------  -----------------  -----------------
         O            0.541542195133    -0.752509869237    -0.000013500671    15.994914619570
         O           -0.347517804867     1.360477130763    -0.000001500671    15.994914619570
         O            1.879022195133    -0.176698869237     0.000011499329    15.994914619570
         C           -1.786099804867    -0.573384869237     0.000004499329    12.000000000000
         C           -0.440972404867     0.181932630763    -0.000003400671    12.000000000000
         H           -1.678523804867    -1.658126869237     0.000031499329     1.007825032230
         H           -2.352432804867    -0.262741869237    -0.881757500671     1.007825032230
         H           -2.352429804867    -0.262718869237     0.881768499329     1.007825032230

  Basis Set: AUG-CC-PVTZ
    Blend: AUG-CC-PVTZ
  Basis Set: (AUG-CC-PVTZ AUX)
    Blend: AUG-CC-PVTZ-JKFIT
	 Reference Energy          =    -302.0892425127977958 [Eh]
	 Singles Energy            =      -0.0000000000000000 [Eh]
	 Same-Spin Energy          =      -0.2866319692344532 [Eh]
	 Opposite-Spin Energy      =      -0.8639013003235775 [Eh]
	 Correlation Energy        =      -1.1505332695580308 [Eh]
	 Total Energy              =    -303.2397757823558209 [Eh]

	 ================> DF-SCS-MP2 Energies <==================
	-----------------------------------------------------------
	 SCS Same-Spin Scale       =       0.3333333333333333 [-]
	 SCS Opposite-Spin Scale   =       1.2000000000000000 [-]
	 SCS Same-Spin Energy      =      -0.0955439897448177 [Eh]
	 SCS Opposite-Spin Energy  =      -1.0366815603882928 [Eh]
	 SCS Correlation Energy    =      -1.1322255501331107 [Eh]
	 SCS Total Energy          =    -303.2214680629309100 [Eh]
	-----------------------------------------------------------

  Dipole Moment: [D]
     X:    -6.4122      Y:    -1.2346      Z:    -0.0000     Total:     6.5299

*** Psi4 exiting successfully. Buy a developer a beer!
