                               Psi4 1.4a3.dev225

  ==> Input File <==

--------------------------------------------------------------------------
#psi4
#
memory 32 gb

molecule  {
-1 1
  O        0.6232130    -0.7170940    -0.0000140
  O       -0.2658470     1.3958930    -0.0000020
  O        1.9790629    -0.1333744     0.0000113
  C       -1.7044290    -0.5379690     0.0000040
  C       -0.3632540     0.1675050    -0.0000040
  H       -1.5968530    -1.6227110     0.0000310
  H       -2.2707620    -0.2273260    -0.8817580
  H       -2.2707590    -0.2273030     0.8817680
units angstrom
no_reorient  #important for SAPT in psi4, default
symmetry c1  #important for SAPT in psi4, default
}

set PROPERTIES_ORIGIN ["COM"]
properties('MP2/aug-cc-pvtz', properties = ['dipole'])
--------------------------------------------------------------------------

    Molecular point group: c1
  Charge       = -1
  Multiplicity = 1
  Basis Set: AUG-CC-PVTZ
    Blend: AUG-CC-PVTZ
  Basis Set: (AUG-CC-PVTZ AUX)
    Blend: AUG-CC-PVTZ-JKFIT

    Orbital Energies [Eh]
    ---------------------

    Doubly Occupied:

       1A    -20.403888     2A    -20.343079     3A    -20.301321
       4A    -11.185859     5A    -11.087988     6A     -1.245184
       7A     -1.150804     8A     -0.926985     9A     -0.830738
      10A     -0.566840    11A     -0.483481    12A     -0.463382
      13A     -0.463202    14A     -0.410168    15A     -0.386632
      16A     -0.306363    17A     -0.284411    18A     -0.250825
      19A     -0.190296    20A     -0.166265

  @DF-RHF Final Energy:  -302.09080147598814

   => Energetics <=

    Nuclear Repulsion Energy =            167.5751626653903656
    One-Electron Energy =                -756.4365034177191092
    Two-Electron Energy =                 286.7705392763405712
    Total Energy =                       -302.0908014759881439
  Basis Set: (AUG-CC-PVTZ AUX)
    Blend: AUG-CC-PVTZ-RI
    Molecular point group: c1

    Geometry (in Angstrom), charge = -1, multiplicity = 1:

       Center              X                  Y                   Z               Mass
    ------------   -----------------  -----------------  -----------------  -----------------
         O            0.538257272687    -0.746222230031    -0.000013548646    15.994914619570
         O           -0.350802727313     1.366764769969    -0.000001548646    15.994914619570
         O            1.894107172687    -0.162502630031     0.000011751354    15.994914619570
         C           -1.789384727313    -0.567097230031     0.000004451354    12.000000000000
         C           -0.448209727313     0.138376769969    -0.000003548646    12.000000000000
         H           -1.681808727313    -1.651839230031     0.000031451354     1.007825032230
         H           -2.355717727313    -0.256454230031    -0.881757548646     1.007825032230
         H           -2.355714727313    -0.256431230031     0.881768451354     1.007825032230

  Basis Set: AUG-CC-PVTZ
    Blend: AUG-CC-PVTZ
  Basis Set: (AUG-CC-PVTZ AUX)
    Blend: AUG-CC-PVTZ-JKFIT
	 Reference Energy          =    -302.0908014759881439 [Eh]
	 Singles Energy            =      -0.0000000000000000 [Eh]
	 Same-Spin Energy          =      -0.2866107386258867 [Eh]
	 Opposite-Spin Energy      =      -0.8644191356498228 [Eh]
	 Correlation Energy        =      -1.1510298742757095 [Eh]
	 Total Energy              =    -303.2418313502638512 [Eh]

	 ================> DF-SCS-MP2 Energies <==================
	-----------------------------------------------------------
	 SCS Same-Spin Scale       =       0.3333333333333333 [-]
	 SCS Opposite-Spin Scale   =       1.2000000000000000 [-]
	 SCS Same-Spin Energy      =      -0.0955369128752956 [Eh]
	 SCS Opposite-Spin Energy  =      -1.0373029627797872 [Eh]
	 SCS Correlation Energy    =      -1.1328398756550828 [Eh]
	 SCS Total Energy          =    -303.2236413516432094 [Eh]
	-----------------------------------------------------------

  Dipole Moment: [D]
     X:    -6.3021      Y:    -1.6807      Z:    -0.0000     Total:     6.5223

*** Psi4 exiting successfully. Buy a developer a beer!
