                               Psi4 1.3.2 release

  ==> Input File <==

--------------------------------------------------------------------------
#psi4
#
memory 32 gb

molecule  {
-1 1
  O        0.6232130    -0.7170940    -0.0000140
  O       -0.2658470     1.3958930    -0.0000020
  O        1.9606930    -0.1412830     0.0000110
  C       -1.7044290    -0.5379690     0.0000040
  C       -0.3632540     0.1675050    -0.0000040
  H       -1.5968530    -1.6227110     0.0000310
  H       -2.2707620    -0.2273260    -0.8817580
  H       -2.2707590    -0.2273030     0.8817680
units angstrom
no_reorient  #important for SAPT in psi4, default
symmetry c1  #important for SAPT in psi4, default
}

set PROPERTIES_ORIGIN ["COM"]
properties('MP2/aug-cc-pvtz', properties = ['dipole'])
--------------------------------------------------------------------------

    Molecular point group: c1
  Charge       = -1
  Multiplicity = 1
  Basis Set: AUG-CC-PVTZ
    Blend: AUG-CC-PVTZ
  Basis Set: (AUG-CC-PVTZ AUX)
    Blend: AUG-CC-PVTZ-JKFIT

    Orbital Energies [Eh]
    ---------------------

    Doubly Occupied:

       1A    -20.406328     2A    -20.343375     3A    -20.296902
       4A    -11.185882     5A    -11.088259     6A     -1.249875
       7A     -1.153275     8A     -0.926935     9A     -0.830006
      10A     -0.567276    11A     -0.485154    12A     -0.464317
      13A     -0.463559    14A     -0.410748    15A     -0.388801
      16A     -0.310385    17A     -0.285759    18A     -0.251360
      19A     -0.186593    20A     -0.161744

  @DF-RHF Final Energy:  -302.09124215503596

   => Energetics <=

    Nuclear Repulsion Energy =            168.0677516561757159
    One-Electron Energy =                -757.4049267414212636
    Two-Electron Energy =                 287.2459329302096194
    Total Energy =                       -302.0912421550359568
  Basis Set: (AUG-CC-PVTZ AUX)
    Blend: AUG-CC-PVTZ-RI
    Molecular point group: c1

    Geometry (in Angstrom), charge = -1, multiplicity = 1:

       Center              X                  Y                   Z               Mass
    ------------   -----------------  -----------------  -----------------  -----------------
         O            0.542174509840    -0.744535783085    -0.000013484673    15.994914619570
         O           -0.346885490160     1.368451216915    -0.000001484673    15.994914619570
         O            1.879654509840    -0.168724783085     0.000011515327    15.994914619570
         C           -1.785467490160    -0.565410783085     0.000004515327    12.000000000000
         C           -0.444292490160     0.140063216915    -0.000003484673    12.000000000000
         H           -1.677891490160    -1.650152783085     0.000031515327     1.007825032230
         H           -2.351800490160    -0.254767783085    -0.881757484673     1.007825032230
         H           -2.351797490160    -0.254744783085     0.881768515327     1.007825032230

  Basis Set: AUG-CC-PVTZ
    Blend: AUG-CC-PVTZ
  Basis Set: (AUG-CC-PVTZ AUX)
    Blend: AUG-CC-PVTZ-JKFIT
	 Reference Energy          =    -302.0912421550359568 [Eh]
	 Singles Energy            =      -0.0000000000000000 [Eh]
	 Same-Spin Energy          =      -0.2869608452160277 [Eh]
	 Opposite-Spin Energy      =      -0.8644125368745706 [Eh]
	 Correlation Energy        =      -1.1513733820905983 [Eh]
	 Total Energy              =    -303.2426155371265395 [Eh]

	 ================> DF-SCS-MP2 Energies <==================
	-----------------------------------------------------------
	 SCS Same-Spin Scale       =       0.3333333333333333 [-]
	 SCS Opposite-Spin Scale   =       1.2000000000000000 [-]
	 SCS Same-Spin Energy      =      -0.0956536150720092 [Eh]
	 SCS Opposite-Spin Energy  =      -1.0372950442494848 [Eh]
	 SCS Correlation Energy    =      -1.1329486593214941 [Eh]
	 SCS Total Energy          =    -303.2241908143574278 [Eh]
	-----------------------------------------------------------

  Dipole Moment: [D]
     X:    -6.2533      Y:    -1.6909      Z:    -0.0000     Total:     6.4779

*** Psi4 exiting successfully. Buy a developer a beer!
