                               Psi4 1.3.2 release

  ==> Input File <==

--------------------------------------------------------------------------
#psi4
#
memory 32 gb

molecule  {
-1 1
  O        0.6232130    -0.7170940    -0.0000140
  O       -0.2658470     1.3958930    -0.0000020
  O        1.9606930    -0.1412830     0.0000110
  C       -1.7044290    -0.5379690     0.0000040
  C       -0.4517569     0.1209514    -0.0000035
  H       -1.5968530    -1.6227110     0.0000310
  H       -2.2707620    -0.2273260    -0.8817580
  H       -2.2707590    -0.2273030     0.8817680
units angstrom
no_reorient  #important for SAPT in psi4, default
symmetry c1  #important for SAPT in psi4, default
}

set PROPERTIES_ORIGIN ["COM"]
properties('MP2/aug-cc-pvtz', properties = ['dipole'])
--------------------------------------------------------------------------

    Molecular point group: c1
  Charge       = -1
  Multiplicity = 1
  Basis Set: AUG-CC-PVTZ
    Blend: AUG-CC-PVTZ
  Basis Set: (AUG-CC-PVTZ AUX)
    Blend: AUG-CC-PVTZ-JKFIT

    Orbital Energies [Eh]
    ---------------------

    Doubly Occupied:

       1A    -20.402272     2A    -20.338576     3A    -20.295942
       4A    -11.190524     5A    -11.094839     6A     -1.228412
       7A     -1.119776     8A     -0.930454     9A     -0.853607
      10A     -0.575070    11A     -0.484946    12A     -0.474257
      13A     -0.467461    14A     -0.395486    15A     -0.377991
      16A     -0.312538    17A     -0.268159    18A     -0.248621
      19A     -0.181342    20A     -0.156071

  @DF-RHF Final Energy:  -302.06729307212061

   => Energetics <=

    Nuclear Repulsion Energy =            167.3422771378935181
    One-Electron Energy =                -756.0264544366934842
    Two-Electron Energy =                 286.6168842266794172
    Total Energy =                       -302.0672930721206058
  Basis Set: (AUG-CC-PVTZ AUX)
    Blend: AUG-CC-PVTZ-RI
    Molecular point group: c1

    Geometry (in Angstrom), charge = -1, multiplicity = 1:

       Center              X                  Y                   Z               Mass
    ------------   -----------------  -----------------  -----------------  -----------------
         O            0.556333422220    -0.737088023256    -0.000013564664    15.994914619570
         O           -0.332726577780     1.375898976744    -0.000001564664    15.994914619570
         O            1.893813422220    -0.161277023256     0.000011435336    15.994914619570
         C           -1.771308577780    -0.557963023256     0.000004435336    12.000000000000
         C           -0.518636477780     0.100957376744    -0.000003064664    12.000000000000
         H           -1.663732577780    -1.642705023256     0.000031435336     1.007825032230
         H           -2.337641577780    -0.247320023256    -0.881757564664     1.007825032230
         H           -2.337638577780    -0.247297023256     0.881768435336     1.007825032230

  Basis Set: AUG-CC-PVTZ
    Blend: AUG-CC-PVTZ
  Basis Set: (AUG-CC-PVTZ AUX)
    Blend: AUG-CC-PVTZ-JKFIT
	 Reference Energy          =    -302.0672930721206058 [Eh]
	 Singles Energy            =      -0.0000000000000000 [Eh]
	 Same-Spin Energy          =      -0.2897212536117753 [Eh]
	 Opposite-Spin Energy      =      -0.8694185331994643 [Eh]
	 Correlation Energy        =      -1.1591397868112396 [Eh]
	 Total Energy              =    -303.2264328589318438 [Eh]

	 ================> DF-SCS-MP2 Energies <==================
	-----------------------------------------------------------
	 SCS Same-Spin Scale       =       0.3333333333333333 [-]
	 SCS Opposite-Spin Scale   =       1.2000000000000000 [-]
	 SCS Same-Spin Energy      =      -0.0965737512039251 [Eh]
	 SCS Opposite-Spin Energy  =      -1.0433022398393570 [Eh]
	 SCS Correlation Energy    =      -1.1398759910432821 [Eh]
	 SCS Total Energy          =    -303.2071690631638603 [Eh]
	-----------------------------------------------------------

  Dipole Moment: [D]
     X:    -6.6321      Y:    -2.0440      Z:    -0.0000     Total:     6.9399

*** Psi4 exiting successfully. Buy a developer a beer!
