                               Psi4 1.3.2 release

  ==> Input File <==

--------------------------------------------------------------------------
#psi4
#
memory 32 gb

molecule  {
-1 1
  O        0.6076244    -0.7341755    -0.0000139
  O       -0.2658470     1.3958930    -0.0000020
  O        1.9606930    -0.1412830     0.0000110
  C       -1.7044290    -0.5379690     0.0000040
  C       -0.3632540     0.1675050    -0.0000040
  H       -1.5968530    -1.6227110     0.0000310
  H       -2.2707620    -0.2273260    -0.8817580
  H       -2.2707590    -0.2273030     0.8817680
units angstrom
no_reorient  #important for SAPT in psi4, default
symmetry c1  #important for SAPT in psi4, default
}

set PROPERTIES_ORIGIN ["COM"]
properties('MP2/aug-cc-pvtz', properties = ['dipole'])
--------------------------------------------------------------------------

    Molecular point group: c1
  Charge       = -1
  Multiplicity = 1
  Basis Set: AUG-CC-PVTZ
    Blend: AUG-CC-PVTZ
  Basis Set: (AUG-CC-PVTZ AUX)
    Blend: AUG-CC-PVTZ-JKFIT

    Orbital Energies [Eh]
    ---------------------

    Doubly Occupied:

       1A    -20.405058     2A    -20.344083     3A    -20.300746
       4A    -11.185976     5A    -11.086436     6A     -1.245796
       7A     -1.151972     8A     -0.926925     9A     -0.829059
      10A     -0.567484    11A     -0.483157    12A     -0.463196
      13A     -0.463129    14A     -0.410251    15A     -0.386344
      16A     -0.305979    17A     -0.284980    18A     -0.250573
      19A     -0.190578    20A     -0.166630

  @DF-RHF Final Energy:  -302.09043656387013

   => Energetics <=

    Nuclear Repulsion Energy =            167.7653411084121444
    One-Electron Energy =                -756.8148569082519543
    Two-Electron Energy =                 286.9590792359696820
    Total Energy =                       -302.0904365638701279
  Basis Set: (AUG-CC-PVTZ AUX)
    Blend: AUG-CC-PVTZ-RI
    Molecular point group: c1

    Geometry (in Angstrom), charge = -1, multiplicity = 1:

       Center              X                  Y                   Z               Mass
    ------------   -----------------  -----------------  -----------------  -----------------
         O            0.529910056574    -0.757974787131    -0.000013405997    15.994914619570
         O           -0.343561343426     1.372093712869    -0.000001505997    15.994914619570
         O            1.882978656574    -0.165082287131     0.000011494003    15.994914619570
         C           -1.782143343426    -0.561768287131     0.000004494003    12.000000000000
         C           -0.440968343426     0.143705712869    -0.000003505997    12.000000000000
         H           -1.674567343426    -1.646510287131     0.000031494003     1.007825032230
         H           -2.348476343426    -0.251125287131    -0.881757505997     1.007825032230
         H           -2.348473343426    -0.251102287131     0.881768494003     1.007825032230

  Basis Set: AUG-CC-PVTZ
    Blend: AUG-CC-PVTZ
  Basis Set: (AUG-CC-PVTZ AUX)
    Blend: AUG-CC-PVTZ-JKFIT
	 Reference Energy          =    -302.0904365638701279 [Eh]
	 Singles Energy            =      -0.0000000000000000 [Eh]
	 Same-Spin Energy          =      -0.2867518713292115 [Eh]
	 Opposite-Spin Energy      =      -0.8647360956419250 [Eh]
	 Correlation Energy        =      -1.1514879669711364 [Eh]
	 Total Energy              =    -303.2419245308412883 [Eh]

	 ================> DF-SCS-MP2 Energies <==================
	-----------------------------------------------------------
	 SCS Same-Spin Scale       =       0.3333333333333333 [-]
	 SCS Opposite-Spin Scale   =       1.2000000000000000 [-]
	 SCS Same-Spin Energy      =      -0.0955839571097372 [Eh]
	 SCS Opposite-Spin Energy  =      -1.0376833147703100 [Eh]
	 SCS Correlation Energy    =      -1.1332672718800472 [Eh]
	 SCS Total Energy          =    -303.2237038357502001 [Eh]
	-----------------------------------------------------------

  Dipole Moment: [D]
     X:    -6.2604      Y:    -1.6490      Z:    -0.0000     Total:     6.4739

*** Psi4 exiting successfully. Buy a developer a beer!
