                               Psi4 1.3.2 release

  ==> Input File <==

--------------------------------------------------------------------------
#psi4
#
memory 32 gb

molecule  {
-1 1
  O        0.6232130    -0.7170940    -0.0000140
  O       -0.2658470     1.3958930    -0.0000020
  O        1.9606930    -0.1412830     0.0000110
  C       -1.7044290    -0.5379690     0.0000040
  C       -0.5402598     0.0743978    -0.0000029
  H       -1.5968530    -1.6227110     0.0000310
  H       -2.2707620    -0.2273260    -0.8817580
  H       -2.2707590    -0.2273030     0.8817680
units angstrom
no_reorient  #important for SAPT in psi4, default
symmetry c1  #important for SAPT in psi4, default
}

set PROPERTIES_ORIGIN ["COM"]
properties('MP2/aug-cc-pvtz', properties = ['dipole'])
--------------------------------------------------------------------------

    Molecular point group: c1
  Charge       = -1
  Multiplicity = 1
  Basis Set: AUG-CC-PVTZ
    Blend: AUG-CC-PVTZ
  Basis Set: (AUG-CC-PVTZ AUX)
    Blend: AUG-CC-PVTZ-JKFIT

    Orbital Energies [Eh]
    ---------------------

    Doubly Occupied:

       1A    -20.398617     2A    -20.334124     3A    -20.295368
       4A    -11.195897     5A    -11.098338     6A     -1.207910
       7A     -1.089817     8A     -0.947187     9A     -0.867321
      10A     -0.587985    11A     -0.492360    12A     -0.490286
      13A     -0.468012    14A     -0.372547    15A     -0.364508
      16A     -0.314604    17A     -0.251095    18A     -0.238257
      19A     -0.175639    20A     -0.150624

  @DF-RHF Final Energy:  -302.01173269680760

   => Energetics <=

    Nuclear Repulsion Energy =            166.7389833445223246
    One-Electron Energy =                -754.8204393003771884
    Two-Electron Energy =                 286.0697232590472368
    Total Energy =                       -302.0117326968075986
  Basis Set: (AUG-CC-PVTZ AUX)
    Blend: AUG-CC-PVTZ-RI
    Molecular point group: c1

    Geometry (in Angstrom), charge = -1, multiplicity = 1:

       Center              X                  Y                   Z               Mass
    ------------   -----------------  -----------------  -----------------  -----------------
         O            0.570492334601    -0.729640263427    -0.000013660654    15.994914619570
         O           -0.318567665399     1.383346736573    -0.000001660654    15.994914619570
         O            1.907972334601    -0.153829263427     0.000011339346    15.994914619570
         C           -1.757149665399    -0.550515263427     0.000004339346    12.000000000000
         C           -0.592980465399     0.061851536573    -0.000002560654    12.000000000000
         H           -1.649573665399    -1.635257263427     0.000031339346     1.007825032230
         H           -2.323482665399    -0.239872263427    -0.881757660654     1.007825032230
         H           -2.323479665399    -0.239849263427     0.881768339346     1.007825032230

  Basis Set: AUG-CC-PVTZ
    Blend: AUG-CC-PVTZ
  Basis Set: (AUG-CC-PVTZ AUX)
    Blend: AUG-CC-PVTZ-JKFIT
	 Reference Energy          =    -302.0117326968075986 [Eh]
	 Singles Energy            =      -0.0000000000000000 [Eh]
	 Same-Spin Energy          =      -0.2937611494819566 [Eh]
	 Opposite-Spin Energy      =      -0.8766500518516149 [Eh]
	 Correlation Energy        =      -1.1704112013335717 [Eh]
	 Total Energy              =    -303.1821438981411916 [Eh]

	 ================> DF-SCS-MP2 Energies <==================
	-----------------------------------------------------------
	 SCS Same-Spin Scale       =       0.3333333333333333 [-]
	 SCS Opposite-Spin Scale   =       1.2000000000000000 [-]
	 SCS Same-Spin Energy      =      -0.0979203831606522 [Eh]
	 SCS Opposite-Spin Energy  =      -1.0519800622219380 [Eh]
	 SCS Correlation Energy    =      -1.1499004453825901 [Eh]
	 SCS Total Energy          =    -303.1616331421901691 [Eh]
	-----------------------------------------------------------

  Dipole Moment: [D]
     X:    -6.9189      Y:    -2.3590      Z:    -0.0000     Total:     7.3100

*** Psi4 exiting successfully. Buy a developer a beer!
