                               Psi4 1.4a3.dev225

  ==> Input File <==

--------------------------------------------------------------------------
#psi4
#
memory 32 gb

molecule  {
-1 1
  O        0.6232130    -0.7170940    -0.0000140
  O       -0.2658470     1.3958930    -0.0000020
  O        1.9606930    -0.1412830     0.0000110
  C       -1.7044290    -0.5379690     0.0000040
  C       -0.3260289     0.1341240    -0.0000044
  H       -1.5968530    -1.6227110     0.0000310
  H       -2.2707620    -0.2273260    -0.8817580
  H       -2.2707590    -0.2273030     0.8817680
units angstrom
no_reorient  #important for SAPT in psi4, default
symmetry c1  #important for SAPT in psi4, default
}

set PROPERTIES_ORIGIN ["COM"]
properties('MP2/aug-cc-pvtz', properties = ['dipole'])
--------------------------------------------------------------------------

    Molecular point group: c1
  Charge       = -1
  Multiplicity = 1
  Basis Set: AUG-CC-PVTZ
    Blend: AUG-CC-PVTZ
  Basis Set: (AUG-CC-PVTZ AUX)
    Blend: AUG-CC-PVTZ-JKFIT

    Orbital Energies [Eh]
    ---------------------

    Doubly Occupied:

       1A    -20.417343     2A    -20.332897     3A    -20.305570
       4A    -11.185353     5A    -11.086179     6A     -1.269996
       7A     -1.135108     8A     -0.940939     9A     -0.826397
      10A     -0.569500    11A     -0.487651    12A     -0.465512
      13A     -0.462522    14A     -0.405673    15A     -0.396094
      16A     -0.312799    17A     -0.274606    18A     -0.242655
      19A     -0.196737    20A     -0.172083

  @DF-RHF Final Energy:  -302.09011196832267

   => Energetics <=

    Nuclear Repulsion Energy =            168.3254775528755829
    One-Electron Energy =                -757.8599483625712310
    Two-Electron Energy =                 287.4443588413730026
    Total Energy =                       -302.0901119683226739
  Basis Set: (AUG-CC-PVTZ AUX)
    Blend: AUG-CC-PVTZ-RI
    Molecular point group: c1

    Geometry (in Angstrom), charge = -1, multiplicity = 1:

       Center              X                  Y                   Z               Mass
    ------------   -----------------  -----------------  -----------------  -----------------
         O            0.536219146465    -0.739195408316    -0.000013420680    15.994914619570
         O           -0.352840853535     1.373791591684    -0.000001420680    15.994914619570
         O            1.873699146465    -0.163384408316     0.000011579320    15.994914619570
         C           -1.791422853535    -0.560070408316     0.000004579320    12.000000000000
         C           -0.413022753535     0.112022591684    -0.000003820680    12.000000000000
         H           -1.683846853535    -1.644812408316     0.000031579320     1.007825032230
         H           -2.357755853535    -0.249427408316    -0.881757420680     1.007825032230
         H           -2.357752853535    -0.249404408316     0.881768579320     1.007825032230

  Basis Set: AUG-CC-PVTZ
    Blend: AUG-CC-PVTZ
  Basis Set: (AUG-CC-PVTZ AUX)
    Blend: AUG-CC-PVTZ-JKFIT
	 Reference Energy          =    -302.0901119683226739 [Eh]
	 Singles Energy            =      -0.0000000000000000 [Eh]
	 Same-Spin Energy          =      -0.2863625993838420 [Eh]
	 Opposite-Spin Energy      =      -0.8632109035685011 [Eh]
	 Correlation Energy        =      -1.1495735029523431 [Eh]
	 Total Energy              =    -303.2396854712750383 [Eh]

	 ================> DF-SCS-MP2 Energies <==================
	-----------------------------------------------------------
	 SCS Same-Spin Scale       =       0.3333333333333333 [-]
	 SCS Opposite-Spin Scale   =       1.2000000000000000 [-]
	 SCS Same-Spin Energy      =      -0.0954541997946140 [Eh]
	 SCS Opposite-Spin Energy  =      -1.0358530842822011 [Eh]
	 SCS Correlation Energy    =      -1.1313072840768150 [Eh]
	 SCS Total Energy          =    -303.2214192523994711 [Eh]
	-----------------------------------------------------------

  Dipole Moment: [D]
     X:    -5.8655      Y:    -2.0039      Z:    -0.0000     Total:     6.1984

*** Psi4 exiting successfully. Buy a developer a beer!
