                               Psi4 1.3.2 release

  ==> Input File <==

--------------------------------------------------------------------------
#psi4
#
memory 32 gb

molecule  {
-1 1
  O        0.6232130    -0.7170940    -0.0000140
  O       -0.2658470     1.3958930    -0.0000020
  O        2.0525426    -0.1017400     0.0000127
  C       -1.7044290    -0.5379690     0.0000040
  C       -0.3632540     0.1675050    -0.0000040
  H       -1.5968530    -1.6227110     0.0000310
  H       -2.2707620    -0.2273260    -0.8817580
  H       -2.2707590    -0.2273030     0.8817680
units angstrom
no_reorient  #important for SAPT in psi4, default
symmetry c1  #important for SAPT in psi4, default
}

set PROPERTIES_ORIGIN ["COM"]
properties('MP2/aug-cc-pvtz', properties = ['dipole'])
--------------------------------------------------------------------------

    Molecular point group: c1
  Charge       = -1
  Multiplicity = 1
  Basis Set: AUG-CC-PVTZ
    Blend: AUG-CC-PVTZ
  Basis Set: (AUG-CC-PVTZ AUX)
    Blend: AUG-CC-PVTZ-JKFIT

    Orbital Energies [Eh]
    ---------------------

    Doubly Occupied:

       1A    -20.394000     2A    -20.341334     3A    -20.319754
       4A    -11.184794     5A    -11.086387     6A     -1.230402
       7A     -1.140375     8A     -0.929154     9A     -0.832884
      10A     -0.564695    11A     -0.476983    12A     -0.461362
      13A     -0.459795    14A     -0.407398    15A     -0.378588
      16A     -0.291380    17A     -0.279226    18A     -0.248315
      19A     -0.205641    20A     -0.183827

  @DF-RHF Final Energy:  -302.08682237103335

   => Energetics <=

    Nuclear Repulsion Energy =            165.6989183970337081
    One-Electron Energy =                -752.7388959036883307
    Two-Electron Energy =                 284.9531551356212731
    Total Energy =                       -302.0868223710333496
  Basis Set: (AUG-CC-PVTZ AUX)
    Blend: AUG-CC-PVTZ-RI
    Molecular point group: c1

    Geometry (in Angstrom), charge = -1, multiplicity = 1:

       Center              X                  Y                   Z               Mass
    ------------   -----------------  -----------------  -----------------  -----------------
         O            0.522588302751    -0.752968017814    -0.000013847185    15.994914619570
         O           -0.366471697249     1.360018982186    -0.000001847185    15.994914619570
         O            1.951917902751    -0.137614017814     0.000012852815    15.994914619570
         C           -1.805053697249    -0.573843017814     0.000004152815    12.000000000000
         C           -0.463878697249     0.131630982186    -0.000003847185    12.000000000000
         H           -1.697477697249    -1.658585017814     0.000031152815     1.007825032230
         H           -2.371386697249    -0.263200017814    -0.881757847185     1.007825032230
         H           -2.371383697249    -0.263177017814     0.881768152815     1.007825032230

  Basis Set: AUG-CC-PVTZ
    Blend: AUG-CC-PVTZ
  Basis Set: (AUG-CC-PVTZ AUX)
    Blend: AUG-CC-PVTZ-JKFIT
	 Reference Energy          =    -302.0868223710333496 [Eh]
	 Singles Energy            =      -0.0000000000000000 [Eh]
	 Same-Spin Energy          =      -0.2850664629483450 [Eh]
	 Opposite-Spin Energy      =      -0.8639785331227594 [Eh]
	 Correlation Energy        =      -1.1490449960711044 [Eh]
	 Total Energy              =    -303.2358673671044471 [Eh]

	 ================> DF-SCS-MP2 Energies <==================
	-----------------------------------------------------------
	 SCS Same-Spin Scale       =       0.3333333333333333 [-]
	 SCS Opposite-Spin Scale   =       1.2000000000000000 [-]
	 SCS Same-Spin Energy      =      -0.0950221543161150 [Eh]
	 SCS Opposite-Spin Energy  =      -1.0367742397473112 [Eh]
	 SCS Correlation Energy    =      -1.1317963940634261 [Eh]
	 SCS Total Energy          =    -303.2186187650967781 [Eh]
	-----------------------------------------------------------

  Dipole Moment: [D]
     X:    -6.4514      Y:    -1.6559      Z:    -0.0000     Total:     6.6605

*** Psi4 exiting successfully. Buy a developer a beer!
