                               Psi4 1.3.2 release

  ==> Input File <==

--------------------------------------------------------------------------
#psi4
#
memory 32 gb

molecule  {
-1 1
  O        0.6232130    -0.7170940    -0.0000140
  O       -0.2658470     1.3958930    -0.0000020
  O        2.1443922    -0.0621969     0.0000144
  C       -1.7044290    -0.5379690     0.0000040
  C       -0.3632540     0.1675050    -0.0000040
  H       -1.5968530    -1.6227110     0.0000310
  H       -2.2707620    -0.2273260    -0.8817580
  H       -2.2707590    -0.2273030     0.8817680
units angstrom
no_reorient  #important for SAPT in psi4, default
symmetry c1  #important for SAPT in psi4, default
}

set PROPERTIES_ORIGIN ["COM"]
properties('MP2/aug-cc-pvtz', properties = ['dipole'])
--------------------------------------------------------------------------

    Molecular point group: c1
  Charge       = -1
  Multiplicity = 1
  Basis Set: AUG-CC-PVTZ
    Blend: AUG-CC-PVTZ
  Basis Set: (AUG-CC-PVTZ AUX)
    Blend: AUG-CC-PVTZ-JKFIT

    Orbital Energies [Eh]
    ---------------------

    Doubly Occupied:

       1A    -20.381467     2A    -20.343635     3A    -20.338277
       4A    -11.181877     5A    -11.083552     6A     -1.217772
       7A     -1.127345     8A     -0.936352     9A     -0.833635
      10A     -0.561155    11A     -0.469297    12A     -0.458316
      13A     -0.455421    14A     -0.403227    15A     -0.369775
      16A     -0.275447    17A     -0.274249    18A     -0.244571
      19A     -0.225378    20A     -0.203779

  @DF-RHF Final Energy:  -302.07887440998411

   => Energetics <=

    Nuclear Repulsion Energy =            163.5428954480872221
    One-Electron Energy =                -748.4744862102373872
    Two-Electron Energy =                 282.8527163521659986
    Total Energy =                       -302.0788744099841097
  Basis Set: (AUG-CC-PVTZ AUX)
    Blend: AUG-CC-PVTZ-RI
    Molecular point group: c1

    Geometry (in Angstrom), charge = -1, multiplicity = 1:

       Center              X                  Y                   Z               Mass
    ------------   -----------------  -----------------  -----------------  -----------------
         O            0.503002095662    -0.761400273867    -0.000014209697    15.994914619570
         O           -0.386057904338     1.351586726133    -0.000002209697    15.994914619570
         O            2.024181295662    -0.106503173867     0.000014190303    15.994914619570
         C           -1.824639904338    -0.582275273867     0.000003790303    12.000000000000
         C           -0.483464904338     0.123198726133    -0.000004209697    12.000000000000
         H           -1.717063904338    -1.667017273867     0.000030790303     1.007825032230
         H           -2.390972904338    -0.271632273867    -0.881758209697     1.007825032230
         H           -2.390969904338    -0.271609273867     0.881767790303     1.007825032230

  Basis Set: AUG-CC-PVTZ
    Blend: AUG-CC-PVTZ
  Basis Set: (AUG-CC-PVTZ AUX)
    Blend: AUG-CC-PVTZ-JKFIT
	 Reference Energy          =    -302.0788744099841097 [Eh]
	 Singles Energy            =      -0.0000000000000000 [Eh]
	 Same-Spin Energy          =      -0.2827830496039612 [Eh]
	 Opposite-Spin Energy      =      -0.8622174823657032 [Eh]
	 Correlation Energy        =      -1.1450005319696643 [Eh]
	 Total Energy              =    -303.2238749419537953 [Eh]

	 ================> DF-SCS-MP2 Energies <==================
	-----------------------------------------------------------
	 SCS Same-Spin Scale       =       0.3333333333333333 [-]
	 SCS Opposite-Spin Scale   =       1.2000000000000000 [-]
	 SCS Same-Spin Energy      =      -0.0942610165346537 [Eh]
	 SCS Opposite-Spin Energy  =      -1.0346609788388437 [Eh]
	 SCS Correlation Energy    =      -1.1289219953734975 [Eh]
	 SCS Total Energy          =    -303.2077964053576125 [Eh]
	-----------------------------------------------------------

  Dipole Moment: [D]
     X:    -6.5414      Y:    -1.6487      Z:    -0.0000     Total:     6.7460

*** Psi4 exiting successfully. Buy a developer a beer!
