                               Psi4 1.3.2 release

  ==> Input File <==

--------------------------------------------------------------------------
#psi4
#
memory 32 gb

molecule  {
-1 1
  O        0.7102748    -0.6091342    -0.0000145
  O       -0.2658470     1.3958930    -0.0000020
  O        1.9606930    -0.1412830     0.0000110
  C       -1.7044290    -0.5379690     0.0000040
  C       -0.3632540     0.1675050    -0.0000040
  H       -1.5968530    -1.6227110     0.0000310
  H       -2.2707620    -0.2273260    -0.8817580
  H       -2.2707590    -0.2273030     0.8817680
units angstrom
no_reorient  #important for SAPT in psi4, default
symmetry c1  #important for SAPT in psi4, default
}

set PROPERTIES_ORIGIN ["COM"]
properties('MP2/aug-cc-pvtz', properties = ['dipole'])
--------------------------------------------------------------------------

    Molecular point group: c1
  Charge       = -1
  Multiplicity = 1
  Basis Set: AUG-CC-PVTZ
    Blend: AUG-CC-PVTZ
  Basis Set: (AUG-CC-PVTZ AUX)
    Blend: AUG-CC-PVTZ-JKFIT

    Orbital Energies [Eh]
    ---------------------

    Doubly Occupied:

       1A    -20.412126     2A    -20.336325     3A    -20.278839
       4A    -11.183720     5A    -11.097768     6A     -1.283366
       7A     -1.160371     8A     -0.930224     9A     -0.835651
      10A     -0.563278    11A     -0.496993    12A     -0.471308
      13A     -0.465212    14A     -0.412859    15A     -0.404698
      16A     -0.338576    17A     -0.290103    18A     -0.252864
      19A     -0.162797    20A     -0.132509

  @DF-RHF Final Energy:  -302.08127621780267

   => Energetics <=

    Nuclear Repulsion Energy =            170.0796059065648365
    One-Electron Energy =                -761.3025879865228944
    Two-Electron Energy =                 289.1417058621553338
    Total Energy =                       -302.0812762178026674
  Basis Set: (AUG-CC-PVTZ AUX)
    Blend: AUG-CC-PVTZ-RI
    Molecular point group: c1

    Geometry (in Angstrom), charge = -1, multiplicity = 1:

       Center              X                  Y                   Z               Mass
    ------------   -----------------  -----------------  -----------------  -----------------
         O            0.610671063564    -0.659597564019    -0.000013878052    15.994914619570
         O           -0.365450736436     1.345429635981    -0.000001378052    15.994914619570
         O            1.861089263564    -0.191746364019     0.000011621948    15.994914619570
         C           -1.804032736436    -0.588432364019     0.000004621948    12.000000000000
         C           -0.462857736436     0.117041635981    -0.000003378052    12.000000000000
         H           -1.696456736436    -1.673174364019     0.000031621948     1.007825032230
         H           -2.370365736436    -0.277789364019    -0.881757378052     1.007825032230
         H           -2.370362736436    -0.277766364019     0.881768621948     1.007825032230

  Basis Set: AUG-CC-PVTZ
    Blend: AUG-CC-PVTZ
  Basis Set: (AUG-CC-PVTZ AUX)
    Blend: AUG-CC-PVTZ-JKFIT
	 Reference Energy          =    -302.0812762178026674 [Eh]
	 Singles Energy            =      -0.0000000000000000 [Eh]
	 Same-Spin Energy          =      -0.2886273377165737 [Eh]
	 Opposite-Spin Energy      =      -0.8631950366690437 [Eh]
	 Correlation Energy        =      -1.1518223743856173 [Eh]
	 Total Energy              =    -303.2330985921882984 [Eh]

	 ================> DF-SCS-MP2 Energies <==================
	-----------------------------------------------------------
	 SCS Same-Spin Scale       =       0.3333333333333333 [-]
	 SCS Opposite-Spin Scale   =       1.2000000000000000 [-]
	 SCS Same-Spin Energy      =      -0.0962091125721912 [Eh]
	 SCS Opposite-Spin Energy  =      -1.0358340440028524 [Eh]
	 SCS Correlation Energy    =      -1.1320431565750435 [Eh]
	 SCS Total Energy          =    -303.2133193743777042 [Eh]
	-----------------------------------------------------------

  Dipole Moment: [D]
     X:    -6.0475      Y:    -2.0089      Z:    -0.0000     Total:     6.3724

*** Psi4 exiting successfully. Buy a developer a beer!
