                               Psi4 1.3.2 release

  ==> Input File <==

--------------------------------------------------------------------------
#psi4
#
memory 32 gb

molecule  {
-1 1
  O        0.6232130    -0.7170940    -0.0000140
  O       -0.2658470     1.3958930    -0.0000020
  O        1.9606930    -0.1412830     0.0000110
  C       -1.7044290    -0.5379690     0.0000040
  C       -0.3711588     0.0678179    -0.0000042
  H       -1.5968530    -1.6227110     0.0000310
  H       -2.2707620    -0.2273260    -0.8817580
  H       -2.2707590    -0.2273030     0.8817680
units angstrom
no_reorient  #important for SAPT in psi4, default
symmetry c1  #important for SAPT in psi4, default
}

set PROPERTIES_ORIGIN ["COM"]
properties('MP2/aug-cc-pvtz', properties = ['dipole'])
--------------------------------------------------------------------------

    Molecular point group: c1
  Charge       = -1
  Multiplicity = 1
  Basis Set: AUG-CC-PVTZ
    Blend: AUG-CC-PVTZ
  Basis Set: (AUG-CC-PVTZ AUX)
    Blend: AUG-CC-PVTZ-JKFIT

    Orbital Energies [Eh]
    ---------------------

    Doubly Occupied:

       1A    -20.422268     2A    -20.320048     3A    -20.311263
       4A    -11.186735     5A    -11.091051     6A     -1.271623
       7A     -1.091928     8A     -0.949141     9A     -0.846473
      10A     -0.574164    11A     -0.493264    12A     -0.471450
      13A     -0.466548    14A     -0.397527    15A     -0.392686
      16A     -0.313188    17A     -0.252191    18A     -0.234277
      19A     -0.199405    20A     -0.174293

  @DF-RHF Final Energy:  -302.07302147811424

   => Energetics <=

    Nuclear Repulsion Energy =            167.9456447523434974
    One-Electron Energy =                -757.1182877474258248
    Two-Electron Energy =                 287.0996215169681136
    Total Energy =                       -302.0730214781142422
  Basis Set: (AUG-CC-PVTZ AUX)
    Blend: AUG-CC-PVTZ-RI
    Molecular point group: c1

    Geometry (in Angstrom), charge = -1, multiplicity = 1:

       Center              X                  Y                   Z               Mass
    ------------   -----------------  -----------------  -----------------  -----------------
         O            0.543439139254    -0.728587594785    -0.000013452677    15.994914619570
         O           -0.345620860746     1.384399405215    -0.000001452677    15.994914619570
         O            1.880919139254    -0.152776594785     0.000011547323    15.994914619570
         C           -1.784202860746    -0.549462594785     0.000004547323    12.000000000000
         C           -0.450932660746     0.056324305215    -0.000003652677    12.000000000000
         H           -1.676626860746    -1.634204594785     0.000031547323     1.007825032230
         H           -2.350535860746    -0.238819594785    -0.881757452677     1.007825032230
         H           -2.350532860746    -0.238796594785     0.881768547323     1.007825032230

  Basis Set: AUG-CC-PVTZ
    Blend: AUG-CC-PVTZ
  Basis Set: (AUG-CC-PVTZ AUX)
    Blend: AUG-CC-PVTZ-JKFIT
	 Reference Energy          =    -302.0730214781142422 [Eh]
	 Singles Energy            =      -0.0000000000000000 [Eh]
	 Same-Spin Energy          =      -0.2876100452697012 [Eh]
	 Opposite-Spin Energy      =      -0.8654855048015844 [Eh]
	 Correlation Energy        =      -1.1530955500712856 [Eh]
	 Total Energy              =    -303.2261170281855129 [Eh]

	 ================> DF-SCS-MP2 Energies <==================
	-----------------------------------------------------------
	 SCS Same-Spin Scale       =       0.3333333333333333 [-]
	 SCS Opposite-Spin Scale   =       1.2000000000000000 [-]
	 SCS Same-Spin Energy      =      -0.0958700150899004 [Eh]
	 SCS Opposite-Spin Energy  =      -1.0385826057619012 [Eh]
	 SCS Correlation Energy    =      -1.1344526208518015 [Eh]
	 SCS Total Energy          =    -303.2074740989660313 [Eh]
	-----------------------------------------------------------

  Dipole Moment: [D]
     X:    -5.9153      Y:    -2.5357      Z:    -0.0000     Total:     6.4359

*** Psi4 exiting successfully. Buy a developer a beer!
