                               Psi4 1.3.2 release

  ==> Input File <==

--------------------------------------------------------------------------
#psi4
#
memory 32 gb

molecule  {
-1 1
  O        0.6232130    -0.7170940    -0.0000140
  O       -0.2658470     1.3958930    -0.0000020
  O        1.9606930    -0.1412830     0.0000110
  C       -1.7044290    -0.5379690     0.0000040
  C       -0.3570404     0.1551968     0.0225663
  H       -1.5968530    -1.6227110     0.0000310
  H       -2.2707620    -0.2273260    -0.8817580
  H       -2.2707590    -0.2273030     0.8817680
units angstrom
no_reorient  #important for SAPT in psi4, default
symmetry c1  #important for SAPT in psi4, default
}

set PROPERTIES_ORIGIN ["COM"]
properties('MP2/aug-cc-pvtz', properties = ['dipole'])
--------------------------------------------------------------------------

    Molecular point group: c1
  Charge       = -1
  Multiplicity = 1
  Basis Set: AUG-CC-PVTZ
    Blend: AUG-CC-PVTZ
  Basis Set: (AUG-CC-PVTZ AUX)
    Blend: AUG-CC-PVTZ-JKFIT

    Orbital Energies [Eh]
    ---------------------

    Doubly Occupied:

       1A    -20.409358     2A    -20.340066     3A    -20.299319
       4A    -11.186018     5A    -11.088121     6A     -1.253532
       7A     -1.146675     8A     -0.930748     9A     -0.830436
      10A     -0.567836    11A     -0.485603    12A     -0.464632
      13A     -0.463003    14A     -0.408753    15A     -0.390512
      16A     -0.311516    17A     -0.281581    18A     -0.249144
      19A     -0.189308    20A     -0.164410

  @DF-RHF Final Energy:  -302.09079313121208

   => Energetics <=

    Nuclear Repulsion Energy =            168.0886343574840680
    One-Electron Energy =                -757.4377133903024060
    Two-Electron Energy =                 287.2582859016062002
    Total Energy =                       -302.0907931312120809
  Basis Set: (AUG-CC-PVTZ AUX)
    Blend: AUG-CC-PVTZ-RI
    Molecular point group: c1

    Geometry (in Angstrom), charge = -1, multiplicity = 1:

       Center              X                  Y                   Z               Mass
    ------------   -----------------  -----------------  -----------------  -----------------
         O            0.541180442776    -0.742566686871    -0.003624336974    15.994914619570
         O           -0.347879557224     1.370420313129    -0.003612336974    15.994914619570
         O            1.878660442776    -0.166755686871    -0.003599336974    15.994914619570
         C           -1.786461557224    -0.563441686871    -0.003606336974    12.000000000000
         C           -0.439072957224     0.129724113129     0.018955963026    12.000000000000
         H           -1.678885557224    -1.648183686871    -0.003579336974     1.007825032230
         H           -2.352794557224    -0.252798686871    -0.885368336974     1.007825032230
         H           -2.352791557224    -0.252775686871     0.878157663026     1.007825032230

  Basis Set: AUG-CC-PVTZ
    Blend: AUG-CC-PVTZ
  Basis Set: (AUG-CC-PVTZ AUX)
    Blend: AUG-CC-PVTZ-JKFIT
	 Reference Energy          =    -302.0907931312120809 [Eh]
	 Singles Energy            =      -0.0000000000000000 [Eh]
	 Same-Spin Energy          =      -0.2869139309038181 [Eh]
	 Opposite-Spin Energy      =      -0.8643125432598138 [Eh]
	 Correlation Energy        =      -1.1512264741636318 [Eh]
	 Total Energy              =    -303.2420196053757309 [Eh]

	 ================> DF-SCS-MP2 Energies <==================
	-----------------------------------------------------------
	 SCS Same-Spin Scale       =       0.3333333333333333 [-]
	 SCS Opposite-Spin Scale   =       1.2000000000000000 [-]
	 SCS Same-Spin Energy      =      -0.0956379769679394 [Eh]
	 SCS Opposite-Spin Energy  =      -1.0371750519117764 [Eh]
	 SCS Correlation Energy    =      -1.1328130288797158 [Eh]
	 SCS Total Energy          =    -303.2236061600917765 [Eh]
	-----------------------------------------------------------

  Dipole Moment: [D]
     X:    -6.1617      Y:    -1.8024      Z:     0.0295     Total:     6.4200

*** Psi4 exiting successfully. Buy a developer a beer!
