                               Psi4 1.4a3.dev225

  ==> Input File <==

--------------------------------------------------------------------------
#psi4
#
memory 32 gb

molecule  {
-1 1
  O        0.6232130    -0.7170940    -0.0000140
  O       -0.2658470     1.3958930    -0.0000020
  O        1.9423231    -0.1491916     0.0000107
  C       -1.7044290    -0.5379690     0.0000040
  C       -0.3632540     0.1675050    -0.0000040
  H       -1.5968530    -1.6227110     0.0000310
  H       -2.2707620    -0.2273260    -0.8817580
  H       -2.2707590    -0.2273030     0.8817680
units angstrom
no_reorient  #important for SAPT in psi4, default
symmetry c1  #important for SAPT in psi4, default
}

set PROPERTIES_ORIGIN ["COM"]
properties('MP2/aug-cc-pvtz', properties = ['dipole'])
--------------------------------------------------------------------------

    Molecular point group: c1
  Charge       = -1
  Multiplicity = 1
  Basis Set: AUG-CC-PVTZ
    Blend: AUG-CC-PVTZ
  Basis Set: (AUG-CC-PVTZ AUX)
    Blend: AUG-CC-PVTZ-JKFIT

    Orbital Energies [Eh]
    ---------------------

    Doubly Occupied:

       1A    -20.408754     2A    -20.343602     3A    -20.292587
       4A    -11.185787     5A    -11.088469     6A     -1.255071
       7A     -1.155648     8A     -0.927065     9A     -0.829205
      10A     -0.567677    11A     -0.486847    12A     -0.465282
      13A     -0.463871    14A     -0.411274    15A     -0.391036
      16A     -0.314511    17A     -0.287105    18A     -0.251851
      19A     -0.182956    20A     -0.157181

  @DF-RHF Final Energy:  -302.09139003476366

   => Energetics <=

    Nuclear Repulsion Energy =            168.5704403213920841
    One-Electron Energy =                -758.3921019355881299
    Two-Electron Energy =                 287.7302715794323831
    Total Energy =                       -302.0913900347636627
  Basis Set: (AUG-CC-PVTZ AUX)
    Blend: AUG-CC-PVTZ-RI
    Molecular point group: c1

    Geometry (in Angstrom), charge = -1, multiplicity = 1:

       Center              X                  Y                   Z               Mass
    ------------   -----------------  -----------------  -----------------  -----------------
         O            0.546091746993    -0.742849336140    -0.000013420701    15.994914619570
         O           -0.342968253007     1.370137663860    -0.000001420701    15.994914619570
         O            1.865201846993    -0.174946936140     0.000011279299    15.994914619570
         C           -1.781550253007    -0.563724336140     0.000004579299    12.000000000000
         C           -0.440375253007     0.141749663860    -0.000003420701    12.000000000000
         H           -1.673974253007    -1.648466336140     0.000031579299     1.007825032230
         H           -2.347883253007    -0.253081336140    -0.881757420701     1.007825032230
         H           -2.347880253007    -0.253058336140     0.881768579299     1.007825032230

  Basis Set: AUG-CC-PVTZ
    Blend: AUG-CC-PVTZ
  Basis Set: (AUG-CC-PVTZ AUX)
    Blend: AUG-CC-PVTZ-JKFIT
	 Reference Energy          =    -302.0913900347636627 [Eh]
	 Singles Energy            =      -0.0000000000000000 [Eh]
	 Same-Spin Energy          =      -0.2872993138302291 [Eh]
	 Opposite-Spin Energy      =      -0.8643683333339439 [Eh]
	 Correlation Energy        =      -1.1516676471641731 [Eh]
	 Total Energy              =    -303.2430576819278372 [Eh]

	 ================> DF-SCS-MP2 Energies <==================
	-----------------------------------------------------------
	 SCS Same-Spin Scale       =       0.3333333333333333 [-]
	 SCS Opposite-Spin Scale   =       1.2000000000000000 [-]
	 SCS Same-Spin Energy      =      -0.0957664379434097 [Eh]
	 SCS Opposite-Spin Energy  =      -1.0372420000007327 [Eh]
	 SCS Correlation Energy    =      -1.1330084379441425 [Eh]
	 SCS Total Energy          =    -303.2243984727078328 [Eh]
	-----------------------------------------------------------

  Dipole Moment: [D]
     X:    -6.1993      Y:    -1.7031      Z:    -0.0000     Total:     6.4290

*** Psi4 exiting successfully. Buy a developer a beer!
