                               Psi4 1.3.2 release

  ==> Input File <==

--------------------------------------------------------------------------
#psi4
#
memory 32 gb

molecule  {
-1 1
  O        0.6232130    -0.7170940    -0.0000140
  O       -0.3087765     1.3985442    -0.0000017
  O        1.9606930    -0.1412830     0.0000110
  C       -1.7044290    -0.5379690     0.0000040
  C       -0.3632540     0.1675050    -0.0000040
  H       -1.5968530    -1.6227110     0.0000310
  H       -2.2707620    -0.2273260    -0.8817580
  H       -2.2707590    -0.2273030     0.8817680
units angstrom
no_reorient  #important for SAPT in psi4, default
symmetry c1  #important for SAPT in psi4, default
}

set PROPERTIES_ORIGIN ["COM"]
properties('MP2/aug-cc-pvtz', properties = ['dipole'])
--------------------------------------------------------------------------

    Molecular point group: c1
  Charge       = -1
  Multiplicity = 1
  Basis Set: AUG-CC-PVTZ
    Blend: AUG-CC-PVTZ
  Basis Set: (AUG-CC-PVTZ AUX)
    Blend: AUG-CC-PVTZ-JKFIT

    Orbital Energies [Eh]
    ---------------------

    Doubly Occupied:

       1A    -20.408866     2A    -20.344661     3A    -20.298460
       4A    -11.186871     5A    -11.086010     6A     -1.250455
       7A     -1.156506     8A     -0.928030     9A     -0.828560
      10A     -0.568033    11A     -0.485616    12A     -0.464147
      13A     -0.463278    14A     -0.410688    15A     -0.388776
      16A     -0.311963    17A     -0.287754    18A     -0.251481
      19A     -0.188203    20A     -0.163503

  @DF-RHF Final Energy:  -302.09152060347083

   => Energetics <=

    Nuclear Repulsion Energy =            167.9177541947473742
    One-Electron Energy =                -757.0748243263627728
    Two-Electron Energy =                 287.0655495281446292
    Total Energy =                       -302.0915206034708262
  Basis Set: (AUG-CC-PVTZ AUX)
    Blend: AUG-CC-PVTZ-RI
    Molecular point group: c1

    Geometry (in Angstrom), charge = -1, multiplicity = 1:

       Center              X                  Y                   Z               Mass
    ------------   -----------------  -----------------  -----------------  -----------------
         O            0.551328889143    -0.745101130700    -0.000013548646    15.994914619570
         O           -0.380660610857     1.370537069300    -0.000001248646    15.994914619570
         O            1.888808889143    -0.169290130700     0.000011451354    15.994914619570
         C           -1.776313110857    -0.565976130700     0.000004451354    12.000000000000
         C           -0.435138110857     0.139497869300    -0.000003548646    12.000000000000
         H           -1.668737110857    -1.650718130700     0.000031451354     1.007825032230
         H           -2.342646110857    -0.255333130700    -0.881757548646     1.007825032230
         H           -2.342643110857    -0.255310130700     0.881768451354     1.007825032230

  Basis Set: AUG-CC-PVTZ
    Blend: AUG-CC-PVTZ
  Basis Set: (AUG-CC-PVTZ AUX)
    Blend: AUG-CC-PVTZ-JKFIT
	 Reference Energy          =    -302.0915206034708262 [Eh]
	 Singles Energy            =      -0.0000000000000000 [Eh]
	 Same-Spin Energy          =      -0.2868638276011495 [Eh]
	 Opposite-Spin Energy      =      -0.8643436939743289 [Eh]
	 Correlation Energy        =      -1.1512075215754782 [Eh]
	 Total Energy              =    -303.2427281250463125 [Eh]

	 ================> DF-SCS-MP2 Energies <==================
	-----------------------------------------------------------
	 SCS Same-Spin Scale       =       0.3333333333333333 [-]
	 SCS Opposite-Spin Scale   =       1.2000000000000000 [-]
	 SCS Same-Spin Energy      =      -0.0956212758670498 [Eh]
	 SCS Opposite-Spin Energy  =      -1.0372124327691945 [Eh]
	 SCS Correlation Energy    =      -1.1328337086362443 [Eh]
	 SCS Total Energy          =    -303.2243543121070957 [Eh]
	-----------------------------------------------------------

  Dipole Moment: [D]
     X:    -6.1722      Y:    -1.6857      Z:    -0.0000     Total:     6.3983

*** Psi4 exiting successfully. Buy a developer a beer!
