                               Psi4 1.3.2 release

  ==> Input File <==

--------------------------------------------------------------------------
#psi4
#
memory 32 gb

molecule  {
-1 1
  O        0.6232130    -0.7170940    -0.0000140
  O       -0.2873002     1.3974059    -0.0000018
  O        1.9606930    -0.1412830     0.0000110
  C       -1.7044290    -0.5379690     0.0000040
  C       -0.3632540     0.1675050    -0.0000040
  H       -1.5968530    -1.6227110     0.0000310
  H       -2.2707620    -0.2273260    -0.8817580
  H       -2.2707590    -0.2273030     0.8817680
units angstrom
no_reorient  #important for SAPT in psi4, default
symmetry c1  #important for SAPT in psi4, default
}

set PROPERTIES_ORIGIN ["COM"]
properties('MP2/aug-cc-pvtz', properties = ['dipole'])
--------------------------------------------------------------------------

    Molecular point group: c1
  Charge       = -1
  Multiplicity = 1
  Basis Set: AUG-CC-PVTZ
    Blend: AUG-CC-PVTZ
  Basis Set: (AUG-CC-PVTZ AUX)
    Blend: AUG-CC-PVTZ-JKFIT

    Orbital Energies [Eh]
    ---------------------

    Doubly Occupied:

       1A    -20.407602     2A    -20.344027     3A    -20.297686
       4A    -11.186377     5A    -11.087139     6A     -1.250154
       7A     -1.154902     8A     -0.927482     9A     -0.829296
      10A     -0.567655    11A     -0.485377    12A     -0.464225
      13A     -0.463426    14A     -0.410725    15A     -0.388795
      16A     -0.311176    17A     -0.286771    18A     -0.251466
      19A     -0.187406    20A     -0.162627

  @DF-RHF Final Energy:  -302.09146998498812

   => Energetics <=

    Nuclear Repulsion Energy =            167.9901469237070728
    One-Electron Energy =                -757.2346043466042147
    Two-Electron Energy =                 287.1529874379089620
    Total Energy =                       -302.0914699849881231
  Basis Set: (AUG-CC-PVTZ AUX)
    Blend: AUG-CC-PVTZ-RI
    Molecular point group: c1

    Geometry (in Angstrom), charge = -1, multiplicity = 1:

       Center              X                  Y                   Z               Mass
    ------------   -----------------  -----------------  -----------------  -----------------
         O            0.546749236545    -0.744858397149    -0.000013527322    15.994914619570
         O           -0.363763963455     1.369641502851    -0.000001327322    15.994914619570
         O            1.884229236545    -0.169047397149     0.000011472678    15.994914619570
         C           -1.780892763455    -0.565733397149     0.000004472678    12.000000000000
         C           -0.439717763455     0.139740602851    -0.000003527322    12.000000000000
         H           -1.673316763455    -1.650475397149     0.000031472678     1.007825032230
         H           -2.347225763455    -0.255090397149    -0.881757527322     1.007825032230
         H           -2.347222763455    -0.255067397149     0.881768472678     1.007825032230

  Basis Set: AUG-CC-PVTZ
    Blend: AUG-CC-PVTZ
  Basis Set: (AUG-CC-PVTZ AUX)
    Blend: AUG-CC-PVTZ-JKFIT
	 Reference Energy          =    -302.0914699849881231 [Eh]
	 Singles Energy            =      -0.0000000000000000 [Eh]
	 Same-Spin Energy          =      -0.2869077794176112 [Eh]
	 Opposite-Spin Energy      =      -0.8643701712060503 [Eh]
	 Correlation Energy        =      -1.1512779506236615 [Eh]
	 Total Energy              =    -303.2427479356117601 [Eh]

	 ================> DF-SCS-MP2 Energies <==================
	-----------------------------------------------------------
	 SCS Same-Spin Scale       =       0.3333333333333333 [-]
	 SCS Opposite-Spin Scale   =       1.2000000000000000 [-]
	 SCS Same-Spin Energy      =      -0.0956359264725371 [Eh]
	 SCS Opposite-Spin Energy  =      -1.0372442054472604 [Eh]
	 SCS Correlation Energy    =      -1.1328801319197974 [Eh]
	 SCS Total Energy          =    -303.2243501169079423 [Eh]
	-----------------------------------------------------------

  Dipole Moment: [D]
     X:    -6.2130      Y:    -1.6888      Z:    -0.0000     Total:     6.4384

*** Psi4 exiting successfully. Buy a developer a beer!
