                               Psi4 1.3.2 release

  ==> Input File <==

--------------------------------------------------------------------------
#psi4
#
memory 32 gb

molecule  {
-1 1
  O        0.6232130    -0.7170940    -0.0000140
  O       -0.2658470     1.3958930    -0.0000020
  O        1.9606930    -0.1412830     0.0000110
  C       -1.7044290    -0.5379690     0.0000040
  C       -0.4090400     0.2367150    -0.1351851
  H       -1.5968530    -1.6227110     0.0000310
  H       -2.2707620    -0.2273260    -0.8817580
  H       -2.2707590    -0.2273030     0.8817680
units angstrom
no_reorient  #important for SAPT in psi4, default
symmetry c1  #important for SAPT in psi4, default
}

set PROPERTIES_ORIGIN ["COM"]
properties('MP2/aug-cc-pvtz', properties = ['dipole'])
--------------------------------------------------------------------------

    Molecular point group: c1
  Charge       = -1
  Multiplicity = 1
  Basis Set: AUG-CC-PVTZ
    Blend: AUG-CC-PVTZ
  Basis Set: (AUG-CC-PVTZ AUX)
    Blend: AUG-CC-PVTZ-JKFIT

    Orbital Energies [Eh]
    ---------------------

    Doubly Occupied:

       1A    -20.388482     2A    -20.363977     3A    -20.283046
       4A    -11.187172     5A    -11.091294     6A     -1.252311
       7A     -1.161788     8A     -0.905050     9A     -0.826520
      10A     -0.568677    11A     -0.485431    12A     -0.471543
      13A     -0.462988    14A     -0.416434    15A     -0.381294
      16A     -0.302470    17A     -0.299449    18A     -0.258347
      19A     -0.169001    20A     -0.144948

  @DF-RHF Final Energy:  -302.07103743525386

   => Energetics <=

    Nuclear Repulsion Energy =            167.6210670674861092
    One-Electron Energy =                -756.5437671757728140
    Two-Electron Energy =                 286.8516626730328198
    Total Energy =                       -302.0710374352538565
  Basis Set: (AUG-CC-PVTZ AUX)
    Blend: AUG-CC-PVTZ-RI
    Molecular point group: c1

    Geometry (in Angstrom), charge = -1, multiplicity = 1:

       Center              X                  Y                   Z               Mass
    ------------   -----------------  -----------------  -----------------  -----------------
         O            0.549499467127    -0.755608169706     0.021613121352    15.994914619570
         O           -0.339560532873     1.357378830294     0.021625121352    15.994914619570
         O            1.886979467127    -0.179797169706     0.021638121352    15.994914619570
         C           -1.778142532873    -0.576483169706     0.021631121352    12.000000000000
         C           -0.482753532873     0.198200830294    -0.113557978648    12.000000000000
         H           -1.670566532873    -1.661225169706     0.021658121352     1.007825032230
         H           -2.344475532873    -0.265840169706    -0.860130878648     1.007825032230
         H           -2.344472532873    -0.265817169706     0.903395121352     1.007825032230

  Basis Set: AUG-CC-PVTZ
    Blend: AUG-CC-PVTZ
  Basis Set: (AUG-CC-PVTZ AUX)
    Blend: AUG-CC-PVTZ-JKFIT
	 Reference Energy          =    -302.0710374352538565 [Eh]
	 Singles Energy            =      -0.0000000000000000 [Eh]
	 Same-Spin Energy          =      -0.2883298316994615 [Eh]
	 Opposite-Spin Energy      =      -0.8675549208192960 [Eh]
	 Correlation Energy        =      -1.1558847525187574 [Eh]
	 Total Energy              =    -303.2269221877726295 [Eh]

	 ================> DF-SCS-MP2 Energies <==================
	-----------------------------------------------------------
	 SCS Same-Spin Scale       =       0.3333333333333333 [-]
	 SCS Opposite-Spin Scale   =       1.2000000000000000 [-]
	 SCS Same-Spin Energy      =      -0.0961099438998205 [Eh]
	 SCS Opposite-Spin Energy  =      -1.0410659049831552 [Eh]
	 SCS Correlation Energy    =      -1.1371758488829757 [Eh]
	 SCS Total Energy          =    -303.2082132841368320 [Eh]
	-----------------------------------------------------------

  Dipole Moment: [D]
     X:    -6.7978      Y:    -1.0451      Z:    -0.1964     Total:     6.8804

*** Psi4 exiting successfully. Buy a developer a beer!
