                               Psi4 1.3.2 release

  ==> Input File <==

--------------------------------------------------------------------------
#psi4
#
memory 32 gb

molecule  {
-1 1
  O        0.6232130    -0.7170940    -0.0000140
  O       -0.2658470     1.3958930    -0.0000020
  O        1.9606930    -0.1412830     0.0000110
  C       -1.7044290    -0.5379690     0.0000040
  C       -0.3408690     0.1170206     0.0902084
  H       -1.5968530    -1.6227110     0.0000310
  H       -2.2707620    -0.2273260    -0.8817580
  H       -2.2707590    -0.2273030     0.8817680
units angstrom
no_reorient  #important for SAPT in psi4, default
symmetry c1  #important for SAPT in psi4, default
}

set PROPERTIES_ORIGIN ["COM"]
properties('MP2/aug-cc-pvtz', properties = ['dipole'])
--------------------------------------------------------------------------

    Molecular point group: c1
  Charge       = -1
  Multiplicity = 1
  Basis Set: AUG-CC-PVTZ
    Blend: AUG-CC-PVTZ
  Basis Set: (AUG-CC-PVTZ AUX)
    Blend: AUG-CC-PVTZ-JKFIT

    Orbital Energies [Eh]
    ---------------------

    Doubly Occupied:

       1A    -20.418395     2A    -20.330539     3A    -20.306560
       4A    -11.186880     5A    -11.088309     6A     -1.267762
       7A     -1.122079     8A     -0.941873     9A     -0.831667
      10A     -0.570692    11A     -0.488065    12A     -0.465785
      13A     -0.462403    14A     -0.402021    15A     -0.395474
      16A     -0.312632    17A     -0.267894    18A     -0.241406
      19A     -0.196890    20A     -0.171776

  @DF-RHF Final Energy:  -302.08253267445383

   => Energetics <=

    Nuclear Repulsion Energy =            168.0632326358332307
    One-Electron Energy =                -757.3533322214357213
    Two-Electron Energy =                 287.2075669111487173
    Total Energy =                       -302.0825326744538302
  Basis Set: (AUG-CC-PVTZ AUX)
    Blend: AUG-CC-PVTZ-RI
    Molecular point group: c1

    Geometry (in Angstrom), charge = -1, multiplicity = 1:

       Center              X                  Y                   Z               Mass
    ------------   -----------------  -----------------  -----------------  -----------------
         O            0.538593302290    -0.736459164170    -0.014445887083    15.994914619570
         O           -0.350466697710     1.376527835830    -0.014433887083    15.994914619570
         O            1.876073302290    -0.160648164170    -0.014420887083    15.994914619570
         C           -1.789048697710    -0.557334164170    -0.014427887083    12.000000000000
         C           -0.425488697710     0.097655435830     0.075776512917    12.000000000000
         H           -1.681472697710    -1.642076164170    -0.014400887083     1.007825032230
         H           -2.355381697710    -0.246691164170    -0.896189887083     1.007825032230
         H           -2.355378697710    -0.246668164170     0.867336112917     1.007825032230

  Basis Set: AUG-CC-PVTZ
    Blend: AUG-CC-PVTZ
  Basis Set: (AUG-CC-PVTZ AUX)
    Blend: AUG-CC-PVTZ-JKFIT
	 Reference Energy          =    -302.0825326744538302 [Eh]
	 Singles Energy            =      -0.0000000000000000 [Eh]
	 Same-Spin Energy          =      -0.2870624660955775 [Eh]
	 Opposite-Spin Energy      =      -0.8647091417083499 [Eh]
	 Correlation Energy        =      -1.1517716078039273 [Eh]
	 Total Energy              =    -303.2343042822577672 [Eh]

	 ================> DF-SCS-MP2 Energies <==================
	-----------------------------------------------------------
	 SCS Same-Spin Scale       =       0.3333333333333333 [-]
	 SCS Opposite-Spin Scale   =       1.2000000000000000 [-]
	 SCS Same-Spin Energy      =      -0.0956874886985258 [Eh]
	 SCS Opposite-Spin Energy  =      -1.0376509700500198 [Eh]
	 SCS Correlation Energy    =      -1.1333384587485456 [Eh]
	 SCS Total Energy          =    -303.2158711332023699 [Eh]
	-----------------------------------------------------------

  Dipole Moment: [D]
     X:    -5.8923      Y:    -2.1364      Z:     0.1085     Total:     6.2686

*** Psi4 exiting successfully. Buy a developer a beer!
