                               Psi4 1.3.2 release

  ==> Input File <==

--------------------------------------------------------------------------
#psi4
#
memory 32 gb

molecule  {
-1 1
  O        0.6232130    -0.7170940    -0.0000140
  O       -0.1379791     1.3789820    -0.0000029
  O        1.9606930    -0.1412830     0.0000110
  C       -1.7044290    -0.5379690     0.0000040
  C       -0.3632540     0.1675050    -0.0000040
  H       -1.5968530    -1.6227110     0.0000310
  H       -2.2707620    -0.2273260    -0.8817580
  H       -2.2707590    -0.2273030     0.8817680
units angstrom
no_reorient  #important for SAPT in psi4, default
symmetry c1  #important for SAPT in psi4, default
}

set PROPERTIES_ORIGIN ["COM"]
properties('MP2/aug-cc-pvtz', properties = ['dipole'])
--------------------------------------------------------------------------

    Molecular point group: c1
  Charge       = -1
  Multiplicity = 1
  Basis Set: AUG-CC-PVTZ
    Blend: AUG-CC-PVTZ
  Basis Set: (AUG-CC-PVTZ AUX)
    Blend: AUG-CC-PVTZ-JKFIT

    Orbital Energies [Eh]
    ---------------------

    Doubly Occupied:

       1A    -20.398488     2A    -20.339055     3A    -20.292005
       4A    -11.182877     5A    -11.094754     6A     -1.248699
       7A     -1.142965     8A     -0.923724     9A     -0.833688
      10A     -0.564980    11A     -0.484136    12A     -0.465148
      13A     -0.464085    14A     -0.410506    15A     -0.388579
      16A     -0.305725    17A     -0.279070    18A     -0.248708
      19A     -0.181383    20A     -0.156308

  @DF-RHF Final Energy:  -302.08608459382867

   => Energetics <=

    Nuclear Repulsion Energy =            168.6451520707651071
    One-Electron Energy =                -758.6527110109681189
    Two-Electron Energy =                 287.9214743463743389
    Total Energy =                       -302.0860845938286730
  Basis Set: (AUG-CC-PVTZ AUX)
    Blend: AUG-CC-PVTZ-RI
    Molecular point group: c1

    Geometry (in Angstrom), charge = -1, multiplicity = 1:

       Center              X                  Y                   Z               Mass
    ------------   -----------------  -----------------  -----------------  -----------------
         O            0.514907682663    -0.740929644920    -0.000013292755    15.994914619570
         O           -0.246284417337     1.355146355080    -0.000002192755    15.994914619570
         O            1.852387682663    -0.165118644920     0.000011707245    15.994914619570
         C           -1.812734317337    -0.561804644920     0.000004707245    12.000000000000
         C           -0.471559317337     0.143669355080    -0.000003292755    12.000000000000
         H           -1.705158317337    -1.646546644920     0.000031707245     1.007825032230
         H           -2.379067317337    -0.251161644920    -0.881757292755     1.007825032230
         H           -2.379064317337    -0.251138644920     0.881768707245     1.007825032230

  Basis Set: AUG-CC-PVTZ
    Blend: AUG-CC-PVTZ
  Basis Set: (AUG-CC-PVTZ AUX)
    Blend: AUG-CC-PVTZ-JKFIT
	 Reference Energy          =    -302.0860845938286730 [Eh]
	 Singles Energy            =      -0.0000000000000000 [Eh]
	 Same-Spin Energy          =      -0.2874778149462093 [Eh]
	 Opposite-Spin Energy      =      -0.8650227530112033 [Eh]
	 Correlation Energy        =      -1.1525005679574125 [Eh]
	 Total Energy              =    -303.2385851617860908 [Eh]

	 ================> DF-SCS-MP2 Energies <==================
	-----------------------------------------------------------
	 SCS Same-Spin Scale       =       0.3333333333333333 [-]
	 SCS Opposite-Spin Scale   =       1.2000000000000000 [-]
	 SCS Same-Spin Energy      =      -0.0958259383154031 [Eh]
	 SCS Opposite-Spin Energy  =      -1.0380273036134440 [Eh]
	 SCS Correlation Energy    =      -1.1338532419288470 [Eh]
	 SCS Total Energy          =    -303.2199378357574915 [Eh]
	-----------------------------------------------------------

  Dipole Moment: [D]
     X:    -6.4851      Y:    -1.6846      Z:    -0.0000     Total:     6.7003

*** Psi4 exiting successfully. Buy a developer a beer!
