                               Psi4 1.3.2 release

  ==> Input File <==

--------------------------------------------------------------------------
#psi4
#
memory 32 gb

molecule  {
-1 1
  O        0.6232130    -0.7170940    -0.0000140
  O       -0.2658470     1.3958930    -0.0000020
  O        1.9397827    -0.0949564     0.0000118
  C       -1.7044290    -0.5379690     0.0000040
  C       -0.3632540     0.1675050    -0.0000040
  H       -1.5968530    -1.6227110     0.0000310
  H       -2.2707620    -0.2273260    -0.8817580
  H       -2.2707590    -0.2273030     0.8817680
units angstrom
no_reorient  #important for SAPT in psi4, default
symmetry c1  #important for SAPT in psi4, default
}

set PROPERTIES_ORIGIN ["COM"]
properties('MP2/aug-cc-pvtz', properties = ['dipole'])
--------------------------------------------------------------------------

    Molecular point group: c1
  Charge       = -1
  Multiplicity = 1
  Basis Set: AUG-CC-PVTZ
    Blend: AUG-CC-PVTZ
  Basis Set: (AUG-CC-PVTZ AUX)
    Blend: AUG-CC-PVTZ-JKFIT

    Orbital Energies [Eh]
    ---------------------

    Doubly Occupied:

       1A    -20.406790     2A    -20.342708     3A    -20.295134
       4A    -11.185029     5A    -11.087730     6A     -1.250653
       7A     -1.152503     8A     -0.925392     9A     -0.829199
      10A     -0.567482    11A     -0.485321    12A     -0.464041
      13A     -0.462876    14A     -0.410341    15A     -0.388828
      16A     -0.309990    17A     -0.284575    18A     -0.250175
      19A     -0.186030    20A     -0.161077

  @DF-RHF Final Energy:  -302.09067035735632

   => Energetics <=

    Nuclear Repulsion Energy =            168.4335101674885777
    One-Electron Energy =                -758.1566178490515995
    Two-Electron Energy =                 287.6324373242067622
    Total Energy =                       -302.0906703573563163
  Basis Set: (AUG-CC-PVTZ AUX)
    Blend: AUG-CC-PVTZ-RI
    Molecular point group: c1

    Geometry (in Angstrom), charge = -1, multiplicity = 1:

       Center              X                  Y                   Z               Mass
    ------------   -----------------  -----------------  -----------------  -----------------
         O            0.546633467376    -0.754414567330    -0.000013655267    15.994914619570
         O           -0.342426532624     1.358572432670    -0.000001655267    15.994914619570
         O            1.863203167376    -0.132276967330     0.000012144733    15.994914619570
         C           -1.781008532624    -0.575289567330     0.000004344733    12.000000000000
         C           -0.439833532624     0.130184432670    -0.000003655267    12.000000000000
         H           -1.673432532624    -1.660031567330     0.000031344733     1.007825032230
         H           -2.347341532624    -0.264646567330    -0.881757655267     1.007825032230
         H           -2.347338532624    -0.264623567330     0.881768344733     1.007825032230

  Basis Set: AUG-CC-PVTZ
    Blend: AUG-CC-PVTZ
  Basis Set: (AUG-CC-PVTZ AUX)
    Blend: AUG-CC-PVTZ-JKFIT
	 Reference Energy          =    -302.0906703573563163 [Eh]
	 Singles Energy            =      -0.0000000000000000 [Eh]
	 Same-Spin Energy          =      -0.2870985925010233 [Eh]
	 Opposite-Spin Energy      =      -0.8646254546747786 [Eh]
	 Correlation Energy        =      -1.1517240471758019 [Eh]
	 Total Energy              =    -303.2423944045320923 [Eh]

	 ================> DF-SCS-MP2 Energies <==================
	-----------------------------------------------------------
	 SCS Same-Spin Scale       =       0.3333333333333333 [-]
	 SCS Opposite-Spin Scale   =       1.2000000000000000 [-]
	 SCS Same-Spin Energy      =      -0.0956995308336744 [Eh]
	 SCS Opposite-Spin Energy  =      -1.0375505456097343 [Eh]
	 SCS Correlation Energy    =      -1.1332500764434088 [Eh]
	 SCS Total Energy          =    -303.2239204337997194 [Eh]
	-----------------------------------------------------------

  Dipole Moment: [D]
     X:    -6.2177      Y:    -1.7591      Z:    -0.0000     Total:     6.4618

*** Psi4 exiting successfully. Buy a developer a beer!
