                               Psi4 1.3.2 release

  ==> Input File <==

--------------------------------------------------------------------------
#psi4
#
memory 32 gb

molecule  {
-1 1
  O        0.6232130    -0.7170940    -0.0000140
  O       -0.2658470     1.3958930    -0.0000020
  O        1.7769938    -0.2203691     0.0000076
  C       -1.7044290    -0.5379690     0.0000040
  C       -0.3632540     0.1675050    -0.0000040
  H       -1.5968530    -1.6227110     0.0000310
  H       -2.2707620    -0.2273260    -0.8817580
  H       -2.2707590    -0.2273030     0.8817680
units angstrom
no_reorient  #important for SAPT in psi4, default
symmetry c1  #important for SAPT in psi4, default
}

set PROPERTIES_ORIGIN ["COM"]
properties('MP2/aug-cc-pvtz', properties = ['dipole'])
--------------------------------------------------------------------------

    Molecular point group: c1
  Charge       = -1
  Multiplicity = 1
  Basis Set: AUG-CC-PVTZ
    Blend: AUG-CC-PVTZ
  Basis Set: (AUG-CC-PVTZ AUX)
    Blend: AUG-CC-PVTZ-JKFIT

    Orbital Energies [Eh]
    ---------------------

    Doubly Occupied:

       1A    -20.430746     2A    -20.341316     3A    -20.261582
       4A    -11.177728     5A    -11.086645     6A     -1.335035
       7A     -1.169333     8A     -0.934119     9A     -0.819660
      10A     -0.572199    11A     -0.502563    12A     -0.479183
      13A     -0.465432    14A     -0.413121    15A     -0.412658
      16A     -0.355396    17A     -0.297465    18A     -0.253650
      19A     -0.153694    20A     -0.114326

  @DF-RHF Final Energy:  -302.07063164626516

   => Energetics <=

    Nuclear Repulsion Energy =            173.6191103181831181
    One-Electron Energy =                -768.2277794878530131
    Two-Electron Energy =                 292.5380375234046824
    Total Energy =                       -302.0706316462651557
  Basis Set: (AUG-CC-PVTZ AUX)
    Blend: AUG-CC-PVTZ-RI
    Molecular point group: c1

    Geometry (in Angstrom), charge = -1, multiplicity = 1:

       Center              X                  Y                   Z               Mass
    ------------   -----------------  -----------------  -----------------  -----------------
         O            0.581346924018    -0.727671292304    -0.000012759650    15.994914619570
         O           -0.307713075982     1.385315707696    -0.000000759650    15.994914619570
         O            1.735127724018    -0.230946392304     0.000008840350    15.994914619570
         C           -1.746295075982    -0.548546292304     0.000005240350    12.000000000000
         C           -0.405120075982     0.156927707696    -0.000002759650    12.000000000000
         H           -1.638719075982    -1.633288292304     0.000032240350     1.007825032230
         H           -2.312628075982    -0.237903292304    -0.881756759650     1.007825032230
         H           -2.312625075982    -0.237880292304     0.881769240350     1.007825032230

  Basis Set: AUG-CC-PVTZ
    Blend: AUG-CC-PVTZ
  Basis Set: (AUG-CC-PVTZ AUX)
    Blend: AUG-CC-PVTZ-JKFIT
	 Reference Energy          =    -302.0706316462651557 [Eh]
	 Singles Energy            =      -0.0000000000000000 [Eh]
	 Same-Spin Energy          =      -0.2903017495898171 [Eh]
	 Opposite-Spin Energy      =      -0.8635393913342029 [Eh]
	 Correlation Energy        =      -1.1538411409240199 [Eh]
	 Total Energy              =    -303.2244727871891996 [Eh]

	 ================> DF-SCS-MP2 Energies <==================
	-----------------------------------------------------------
	 SCS Same-Spin Scale       =       0.3333333333333333 [-]
	 SCS Opposite-Spin Scale   =       1.2000000000000000 [-]
	 SCS Same-Spin Energy      =      -0.0967672498632724 [Eh]
	 SCS Opposite-Spin Energy  =      -1.0362472696010434 [Eh]
	 SCS Correlation Energy    =      -1.1330145194643158 [Eh]
	 SCS Total Energy          =    -303.2036461657294808 [Eh]
	-----------------------------------------------------------

  Dipole Moment: [D]
     X:    -5.3711      Y:    -1.9308      Z:    -0.0000     Total:     5.7076

*** Psi4 exiting successfully. Buy a developer a beer!
