                               Psi4 1.4a3.dev225

  ==> Input File <==

--------------------------------------------------------------------------
#psi4
#
memory 32 gb

molecule  {
-1 1
  O        0.6232130    -0.7170940    -0.0000140
  O       -0.2658470     1.3958930    -0.0000020
  O        1.9606930    -0.1412830     0.0000110
  C       -1.7044290    -0.5379690     0.0000040
  C       -0.3809546     0.1581943    -0.0000039
  H       -1.5968530    -1.6227110     0.0000310
  H       -2.2707620    -0.2273260    -0.8817580
  H       -2.2707590    -0.2273030     0.8817680
units angstrom
no_reorient  #important for SAPT in psi4, default
symmetry c1  #important for SAPT in psi4, default
}

set PROPERTIES_ORIGIN ["COM"]
properties('MP2/aug-cc-pvtz', properties = ['dipole'])
--------------------------------------------------------------------------

    Molecular point group: c1
  Charge       = -1
  Multiplicity = 1
  Basis Set: AUG-CC-PVTZ
    Blend: AUG-CC-PVTZ
  Basis Set: (AUG-CC-PVTZ AUX)
    Blend: AUG-CC-PVTZ-JKFIT

    Orbital Energies [Eh]
    ---------------------

    Doubly Occupied:

       1A    -20.405433     2A    -20.342296     3A    -20.296642
       4A    -11.186609     5A    -11.089891     6A     -1.245510
       7A     -1.146357     8A     -0.926985     9A     -0.835043
      10A     -0.568284    11A     -0.484813    12A     -0.465703
      13A     -0.463983    14A     -0.408567    15A     -0.387032
      16A     -0.310487    17A     -0.282172    18A     -0.251814
      19A     -0.185533    20A     -0.160565

  @DF-RHF Final Energy:  -302.08873452456749

   => Energetics <=

    Nuclear Repulsion Energy =            167.9162054627685450
    One-Electron Energy =                -757.1224401986281691
    Two-Electron Energy =                 287.1175002112921675
    Total Energy =                       -302.0887345245674851
  Basis Set: (AUG-CC-PVTZ AUX)
    Blend: AUG-CC-PVTZ-RI
    Molecular point group: c1

    Geometry (in Angstrom), charge = -1, multiplicity = 1:

       Center              X                  Y                   Z               Mass
    ------------   -----------------  -----------------  -----------------  -----------------
         O            0.545006295516    -0.743046234319    -0.000013500671    15.994914619570
         O           -0.344053704484     1.369940765681    -0.000001500671    15.994914619570
         O            1.882486295516    -0.167235234319     0.000011499329    15.994914619570
         C           -1.782635704484    -0.563921234319     0.000004499329    12.000000000000
         C           -0.459161304484     0.132242065681    -0.000003400671    12.000000000000
         H           -1.675059704484    -1.648663234319     0.000031499329     1.007825032230
         H           -2.348968704484    -0.253278234319    -0.881757500671     1.007825032230
         H           -2.348965704484    -0.253255234319     0.881768499329     1.007825032230

  Basis Set: AUG-CC-PVTZ
    Blend: AUG-CC-PVTZ
  Basis Set: (AUG-CC-PVTZ AUX)
    Blend: AUG-CC-PVTZ-JKFIT
	 Reference Energy          =    -302.0887345245674851 [Eh]
	 Singles Energy            =      -0.0000000000000000 [Eh]
	 Same-Spin Energy          =      -0.2874059264539306 [Eh]
	 Opposite-Spin Energy      =      -0.8652257435540761 [Eh]
	 Correlation Energy        =      -1.1526316700080068 [Eh]
	 Total Energy              =    -303.2413661945755052 [Eh]

	 ================> DF-SCS-MP2 Energies <==================
	-----------------------------------------------------------
	 SCS Same-Spin Scale       =       0.3333333333333333 [-]
	 SCS Opposite-Spin Scale   =       1.2000000000000000 [-]
	 SCS Same-Spin Energy      =      -0.0958019754846435 [Eh]
	 SCS Opposite-Spin Energy  =      -1.0382708922648913 [Eh]
	 SCS Correlation Energy    =      -1.1340728677495349 [Eh]
	 SCS Total Energy          =    -303.2228073923170086 [Eh]
	-----------------------------------------------------------

  Dipole Moment: [D]
     X:    -6.3389      Y:    -1.7661      Z:    -0.0000     Total:     6.5803

*** Psi4 exiting successfully. Buy a developer a beer!
