                               Psi4 1.3.2 release

  ==> Input File <==

--------------------------------------------------------------------------
#psi4
#
memory 32 gb

molecule  {
-1 1
  O        0.6232130    -0.7170940    -0.0000140
  O       -0.2658470     1.3958930    -0.0000020
  O        1.9976015    -0.2359835     0.0000093
  C       -1.7044290    -0.5379690     0.0000040
  C       -0.3632540     0.1675050    -0.0000040
  H       -1.5968530    -1.6227110     0.0000310
  H       -2.2707620    -0.2273260    -0.8817580
  H       -2.2707590    -0.2273030     0.8817680
units angstrom
no_reorient  #important for SAPT in psi4, default
symmetry c1  #important for SAPT in psi4, default
}

set PROPERTIES_ORIGIN ["COM"]
properties('MP2/aug-cc-pvtz', properties = ['dipole'])
--------------------------------------------------------------------------

    Molecular point group: c1
  Charge       = -1
  Multiplicity = 1
  Basis Set: AUG-CC-PVTZ
    Blend: AUG-CC-PVTZ
  Basis Set: (AUG-CC-PVTZ AUX)
    Blend: AUG-CC-PVTZ-JKFIT

    Orbital Energies [Eh]
    ---------------------

    Doubly Occupied:

       1A    -20.405016     2A    -20.344421     3A    -20.300363
       4A    -11.187506     5A    -11.089134     6A     -1.248336
       7A     -1.154537     8A     -0.929939     9A     -0.831399
      10A     -0.566779    11A     -0.484699    12A     -0.464746
      13A     -0.464729    14A     -0.411375    15A     -0.388626
      16A     -0.311087    17A     -0.287835    18A     -0.253572
      19A     -0.187339    20A     -0.163099

  @DF-RHF Final Energy:  -302.09129422851595

   => Energetics <=

    Nuclear Repulsion Energy =            167.3909703538646738
    One-Electron Energy =                -756.0154542193022280
    Two-Electron Energy =                 286.5331896369216338
    Total Energy =                       -302.0912942285159488
  Basis Set: (AUG-CC-PVTZ AUX)
    Blend: AUG-CC-PVTZ-RI
    Molecular point group: c1

    Geometry (in Angstrom), charge = -1, multiplicity = 1:

       Center              X                  Y                   Z               Mass
    ------------   -----------------  -----------------  -----------------  -----------------
         O            0.534304061582    -0.724341643923    -0.000013122162    15.994914619570
         O           -0.354755938418     1.388645356077    -0.000001122162    15.994914619570
         O            1.908692561582    -0.243231143923     0.000010177838    15.994914619570
         C           -1.793337938418    -0.545216643923     0.000004877838    12.000000000000
         C           -0.452162938418     0.160257356077    -0.000003122162    12.000000000000
         H           -1.685761938418    -1.629958643923     0.000031877838     1.007825032230
         H           -2.359670938418    -0.234573643923    -0.881757122162     1.007825032230
         H           -2.359667938418    -0.234550643923     0.881768877838     1.007825032230

  Basis Set: AUG-CC-PVTZ
    Blend: AUG-CC-PVTZ
  Basis Set: (AUG-CC-PVTZ AUX)
    Blend: AUG-CC-PVTZ-JKFIT
	 Reference Energy          =    -302.0912942285159488 [Eh]
	 Singles Energy            =      -0.0000000000000000 [Eh]
	 Same-Spin Energy          =      -0.2867130638188539 [Eh]
	 Opposite-Spin Energy      =      -0.8640164522320353 [Eh]
	 Correlation Energy        =      -1.1507295160508892 [Eh]
	 Total Energy              =    -303.2420237445668363 [Eh]

	 ================> DF-SCS-MP2 Energies <==================
	-----------------------------------------------------------
	 SCS Same-Spin Scale       =       0.3333333333333333 [-]
	 SCS Opposite-Spin Scale   =       1.2000000000000000 [-]
	 SCS Same-Spin Energy      =      -0.0955710212729513 [Eh]
	 SCS Opposite-Spin Energy  =      -1.0368197426784422 [Eh]
	 SCS Correlation Energy    =      -1.1323907639513935 [Eh]
	 SCS Total Energy          =    -303.2236849924673265 [Eh]
	-----------------------------------------------------------

  Dipole Moment: [D]
     X:    -6.3080      Y:    -1.5483      Z:    -0.0000     Total:     6.4952

*** Psi4 exiting successfully. Buy a developer a beer!
