                               Psi4 1.3.2 release

  ==> Input File <==

--------------------------------------------------------------------------
#psi4
#
memory 32 gb

molecule  {
-1 1
  O        0.6232130    -0.7170940    -0.0000140
  O       -0.1803963     1.3861059    -0.0000026
  O        1.9606930    -0.1412830     0.0000110
  C       -1.7044290    -0.5379690     0.0000040
  C       -0.3632540     0.1675050    -0.0000040
  H       -1.5968530    -1.6227110     0.0000310
  H       -2.2707620    -0.2273260    -0.8817580
  H       -2.2707590    -0.2273030     0.8817680
units angstrom
no_reorient  #important for SAPT in psi4, default
symmetry c1  #important for SAPT in psi4, default
}

set PROPERTIES_ORIGIN ["COM"]
properties('MP2/aug-cc-pvtz', properties = ['dipole'])
--------------------------------------------------------------------------

    Molecular point group: c1
  Charge       = -1
  Multiplicity = 1
  Basis Set: AUG-CC-PVTZ
    Blend: AUG-CC-PVTZ
  Basis Set: (AUG-CC-PVTZ AUX)
    Blend: AUG-CC-PVTZ-JKFIT

    Orbital Energies [Eh]
    ---------------------

    Doubly Occupied:

       1A    -20.401138     2A    -20.340574     3A    -20.293672
       4A    -11.183885     5A    -11.092635     6A     -1.248985
       7A     -1.146514     8A     -0.924775     9A     -0.832571
      10A     -0.565751    11A     -0.484419    12A     -0.464823
      13A     -0.463955    14A     -0.410668    15A     -0.388698
      16A     -0.307240    17A     -0.281416    18A     -0.249986
      19A     -0.183187    20A     -0.158142

  @DF-RHF Final Energy:  -302.08853734198465

   => Energetics <=

    Nuclear Repulsion Energy =            168.4310895644085804
    One-Electron Energy =                -758.1931883496607725
    Two-Electron Energy =                 287.6735614432675447
    Total Energy =                       -302.0885373419846474
  Basis Set: (AUG-CC-PVTZ AUX)
    Blend: AUG-CC-PVTZ-RI
    Molecular point group: c1

    Geometry (in Angstrom), charge = -1, multiplicity = 1:

       Center              X                  Y                   Z               Mass
    ------------   -----------------  -----------------  -----------------  -----------------
         O            0.523952818008    -0.742448760742    -0.000013356728    15.994914619570
         O           -0.279656481992     1.360751139258    -0.000001956728    15.994914619570
         O            1.861432818008    -0.166637760742     0.000011643272    15.994914619570
         C           -1.803689181992    -0.563323760742     0.000004643272    12.000000000000
         C           -0.462514181992     0.142150239258    -0.000003356728    12.000000000000
         H           -1.696113181992    -1.648065760742     0.000031643272     1.007825032230
         H           -2.370022181992    -0.252680760742    -0.881757356728     1.007825032230
         H           -2.370019181992    -0.252657760742     0.881768643272     1.007825032230

  Basis Set: AUG-CC-PVTZ
    Blend: AUG-CC-PVTZ
  Basis Set: (AUG-CC-PVTZ AUX)
    Blend: AUG-CC-PVTZ-JKFIT
	 Reference Energy          =    -302.0885373419846474 [Eh]
	 Singles Energy            =      -0.0000000000000000 [Eh]
	 Same-Spin Energy          =      -0.2872665926463457 [Eh]
	 Opposite-Spin Energy      =      -0.8647487811598060 [Eh]
	 Correlation Energy        =      -1.1520153738061518 [Eh]
	 Total Energy              =    -303.2405527157907841 [Eh]

	 ================> DF-SCS-MP2 Energies <==================
	-----------------------------------------------------------
	 SCS Same-Spin Scale       =       0.3333333333333333 [-]
	 SCS Opposite-Spin Scale   =       1.2000000000000000 [-]
	 SCS Same-Spin Energy      =      -0.0957555308821152 [Eh]
	 SCS Opposite-Spin Energy  =      -1.0376985373917671 [Eh]
	 SCS Correlation Energy    =      -1.1334540682738823 [Eh]
	 SCS Total Energy          =    -303.2219914102585108 [Eh]
	-----------------------------------------------------------

  Dipole Moment: [D]
     X:    -6.4100      Y:    -1.6902      Z:    -0.0000     Total:     6.6291

*** Psi4 exiting successfully. Buy a developer a beer!
