                               Psi4 1.3.2 release

  ==> Input File <==

--------------------------------------------------------------------------
#psi4
#
memory 32 gb

molecule  {
-1 1
  O        0.6232130    -0.7170940    -0.0000140
  O       -0.2658470     1.3958930    -0.0000020
  O        1.9606930    -0.1412830     0.0000110
  C       -1.7044290    -0.5379690     0.0000040
  C       -0.5121544     0.3010291    -0.0000025
  H       -1.5968530    -1.6227110     0.0000310
  H       -2.2707620    -0.2273260    -0.8817580
  H       -2.2707590    -0.2273030     0.8817680
units angstrom
no_reorient  #important for SAPT in psi4, default
symmetry c1  #important for SAPT in psi4, default
}

set PROPERTIES_ORIGIN ["COM"]
properties('MP2/aug-cc-pvtz', properties = ['dipole'])
--------------------------------------------------------------------------

    Molecular point group: c1
  Charge       = -1
  Multiplicity = 1
  Basis Set: AUG-CC-PVTZ
    Blend: AUG-CC-PVTZ
  Basis Set: (AUG-CC-PVTZ AUX)
    Blend: AUG-CC-PVTZ-JKFIT

    Orbital Energies [Eh]
    ---------------------

    Doubly Occupied:

       1A    -20.383589     2A    -20.360144     3A    -20.266309
       4A    -11.186482     5A    -11.099749     6A     -1.291458
       7A     -1.129668     8A     -0.900816     9A     -0.821553
      10A     -0.578538    11A     -0.503621    12A     -0.483160
      13A     -0.480536    14A     -0.419669    15A     -0.386647
      16A     -0.300040    17A     -0.279526    18A     -0.258307
      19A     -0.143129    20A     -0.123179

  @DF-RHF Final Energy:  -302.04010542915324

   => Energetics <=

    Nuclear Repulsion Energy =            167.4718268287803937
    One-Electron Energy =                -756.2316180140496726
    Two-Electron Energy =                 286.7196857561160073
    Total Energy =                       -302.0401054291532432
  Basis Set: (AUG-CC-PVTZ AUX)
    Blend: AUG-CC-PVTZ-RI
    Molecular point group: c1

    Geometry (in Angstrom), charge = -1, multiplicity = 1:

       Center              X                  Y                   Z               Mass
    ------------   -----------------  -----------------  -----------------  -----------------
         O            0.565995963340    -0.765897298161    -0.000013724647    15.994914619570
         O           -0.323064036660     1.347089701839    -0.000001724647    15.994914619570
         O            1.903475963340    -0.190086298161     0.000011275353    15.994914619570
         C           -1.761646036660    -0.586772298161     0.000004275353    12.000000000000
         C           -0.569371436660     0.252225801839    -0.000002224647    12.000000000000
         H           -1.654070036660    -1.671514298161     0.000031275353     1.007825032230
         H           -2.327979036660    -0.276129298161    -0.881757724647     1.007825032230
         H           -2.327976036660    -0.276106298161     0.881768275353     1.007825032230

  Basis Set: AUG-CC-PVTZ
    Blend: AUG-CC-PVTZ
  Basis Set: (AUG-CC-PVTZ AUX)
    Blend: AUG-CC-PVTZ-JKFIT
	 Reference Energy          =    -302.0401054291532432 [Eh]
	 Singles Energy            =      -0.0000000000000000 [Eh]
	 Same-Spin Energy          =      -0.2900897918035730 [Eh]
	 Opposite-Spin Energy      =      -0.8703820223377752 [Eh]
	 Correlation Energy        =      -1.1604718141413481 [Eh]
	 Total Energy              =    -303.2005772432946173 [Eh]

	 ================> DF-SCS-MP2 Energies <==================
	-----------------------------------------------------------
	 SCS Same-Spin Scale       =       0.3333333333333333 [-]
	 SCS Opposite-Spin Scale   =       1.2000000000000000 [-]
	 SCS Same-Spin Energy      =      -0.0966965972678576 [Eh]
	 SCS Opposite-Spin Energy  =      -1.0444584268053301 [Eh]
	 SCS Correlation Energy    =      -1.1411550240731878 [Eh]
	 SCS Total Energy          =    -303.1812604532264572 [Eh]
	-----------------------------------------------------------

  Dipole Moment: [D]
     X:    -7.8244      Y:    -0.4296      Z:    -0.0000     Total:     7.8362

*** Psi4 exiting successfully. Buy a developer a beer!
