                               Psi4 1.3.2 release

  ==> Input File <==

--------------------------------------------------------------------------
#psi4
#
memory 32 gb

molecule  {
-1 1
  O        0.6232130    -0.7170940    -0.0000140
  O       -0.2658470     1.3958930    -0.0000020
  O        1.9606930    -0.1412830     0.0000110
  C       -1.7044290    -0.5379690     0.0000040
  C       -0.4377042     0.2342670    -0.0000032
  H       -1.5968530    -1.6227110     0.0000310
  H       -2.2707620    -0.2273260    -0.8817580
  H       -2.2707590    -0.2273030     0.8817680
units angstrom
no_reorient  #important for SAPT in psi4, default
symmetry c1  #important for SAPT in psi4, default
}

set PROPERTIES_ORIGIN ["COM"]
properties('MP2/aug-cc-pvtz', properties = ['dipole'])
--------------------------------------------------------------------------

    Molecular point group: c1
  Charge       = -1
  Multiplicity = 1
  Basis Set: AUG-CC-PVTZ
    Blend: AUG-CC-PVTZ
  Basis Set: (AUG-CC-PVTZ AUX)
    Blend: AUG-CC-PVTZ-JKFIT

    Orbital Energies [Eh]
    ---------------------

    Doubly Occupied:

       1A    -20.383759     2A    -20.363630     3A    -20.280884
       4A    -11.185855     5A    -11.093089     6A     -1.251337
       7A     -1.156593     8A     -0.906538     9A     -0.831515
      10A     -0.570080    11A     -0.486358    12A     -0.472750
      13A     -0.470254    14A     -0.416081    15A     -0.379405
      16A     -0.301455    17A     -0.297048    18A     -0.261477
      19A     -0.165556    20A     -0.141913

  @DF-RHF Final Energy:  -302.07549689393352

   => Energetics <=

    Nuclear Repulsion Energy =            167.7030652574956662
    One-Electron Energy =                -756.7259669423684727
    Two-Electron Energy =                 286.9474047909392311
    Total Energy =                       -302.0754968939335185
  Basis Set: (AUG-CC-PVTZ AUX)
    Blend: AUG-CC-PVTZ-RI
    Molecular point group: c1

    Geometry (in Angstrom), charge = -1, multiplicity = 1:

       Center              X                  Y                   Z               Mass
    ------------   -----------------  -----------------  -----------------  -----------------
         O            0.554085236590    -0.755216532624    -0.000013612659    15.994914619570
         O           -0.334974763410     1.357770467376    -0.000001612659    15.994914619570
         O            1.891565236590    -0.179405532624     0.000011387341    15.994914619570
         C           -1.773556763410    -0.576091532624     0.000004387341    12.000000000000
         C           -0.506831963410     0.196144467376    -0.000002812659    12.000000000000
         H           -1.665980763410    -1.660833532624     0.000031387341     1.007825032230
         H           -2.339889763410    -0.265448532624    -0.881757612659     1.007825032230
         H           -2.339886763410    -0.265425532624     0.881768387341     1.007825032230

  Basis Set: AUG-CC-PVTZ
    Blend: AUG-CC-PVTZ
  Basis Set: (AUG-CC-PVTZ AUX)
    Blend: AUG-CC-PVTZ-JKFIT
	 Reference Energy          =    -302.0754968939335185 [Eh]
	 Singles Energy            =      -0.0000000000000000 [Eh]
	 Same-Spin Energy          =      -0.2883045359001513 [Eh]
	 Opposite-Spin Energy      =      -0.8670203178937799 [Eh]
	 Correlation Energy        =      -1.1553248537939311 [Eh]
	 Total Energy              =    -303.2308217477274752 [Eh]

	 ================> DF-SCS-MP2 Energies <==================
	-----------------------------------------------------------
	 SCS Same-Spin Scale       =       0.3333333333333333 [-]
	 SCS Opposite-Spin Scale   =       1.2000000000000000 [-]
	 SCS Same-Spin Energy      =      -0.0961015119667171 [Eh]
	 SCS Opposite-Spin Energy  =      -1.0404243814725358 [Eh]
	 SCS Correlation Energy    =      -1.1365258934392528 [Eh]
	 SCS Total Energy          =    -303.2120227873727458 [Eh]
	-----------------------------------------------------------

  Dipole Moment: [D]
     X:    -7.0394      Y:    -1.0647      Z:    -0.0000     Total:     7.1195

*** Psi4 exiting successfully. Buy a developer a beer!
