                               Psi4 1.3.2 release

  ==> Input File <==

--------------------------------------------------------------------------
#psi4
#
memory 32 gb

molecule  {
-1 1
  O        0.6232130    -0.7170940    -0.0000140
  O       -0.2658470     1.3958930    -0.0000020
  O        1.9799738    -0.1883111     0.0000102
  C       -1.7044290    -0.5379690     0.0000040
  C       -0.3632540     0.1675050    -0.0000040
  H       -1.5968530    -1.6227110     0.0000310
  H       -2.2707620    -0.2273260    -0.8817580
  H       -2.2707590    -0.2273030     0.8817680
units angstrom
no_reorient  #important for SAPT in psi4, default
symmetry c1  #important for SAPT in psi4, default
}

set PROPERTIES_ORIGIN ["COM"]
properties('MP2/aug-cc-pvtz', properties = ['dipole'])
--------------------------------------------------------------------------

    Molecular point group: c1
  Charge       = -1
  Multiplicity = 1
  Basis Set: AUG-CC-PVTZ
    Blend: AUG-CC-PVTZ
  Basis Set: (AUG-CC-PVTZ AUX)
    Blend: AUG-CC-PVTZ-JKFIT

    Orbital Energies [Eh]
    ---------------------

    Doubly Occupied:

       1A    -20.405736     2A    -20.343944     3A    -20.298644
       4A    -11.186707     5A    -11.088727     6A     -1.249104
       7A     -1.153952     8A     -0.928452     9A     -0.830738
      10A     -0.567042    11A     -0.484947    12A     -0.464547
      13A     -0.464182    14A     -0.411092    15A     -0.388734
      16A     -0.310751    17A     -0.286844    18A     -0.252497
      19A     -0.187022    20A     -0.162419

  @DF-RHF Final Energy:  -302.09143935831696

   => Energetics <=

    Nuclear Repulsion Energy =            167.7205036623272463
    One-Electron Energy =                -756.6917257713466824
    Two-Electron Energy =                 286.8797827507024749
    Total Energy =                       -302.0914393583169613
  Basis Set: (AUG-CC-PVTZ AUX)
    Blend: AUG-CC-PVTZ-RI
    Molecular point group: c1

    Geometry (in Angstrom), charge = -1, multiplicity = 1:

       Center              X                  Y                   Z               Mass
    ------------   -----------------  -----------------  -----------------  -----------------
         O            0.538063030404    -0.734507409466    -0.000013314079    15.994914619570
         O           -0.350996969596     1.378479590534    -0.000001314079    15.994914619570
         O            1.894823830404    -0.205724509466     0.000010885921    15.994914619570
         C           -1.789578969596    -0.555382409466     0.000004685921    12.000000000000
         C           -0.448403969596     0.150091590534    -0.000003314079    12.000000000000
         H           -1.682002969596    -1.640124409466     0.000031685921     1.007825032230
         H           -2.355911969596    -0.244739409466    -0.881757314079     1.007825032230
         H           -2.355908969596    -0.244716409466     0.881768685921     1.007825032230

  Basis Set: AUG-CC-PVTZ
    Blend: AUG-CC-PVTZ
  Basis Set: (AUG-CC-PVTZ AUX)
    Blend: AUG-CC-PVTZ-JKFIT
	 Reference Energy          =    -302.0914393583169613 [Eh]
	 Singles Energy            =      -0.0000000000000000 [Eh]
	 Same-Spin Energy          =      -0.2868329044781071 [Eh]
	 Opposite-Spin Energy      =      -0.8642102807417373 [Eh]
	 Correlation Energy        =      -1.1510431852198444 [Eh]
	 Total Energy              =    -303.2424825435368234 [Eh]

	 ================> DF-SCS-MP2 Energies <==================
	-----------------------------------------------------------
	 SCS Same-Spin Scale       =       0.3333333333333333 [-]
	 SCS Opposite-Spin Scale   =       1.2000000000000000 [-]
	 SCS Same-Spin Energy      =      -0.0956109681593690 [Eh]
	 SCS Opposite-Spin Energy  =      -1.0370523368900848 [Eh]
	 SCS Correlation Energy    =      -1.1326633050494539 [Eh]
	 SCS Total Energy          =    -303.2241026633664092 [Eh]
	-----------------------------------------------------------

  Dipole Moment: [D]
     X:    -6.2834      Y:    -1.6206      Z:    -0.0000     Total:     6.4890

*** Psi4 exiting successfully. Buy a developer a beer!
