                               Psi4 1.3.2 release

  ==> Input File <==

--------------------------------------------------------------------------
#psi4
#
memory 32 gb

molecule  {
-1 1
  O        0.5591035    -0.7837516    -0.0000136
  O       -0.2658470     1.3958930    -0.0000020
  O        1.9606930    -0.1412830     0.0000110
  C       -1.7044290    -0.5379690     0.0000040
  C       -0.3632540     0.1675050    -0.0000040
  H       -1.5968530    -1.6227110     0.0000310
  H       -2.2707620    -0.2273260    -0.8817580
  H       -2.2707590    -0.2273030     0.8817680
units angstrom
no_reorient  #important for SAPT in psi4, default
symmetry c1  #important for SAPT in psi4, default
}

set PROPERTIES_ORIGIN ["COM"]
properties('MP2/aug-cc-pvtz', properties = ['dipole'])
--------------------------------------------------------------------------

    Molecular point group: c1
  Charge       = -1
  Multiplicity = 1
  Basis Set: AUG-CC-PVTZ
    Blend: AUG-CC-PVTZ
  Basis Set: (AUG-CC-PVTZ AUX)
    Blend: AUG-CC-PVTZ-JKFIT

    Orbital Energies [Eh]
    ---------------------

    Doubly Occupied:

       1A    -20.400729     2A    -20.345605     3A    -20.313343
       4A    -11.185850     5A    -11.080643     6A     -1.235430
       7A     -1.148116     8A     -0.928267     9A     -0.826022
      10A     -0.567353    11A     -0.477166    12A     -0.461901
      13A     -0.459488    14A     -0.408570    15A     -0.379235
      16A     -0.293602    17A     -0.282683    18A     -0.247031
      19A     -0.202749    20A     -0.181275

  @DF-RHF Final Energy:  -302.08469157649023

   => Energetics <=

    Nuclear Repulsion Energy =            166.9186437452492271
    One-Electron Energy =                -755.1565519967869022
    Two-Electron Energy =                 286.1532166750474175
    Total Energy =                       -302.0846915764902292
  Basis Set: (AUG-CC-PVTZ AUX)
    Blend: AUG-CC-PVTZ-RI
    Molecular point group: c1

    Geometry (in Angstrom), charge = -1, multiplicity = 1:

       Center              X                  Y                   Z               Mass
    ------------   -----------------  -----------------  -----------------  -----------------
         O            0.491735858089    -0.796979172488    -0.000013169970    15.994914619570
         O           -0.333214641911     1.382665427512    -0.000001569970    15.994914619570
         O            1.893325358089    -0.154510572488     0.000011430030    15.994914619570
         C           -1.771796641911    -0.551196572488     0.000004430030    12.000000000000
         C           -0.430621641911     0.154277427512    -0.000003569970    12.000000000000
         H           -1.664220641911    -1.635938572488     0.000031430030     1.007825032230
         H           -2.338129641911    -0.240553572488    -0.881757569970     1.007825032230
         H           -2.338126641911    -0.240530572488     0.881768430030     1.007825032230

  Basis Set: AUG-CC-PVTZ
    Blend: AUG-CC-PVTZ
  Basis Set: (AUG-CC-PVTZ AUX)
    Blend: AUG-CC-PVTZ-JKFIT
	 Reference Energy          =    -302.0846915764902292 [Eh]
	 Singles Energy            =      -0.0000000000000000 [Eh]
	 Same-Spin Energy          =      -0.2861846145701135 [Eh]
	 Opposite-Spin Energy      =      -0.8657274203886778 [Eh]
	 Correlation Energy        =      -1.1519120349587912 [Eh]
	 Total Energy              =    -303.2366036114490271 [Eh]

	 ================> DF-SCS-MP2 Energies <==================
	-----------------------------------------------------------
	 SCS Same-Spin Scale       =       0.3333333333333333 [-]
	 SCS Opposite-Spin Scale   =       1.2000000000000000 [-]
	 SCS Same-Spin Energy      =      -0.0953948715233711 [Eh]
	 SCS Opposite-Spin Energy  =      -1.0388729044664133 [Eh]
	 SCS Correlation Energy    =      -1.1342677759897846 [Eh]
	 SCS Total Energy          =    -303.2189593524799989 [Eh]
	-----------------------------------------------------------

  Dipole Moment: [D]
     X:    -6.2496      Y:    -1.5405      Z:    -0.0000     Total:     6.4366

*** Psi4 exiting successfully. Buy a developer a beer!
