                               Psi4 1.4a3.dev225

  ==> Input File <==

--------------------------------------------------------------------------
#psi4
#
memory 32 gb

molecule  {
-1 1
  O        0.6232130    -0.7170940    -0.0000140
  O       -0.2658470     1.3958930    -0.0000020
  O        2.0066178    -0.1215115     0.0000119
  C       -1.7044290    -0.5379690     0.0000040
  C       -0.3632540     0.1675050    -0.0000040
  H       -1.5968530    -1.6227110     0.0000310
  H       -2.2707620    -0.2273260    -0.8817580
  H       -2.2707590    -0.2273030     0.8817680
units angstrom
no_reorient  #important for SAPT in psi4, default
symmetry c1  #important for SAPT in psi4, default
}

set PROPERTIES_ORIGIN ["COM"]
properties('MP2/aug-cc-pvtz', properties = ['dipole'])
--------------------------------------------------------------------------

    Molecular point group: c1
  Charge       = -1
  Multiplicity = 1
  Basis Set: AUG-CC-PVTZ
    Blend: AUG-CC-PVTZ
  Basis Set: (AUG-CC-PVTZ AUX)
    Blend: AUG-CC-PVTZ-JKFIT

    Orbital Energies [Eh]
    ---------------------

    Doubly Occupied:

       1A    -20.400203     2A    -20.342521     3A    -20.308111
       4A    -11.185629     5A    -11.087477     6A     -1.238973
       7A     -1.146964     8A     -0.927421     9A     -0.831696
      10A     -0.566114    11A     -0.481008    12A     -0.462587
      13A     -0.462017    14A     -0.409206    15A     -0.383501
      16A     -0.300532    17A     -0.282410    18A     -0.249948
      19A     -0.195961    20A     -0.172960

  @DF-RHF Final Energy:  -302.08967429574761

   => Energetics <=

    Nuclear Repulsion Energy =            166.8544377373767702
    One-Electron Energy =                -755.0177469063299895
    Two-Electron Energy =                 286.0736348732056058
    Total Energy =                       -302.0896742957476135
  Basis Set: (AUG-CC-PVTZ AUX)
    Blend: AUG-CC-PVTZ-RI
    Molecular point group: c1

    Geometry (in Angstrom), charge = -1, multiplicity = 1:

       Center              X                  Y                   Z               Mass
    ------------   -----------------  -----------------  -----------------  -----------------
         O            0.532381406295    -0.748751900450    -0.000013676591    15.994914619570
         O           -0.356678593705     1.364235099550    -0.000001676591    15.994914619570
         O            1.915786206295    -0.153169400450     0.000012223409    15.994914619570
         C           -1.795260593705    -0.569626900450     0.000004323409    12.000000000000
         C           -0.454085593705     0.135847099550    -0.000003676591    12.000000000000
         H           -1.687684593705    -1.654368900450     0.000031323409     1.007825032230
         H           -2.361593593705    -0.258983900450    -0.881757676591     1.007825032230
         H           -2.361590593705    -0.258960900450     0.881768323409     1.007825032230

  Basis Set: AUG-CC-PVTZ
    Blend: AUG-CC-PVTZ
  Basis Set: (AUG-CC-PVTZ AUX)
    Blend: AUG-CC-PVTZ-JKFIT
	 Reference Energy          =    -302.0896742957476135 [Eh]
	 Singles Energy            =      -0.0000000000000000 [Eh]
	 Same-Spin Energy          =      -0.2860602115815749 [Eh]
	 Opposite-Spin Energy      =      -0.8643473356605862 [Eh]
	 Correlation Energy        =      -1.1504075472421611 [Eh]
	 Total Energy              =    -303.2400818429897527 [Eh]

	 ================> DF-SCS-MP2 Energies <==================
	-----------------------------------------------------------
	 SCS Same-Spin Scale       =       0.3333333333333333 [-]
	 SCS Opposite-Spin Scale   =       1.2000000000000000 [-]
	 SCS Same-Spin Energy      =      -0.0953534038605250 [Eh]
	 SCS Opposite-Spin Energy  =      -1.0372168027927033 [Eh]
	 SCS Correlation Energy    =      -1.1325702066532284 [Eh]
	 SCS Total Energy          =    -303.2222445024008266 [Eh]
	-----------------------------------------------------------

  Dipole Moment: [D]
     X:    -6.3663      Y:    -1.6687      Z:    -0.0000     Total:     6.5814

*** Psi4 exiting successfully. Buy a developer a beer!
