                               Psi4 1.3.2 release

  ==> Input File <==

--------------------------------------------------------------------------
#psi4
#
memory 32 gb

molecule  {
-1 1
  O        0.6232130    -0.7170940    -0.0000140
  O       -0.2658470     1.3958930    -0.0000020
  O        1.9606930    -0.1412830     0.0000110
  C       -1.7044290    -0.5379690     0.0000040
  C       -0.3698762     0.1795983    -0.0225743
  H       -1.5968530    -1.6227110     0.0000310
  H       -2.2707620    -0.2273260    -0.8817580
  H       -2.2707590    -0.2273030     0.8817680
units angstrom
no_reorient  #important for SAPT in psi4, default
symmetry c1  #important for SAPT in psi4, default
}

set PROPERTIES_ORIGIN ["COM"]
properties('MP2/aug-cc-pvtz', properties = ['dipole'])
--------------------------------------------------------------------------

    Molecular point group: c1
  Charge       = -1
  Multiplicity = 1
  Basis Set: AUG-CC-PVTZ
    Blend: AUG-CC-PVTZ
  Basis Set: (AUG-CC-PVTZ AUX)
    Blend: AUG-CC-PVTZ-JKFIT

    Orbital Energies [Eh]
    ---------------------

    Doubly Occupied:

       1A    -20.403299     2A    -20.346733     3A    -20.294499
       4A    -11.185835     5A    -11.088503     6A     -1.247163
       7A     -1.158640     8A     -0.923116     9A     -0.829553
      10A     -0.566939    11A     -0.484852    12A     -0.464751
      13A     -0.463657    14A     -0.412461    15A     -0.387161
      16A     -0.308984    17A     -0.289624    18A     -0.253323
      19A     -0.183803    20A     -0.159008

  @DF-RHF Final Energy:  -302.09054513090621

   => Energetics <=

    Nuclear Repulsion Energy =            168.0319381324767107
    One-Electron Energy =                -757.3411618347955709
    Two-Electron Energy =                 287.2186785714126245
    Total Energy =                       -302.0905451309062073
  Basis Set: (AUG-CC-PVTZ AUX)
    Blend: AUG-CC-PVTZ-RI
    Molecular point group: c1

    Geometry (in Angstrom), charge = -1, multiplicity = 1:

       Center              X                  Y                   Z               Mass
    ------------   -----------------  -----------------  -----------------  -----------------
         O            0.543233945741    -0.746470499068     0.003597367628    15.994914619570
         O           -0.345826054259     1.366516500932     0.003609367628    15.994914619570
         O            1.880713945741    -0.170659499068     0.003622367628    15.994914619570
         C           -1.784408054259    -0.567345499068     0.003615367628    12.000000000000
         C           -0.449855254259     0.150221800932    -0.018962932372    12.000000000000
         H           -1.676832054259    -1.652087499068     0.003642367628     1.007825032230
         H           -2.350741054259    -0.256702499068    -0.878146632372     1.007825032230
         H           -2.350738054259    -0.256679499068     0.885379367628     1.007825032230

  Basis Set: AUG-CC-PVTZ
    Blend: AUG-CC-PVTZ
  Basis Set: (AUG-CC-PVTZ AUX)
    Blend: AUG-CC-PVTZ-JKFIT
	 Reference Energy          =    -302.0905451309062073 [Eh]
	 Singles Energy            =      -0.0000000000000000 [Eh]
	 Same-Spin Energy          =      -0.2870577454437884 [Eh]
	 Opposite-Spin Energy      =      -0.8646299878218919 [Eh]
	 Correlation Energy        =      -1.1516877332656803 [Eh]
	 Total Energy              =    -303.2422328641719105 [Eh]

	 ================> DF-SCS-MP2 Energies <==================
	-----------------------------------------------------------
	 SCS Same-Spin Scale       =       0.3333333333333333 [-]
	 SCS Opposite-Spin Scale   =       1.2000000000000000 [-]
	 SCS Same-Spin Energy      =      -0.0956859151479295 [Eh]
	 SCS Opposite-Spin Energy  =      -1.0375559853862704 [Eh]
	 SCS Correlation Energy    =      -1.1332419005341998 [Eh]
	 SCS Total Energy          =    -303.2237870314403949 [Eh]
	-----------------------------------------------------------

  Dipole Moment: [D]
     X:    -6.3453      Y:    -1.5799      Z:    -0.0308     Total:     6.5391

*** Psi4 exiting successfully. Buy a developer a beer!
