                               Psi4 1.3.2 release

  ==> Input File <==

--------------------------------------------------------------------------
#psi4
#
memory 32 gb

molecule  {
-1 1
  O        0.6232130    -0.7170940    -0.0000140
  O       -0.3517723     1.3996955    -0.0000014
  O        1.9606930    -0.1412830     0.0000110
  C       -1.7044290    -0.5379690     0.0000040
  C       -0.3632540     0.1675050    -0.0000040
  H       -1.5968530    -1.6227110     0.0000310
  H       -2.2707620    -0.2273260    -0.8817580
  H       -2.2707590    -0.2273030     0.8817680
units angstrom
no_reorient  #important for SAPT in psi4, default
symmetry c1  #important for SAPT in psi4, default
}

set PROPERTIES_ORIGIN ["COM"]
properties('MP2/aug-cc-pvtz', properties = ['dipole'])
--------------------------------------------------------------------------

    Molecular point group: c1
  Charge       = -1
  Multiplicity = 1
  Basis Set: AUG-CC-PVTZ
    Blend: AUG-CC-PVTZ
  Basis Set: (AUG-CC-PVTZ AUX)
    Blend: AUG-CC-PVTZ-JKFIT

    Orbital Energies [Eh]
    ---------------------

    Doubly Occupied:

       1A    -20.411368     2A    -20.345872     3A    -20.299979
       4A    -11.187856     5A    -11.083724     6A     -1.251113
       7A     -1.159652     8A     -0.929127     9A     -0.827009
      10A     -0.568787    11A     -0.486142    12A     -0.464040
      13A     -0.462936    14A     -0.410583    15A     -0.388698
      16A     -0.313511    17A     -0.289632    18A     -0.251241
      19A     -0.189752    20A     -0.165230

  @DF-RHF Final Energy:  -302.09109203076764

   => Energetics <=

    Nuclear Repulsion Energy =            167.7884805982973546
    One-Electron Energy =                -756.7866416702968309
    Two-Electron Energy =                 286.9070690412318072
    Total Energy =                       -302.0910920307676406
  Basis Set: (AUG-CC-PVTZ AUX)
    Blend: AUG-CC-PVTZ-RI
    Molecular point group: c1

    Geometry (in Angstrom), charge = -1, multiplicity = 1:

       Center              X                  Y                   Z               Mass
    ------------   -----------------  -----------------  -----------------  -----------------
         O            0.560497406401    -0.745346636398    -0.000013612618    15.994914619570
         O           -0.414487893599     1.371442863602    -0.000001012618    15.994914619570
         O            1.897977406401    -0.169535636398     0.000011387382    15.994914619570
         C           -1.767144593599    -0.566221636398     0.000004387382    12.000000000000
         C           -0.425969593599     0.139252363602    -0.000003612618    12.000000000000
         H           -1.659568593599    -1.650963636398     0.000031387382     1.007825032230
         H           -2.333477593599    -0.255578636398    -0.881757612618     1.007825032230
         H           -2.333474593599    -0.255555636398     0.881768387382     1.007825032230

  Basis Set: AUG-CC-PVTZ
    Blend: AUG-CC-PVTZ
  Basis Set: (AUG-CC-PVTZ AUX)
    Blend: AUG-CC-PVTZ-JKFIT
	 Reference Energy          =    -302.0910920307676406 [Eh]
	 Singles Energy            =      -0.0000000000000000 [Eh]
	 Same-Spin Energy          =      -0.2868029435739026 [Eh]
	 Opposite-Spin Energy      =      -0.8643369707011186 [Eh]
	 Correlation Energy        =      -1.1511399142750212 [Eh]
	 Total Energy              =    -303.2422319450426471 [Eh]

	 ================> DF-SCS-MP2 Energies <==================
	-----------------------------------------------------------
	 SCS Same-Spin Scale       =       0.3333333333333333 [-]
	 SCS Opposite-Spin Scale   =       1.2000000000000000 [-]
	 SCS Same-Spin Energy      =      -0.0956009811913009 [Eh]
	 SCS Opposite-Spin Energy  =      -1.0372043648413423 [Eh]
	 SCS Correlation Energy    =      -1.1328053460326430 [Eh]
	 SCS Total Energy          =    -303.2238973768002666 [Eh]
	-----------------------------------------------------------

  Dipole Moment: [D]
     X:    -6.0898      Y:    -1.6767      Z:    -0.0000     Total:     6.3164

*** Psi4 exiting successfully. Buy a developer a beer!
