                               Psi4 1.3.2 release

  ==> Input File <==

--------------------------------------------------------------------------
#psi4
#
memory 32 gb

molecule  {
-1 1
  O        0.6232130    -0.7170940    -0.0000140
  O       -0.2658470     1.3958930    -0.0000020
  O        1.9606930    -0.1412830     0.0000110
  C       -1.7044290    -0.5379690     0.0000040
  C       -0.3553492     0.2671921    -0.0000038
  H       -1.5968530    -1.6227110     0.0000310
  H       -2.2707620    -0.2273260    -0.8817580
  H       -2.2707590    -0.2273030     0.8817680
units angstrom
no_reorient  #important for SAPT in psi4, default
symmetry c1  #important for SAPT in psi4, default
}

set PROPERTIES_ORIGIN ["COM"]
properties('MP2/aug-cc-pvtz', properties = ['dipole'])
--------------------------------------------------------------------------

    Molecular point group: c1
  Charge       = -1
  Multiplicity = 1
  Basis Set: AUG-CC-PVTZ
    Blend: AUG-CC-PVTZ
  Basis Set: (AUG-CC-PVTZ AUX)
    Blend: AUG-CC-PVTZ-JKFIT

    Orbital Energies [Eh]
    ---------------------

    Doubly Occupied:

       1A    -20.390204     2A    -20.366868     3A    -20.283466
       4A    -11.182219     5A    -11.083990     6A     -1.280291
       7A     -1.177989     8A     -0.903253     9A     -0.814168
      10A     -0.566343    11A     -0.491955    12A     -0.474842
      13A     -0.466179    14A     -0.417620    15A     -0.389044
      16A     -0.314448    17A     -0.304458    18A     -0.251854
      19A     -0.171671    20A     -0.148278

  @DF-RHF Final Energy:  -302.07728080003665

   => Energetics <=

    Nuclear Repulsion Energy =            168.4450716327878297
    One-Electron Energy =                -758.0864265053987765
    Two-Electron Energy =                 287.5640740725742717
    Total Energy =                       -302.0772808000366467
  Basis Set: (AUG-CC-PVTZ AUX)
    Blend: AUG-CC-PVTZ-RI
    Molecular point group: c1

    Geometry (in Angstrom), charge = -1, multiplicity = 1:

       Center              X                  Y                   Z               Mass
    ------------   -----------------  -----------------  -----------------  -----------------
         O            0.540909880426    -0.760483971386    -0.000013516670    15.994914619570
         O           -0.348150119574     1.352503028614    -0.000001516670    15.994914619570
         O            1.878389880426    -0.184672971386     0.000011483330    15.994914619570
         C           -1.786732119574    -0.581358971386     0.000004483330    12.000000000000
         C           -0.437652319574     0.223802128614    -0.000003316670    12.000000000000
         H           -1.679156119574    -1.666100971386     0.000031483330     1.007825032230
         H           -2.353065119574    -0.270715971386    -0.881757516670     1.007825032230
         H           -2.353062119574    -0.270692971386     0.881768483330     1.007825032230

  Basis Set: AUG-CC-PVTZ
    Blend: AUG-CC-PVTZ
  Basis Set: (AUG-CC-PVTZ AUX)
    Blend: AUG-CC-PVTZ-JKFIT
	 Reference Energy          =    -302.0772808000366467 [Eh]
	 Singles Energy            =      -0.0000000000000000 [Eh]
	 Same-Spin Energy          =      -0.2863430860378376 [Eh]
	 Opposite-Spin Energy      =      -0.8634752031554798 [Eh]
	 Correlation Energy        =      -1.1498182891933175 [Eh]
	 Total Energy              =    -303.2270990892299665 [Eh]

	 ================> DF-SCS-MP2 Energies <==================
	-----------------------------------------------------------
	 SCS Same-Spin Scale       =       0.3333333333333333 [-]
	 SCS Opposite-Spin Scale   =       1.2000000000000000 [-]
	 SCS Same-Spin Energy      =      -0.0954476953459459 [Eh]
	 SCS Opposite-Spin Energy  =      -1.0361702437865756 [Eh]
	 SCS Correlation Energy    =      -1.1316179391325214 [Eh]
	 SCS Total Energy          =    -303.2088987391691717 [Eh]
	-----------------------------------------------------------

  Dipole Moment: [D]
     X:    -6.5581      Y:    -0.7522      Z:    -0.0000     Total:     6.6011

*** Psi4 exiting successfully. Buy a developer a beer!
