                               Psi4 1.3.2 release

  ==> Input File <==

--------------------------------------------------------------------------
#psi4
#
memory 32 gb

molecule  {
-1 1
  O        0.6232130    -0.7170940    -0.0000140
  O       -0.2658470     1.3958930    -0.0000020
  O        1.9705386    -0.1647129     0.0000106
  C       -1.7044290    -0.5379690     0.0000040
  C       -0.3632540     0.1675050    -0.0000040
  H       -1.5968530    -1.6227110     0.0000310
  H       -2.2707620    -0.2273260    -0.8817580
  H       -2.2707590    -0.2273030     0.8817680
units angstrom
no_reorient  #important for SAPT in psi4, default
symmetry c1  #important for SAPT in psi4, default
}

set PROPERTIES_ORIGIN ["COM"]
properties('MP2/aug-cc-pvtz', properties = ['dipole'])
--------------------------------------------------------------------------

    Molecular point group: c1
  Charge       = -1
  Multiplicity = 1
  Basis Set: AUG-CC-PVTZ
    Blend: AUG-CC-PVTZ
  Basis Set: (AUG-CC-PVTZ AUX)
    Blend: AUG-CC-PVTZ-JKFIT

    Orbital Energies [Eh]
    ---------------------

    Doubly Occupied:

       1A    -20.406048     2A    -20.343671     3A    -20.297776
       4A    -11.186298     5A    -11.088501     6A     -1.249489
       7A     -1.153625     8A     -0.927697     9A     -0.830381
      10A     -0.567162    11A     -0.485056    12A     -0.464438
      13A     -0.463878    14A     -0.410928    15A     -0.388772
      16A     -0.310572    17A     -0.286313    18A     -0.251935
      19A     -0.186823    20A     -0.162081

  @DF-RHF Final Energy:  -302.09138547041493

   => Energetics <=

    Nuclear Repulsion Energy =            167.8918651528497890
    One-Electron Energy =                -757.0436152702782238
    Two-Electron Energy =                 287.0603646470135573
    Total Energy =                       -302.0913854704149344
  Basis Set: (AUG-CC-PVTZ AUX)
    Blend: AUG-CC-PVTZ-RI
    Molecular point group: c1

    Geometry (in Angstrom), charge = -1, multiplicity = 1:

       Center              X                  Y                   Z               Mass
    ------------   -----------------  -----------------  -----------------  -----------------
         O            0.540075012831    -0.739539540603    -0.000013399376    15.994914619570
         O           -0.348984987169     1.373447459397    -0.000001399376    15.994914619570
         O            1.887400612831    -0.187158440603     0.000011200624    15.994914619570
         C           -1.787566987169    -0.560414540603     0.000004600624    12.000000000000
         C           -0.446391987169     0.145059459397    -0.000003399376    12.000000000000
         H           -1.679990987169    -1.645156540603     0.000031600624     1.007825032230
         H           -2.353899987169    -0.249771540603    -0.881757399376     1.007825032230
         H           -2.353896987169    -0.249748540603     0.881768600624     1.007825032230

  Basis Set: AUG-CC-PVTZ
    Blend: AUG-CC-PVTZ
  Basis Set: (AUG-CC-PVTZ AUX)
    Blend: AUG-CC-PVTZ-JKFIT
	 Reference Energy          =    -302.0913854704149344 [Eh]
	 Singles Energy            =      -0.0000000000000000 [Eh]
	 Same-Spin Energy          =      -0.2868957607230737 [Eh]
	 Opposite-Spin Energy      =      -0.8643102230381683 [Eh]
	 Correlation Energy        =      -1.1512059837612418 [Eh]
	 Total Energy              =    -303.2425914541761927 [Eh]

	 ================> DF-SCS-MP2 Energies <==================
	-----------------------------------------------------------
	 SCS Same-Spin Scale       =       0.3333333333333333 [-]
	 SCS Opposite-Spin Scale   =       1.2000000000000000 [-]
	 SCS Same-Spin Energy      =      -0.0956319202410245 [Eh]
	 SCS Opposite-Spin Energy  =      -1.0371722676458019 [Eh]
	 SCS Correlation Energy    =      -1.1328041878868265 [Eh]
	 SCS Total Energy          =    -303.2241896583017819 [Eh]
	-----------------------------------------------------------

  Dipole Moment: [D]
     X:    -6.2690      Y:    -1.6560      Z:    -0.0000     Total:     6.4840

*** Psi4 exiting successfully. Buy a developer a beer!
