                               Psi4 1.3.2 release

  ==> Input File <==

--------------------------------------------------------------------------
#psi4
#
memory 32 gb

molecule  {
-1 1
  O        0.6232130    -0.7170940    -0.0000140
  O       -0.2658470     1.3958930    -0.0000020
  O        1.9606930    -0.1412830     0.0000110
  C       -1.7044290    -0.5379690     0.0000040
  C       -0.3474443     0.3668792    -0.0000037
  H       -1.5968530    -1.6227110     0.0000310
  H       -2.2707620    -0.2273260    -0.8817580
  H       -2.2707590    -0.2273030     0.8817680
units angstrom
no_reorient  #important for SAPT in psi4, default
symmetry c1  #important for SAPT in psi4, default
}

set PROPERTIES_ORIGIN ["COM"]
properties('MP2/aug-cc-pvtz', properties = ['dipole'])
--------------------------------------------------------------------------

    Molecular point group: c1
  Charge       = -1
  Multiplicity = 1
  Basis Set: AUG-CC-PVTZ
    Blend: AUG-CC-PVTZ
  Basis Set: (AUG-CC-PVTZ AUX)
    Blend: AUG-CC-PVTZ-JKFIT

    Orbital Energies [Eh]
    ---------------------

    Doubly Occupied:

       1A    -20.390800     2A    -20.374265     3A    -20.271563
       4A    -11.176788     5A    -11.077908     6A     -1.366680
       7A     -1.160486     8A     -0.879558     9A     -0.799392
      10A     -0.579792    11A     -0.521529    12A     -0.493827
      13A     -0.484825    14A     -0.412930    15A     -0.398907
      16A     -0.321356    17A     -0.299942    18A     -0.236148
      19A     -0.154600    20A     -0.135317

  @DF-RHF Final Energy:  -302.01086185597626

   => Energetics <=

    Nuclear Repulsion Energy =            169.1806823092248351
    One-Electron Energy =                -759.3098603046827293
    Two-Electron Energy =                 288.1183161394816352
    Total Energy =                       -302.0108618559762590
  Basis Set: (AUG-CC-PVTZ AUX)
    Blend: AUG-CC-PVTZ-RI
    Molecular point group: c1

    Geometry (in Angstrom), charge = -1, multiplicity = 1:

       Center              X                  Y                   Z               Mass
    ------------   -----------------  -----------------  -----------------  -----------------
         O            0.539645235013    -0.776432159687    -0.000013532668    15.994914619570
         O           -0.349414764987     1.336554840313    -0.000001532668    15.994914619570
         O            1.877125235013    -0.200621159687     0.000011467332    15.994914619570
         C           -1.787996764987    -0.597307159687     0.000004467332    12.000000000000
         C           -0.431012064987     0.307541040313    -0.000003232668    12.000000000000
         H           -1.680420764987    -1.682049159687     0.000031467332     1.007825032230
         H           -2.354329764987    -0.286664159687    -0.881757532668     1.007825032230
         H           -2.354326764987    -0.286641159687     0.881768467332     1.007825032230

  Basis Set: AUG-CC-PVTZ
    Blend: AUG-CC-PVTZ
  Basis Set: (AUG-CC-PVTZ AUX)
    Blend: AUG-CC-PVTZ-JKFIT
	 Reference Energy          =    -302.0108618559762590 [Eh]
	 Singles Energy            =      -0.0000000000000000 [Eh]
	 Same-Spin Energy          =      -0.2859716274981506 [Eh]
	 Opposite-Spin Energy      =      -0.8629772990414186 [Eh]
	 Correlation Energy        =      -1.1489489265395694 [Eh]
	 Total Energy              =    -303.1598107825158195 [Eh]

	 ================> DF-SCS-MP2 Energies <==================
	-----------------------------------------------------------
	 SCS Same-Spin Scale       =       0.3333333333333333 [-]
	 SCS Opposite-Spin Scale   =       1.2000000000000000 [-]
	 SCS Same-Spin Energy      =      -0.0953238758327169 [Eh]
	 SCS Opposite-Spin Energy  =      -1.0355727588497023 [Eh]
	 SCS Correlation Energy    =      -1.1308966346824192 [Eh]
	 SCS Total Energy          =    -303.1417584906586740 [Eh]
	-----------------------------------------------------------

  Dipole Moment: [D]
     X:    -6.7875      Y:     0.2789      Z:    -0.0000     Total:     6.7933

*** Psi4 exiting successfully. Buy a developer a beer!
