                               Psi4 1.4a3.dev225

  ==> Input File <==

--------------------------------------------------------------------------
#psi4
#
memory 32 gb

molecule  {
-1 1
  O        0.6232130    -0.7170940    -0.0000140
  O       -0.2658470     1.3958930    -0.0000020
  O        1.9606930    -0.1412830     0.0000110
  C       -1.7044290    -0.5379690     0.0000040
  C       -0.3616730     0.1874424    -0.0000040
  H       -1.5968530    -1.6227110     0.0000310
  H       -2.2707620    -0.2273260    -0.8817580
  H       -2.2707590    -0.2273030     0.8817680
units angstrom
no_reorient  #important for SAPT in psi4, default
symmetry c1  #important for SAPT in psi4, default
}

set PROPERTIES_ORIGIN ["COM"]
properties('MP2/aug-cc-pvtz', properties = ['dipole'])
--------------------------------------------------------------------------

    Molecular point group: c1
  Charge       = -1
  Multiplicity = 1
  Basis Set: AUG-CC-PVTZ
    Blend: AUG-CC-PVTZ
  Basis Set: (AUG-CC-PVTZ AUX)
    Blend: AUG-CC-PVTZ-JKFIT

    Orbital Energies [Eh]
    ---------------------

    Doubly Occupied:

       1A    -20.403101     2A    -20.348066     3A    -20.294115
       4A    -11.185359     5A    -11.087543     6A     -1.249398
       7A     -1.163560     8A     -0.922257     9A     -0.826774
      10A     -0.566384    11A     -0.485214    12A     -0.464444
      13A     -0.463666    14A     -0.413702    15A     -0.387797
      16A     -0.308853    17A     -0.292532    18A     -0.253147
      19A     -0.183750    20A     -0.159054

  @DF-RHF Final Energy:  -302.09149053314121

   => Energetics <=

    Nuclear Repulsion Energy =            168.1197734286468517
    One-Electron Energy =                -757.5050979256823211
    Two-Electron Energy =                 287.2938339638943148
    Total Energy =                       -302.0914905331412115
  Basis Set: (AUG-CC-PVTZ AUX)
    Blend: AUG-CC-PVTZ-RI
    Molecular point group: c1

    Geometry (in Angstrom), charge = -1, multiplicity = 1:

       Center              X                  Y                   Z               Mass
    ------------   -----------------  -----------------  -----------------  -----------------
         O            0.541921577558    -0.747725417546    -0.000013484673    15.994914619570
         O           -0.347138422442     1.365261582454    -0.000001484673    15.994914619570
         O            1.879401577558    -0.171914417546     0.000011515327    15.994914619570
         C           -1.785720422442    -0.568600417546     0.000004515327    12.000000000000
         C           -0.442964422442     0.156810982454    -0.000003484673    12.000000000000
         H           -1.678144422442    -1.653342417546     0.000031515327     1.007825032230
         H           -2.352053422442    -0.257957417546    -0.881757484673     1.007825032230
         H           -2.352050422442    -0.257934417546     0.881768515327     1.007825032230

  Basis Set: AUG-CC-PVTZ
    Blend: AUG-CC-PVTZ
  Basis Set: (AUG-CC-PVTZ AUX)
    Blend: AUG-CC-PVTZ-JKFIT
	 Reference Energy          =    -302.0914905331412115 [Eh]
	 Singles Energy            =      -0.0000000000000000 [Eh]
	 Same-Spin Energy          =      -0.2868264922373041 [Eh]
	 Opposite-Spin Energy      =      -0.8642010171973376 [Eh]
	 Correlation Energy        =      -1.1510275094346416 [Eh]
	 Total Energy              =    -303.2425180425758526 [Eh]

	 ================> DF-SCS-MP2 Energies <==================
	-----------------------------------------------------------
	 SCS Same-Spin Scale       =       0.3333333333333333 [-]
	 SCS Opposite-Spin Scale   =       1.2000000000000000 [-]
	 SCS Same-Spin Energy      =      -0.0956088307457680 [Eh]
	 SCS Opposite-Spin Energy  =      -1.0370412206368049 [Eh]
	 SCS Correlation Energy    =      -1.1326500513825730 [Eh]
	 SCS Total Energy          =    -303.2241405845238091 [Eh]
	-----------------------------------------------------------

  Dipole Moment: [D]
     X:    -6.3180      Y:    -1.5115      Z:    -0.0000     Total:     6.4963

*** Psi4 exiting successfully. Buy a developer a beer!
