                               Psi4 1.3.2 release

  ==> Input File <==

--------------------------------------------------------------------------
#psi4
#
memory 32 gb

molecule  {
-1 1
  O        0.6232130    -0.7170940    -0.0000140
  O       -0.2658470     1.3958930    -0.0000020
  O        1.9606930    -0.1412830     0.0000110
  C       -1.7044290    -0.5379690     0.0000040
  C       -0.3321622     0.0905657     0.1351772
  H       -1.5968530    -1.6227110     0.0000310
  H       -2.2707620    -0.2273260    -0.8817580
  H       -2.2707590    -0.2273030     0.8817680
units angstrom
no_reorient  #important for SAPT in psi4, default
symmetry c1  #important for SAPT in psi4, default
}

set PROPERTIES_ORIGIN ["COM"]
properties('MP2/aug-cc-pvtz', properties = ['dipole'])
--------------------------------------------------------------------------

    Molecular point group: c1
  Charge       = -1
  Multiplicity = 1
  Basis Set: AUG-CC-PVTZ
    Blend: AUG-CC-PVTZ
  Basis Set: (AUG-CC-PVTZ AUX)
    Blend: AUG-CC-PVTZ-JKFIT

    Orbital Energies [Eh]
    ---------------------

    Doubly Occupied:

       1A    -20.424321     2A    -20.324633     3A    -20.311287
       4A    -11.187735     5A    -11.088887     6A     -1.278212
       7A     -1.103659     8A     -0.948763     9A     -0.832486
      10A     -0.573360    11A     -0.490677    12A     -0.466657
      13A     -0.462491    14A     -0.400203    15A     -0.395918
      16A     -0.310809    17A     -0.258550    18A     -0.235836
      19A     -0.201318    20A     -0.175910

  @DF-RHF Final Energy:  -302.07144380580309

   => Energetics <=

    Nuclear Repulsion Energy =            167.9738021090244047
    One-Electron Energy =                -757.1470685393124995
    Two-Electron Energy =                 287.1018226244850098
    Total Energy =                       -302.0714438058030851
  Basis Set: (AUG-CC-PVTZ AUX)
    Blend: AUG-CC-PVTZ-RI
    Molecular point group: c1

    Geometry (in Angstrom), charge = -1, multiplicity = 1:

       Center              X                  Y                   Z               Mass
    ------------   -----------------  -----------------  -----------------  -----------------
         O            0.537200366937    -0.732226843974    -0.021640106697    15.994914619570
         O           -0.351859633063     1.380760156026    -0.021628106697    15.994914619570
         O            1.874680366937    -0.156415843974    -0.021615106697    15.994914619570
         C           -1.790441633063    -0.553101843974    -0.021622106697    12.000000000000
         C           -0.418174833063     0.075432856026     0.113551093303    12.000000000000
         H           -1.682865633063    -1.637843843974    -0.021595106697     1.007825032230
         H           -2.356774633063    -0.242458843974    -0.903384106697     1.007825032230
         H           -2.356771633063    -0.242435843974     0.860141893303     1.007825032230

  Basis Set: AUG-CC-PVTZ
    Blend: AUG-CC-PVTZ
  Basis Set: (AUG-CC-PVTZ AUX)
    Blend: AUG-CC-PVTZ-JKFIT
	 Reference Energy          =    -302.0714438058030851 [Eh]
	 Singles Energy            =      -0.0000000000000000 [Eh]
	 Same-Spin Energy          =      -0.2873911797729166 [Eh]
	 Opposite-Spin Energy      =      -0.8655493324945420 [Eh]
	 Correlation Energy        =      -1.1529405122674585 [Eh]
	 Total Energy              =    -303.2243843180705198 [Eh]

	 ================> DF-SCS-MP2 Energies <==================
	-----------------------------------------------------------
	 SCS Same-Spin Scale       =       0.3333333333333333 [-]
	 SCS Opposite-Spin Scale   =       1.2000000000000000 [-]
	 SCS Same-Spin Energy      =      -0.0957970599243055 [Eh]
	 SCS Opposite-Spin Energy  =      -1.0386591989934504 [Eh]
	 SCS Correlation Energy    =      -1.1344562589177558 [Eh]
	 SCS Total Energy          =    -303.2059000647208222 [Eh]
	-----------------------------------------------------------

  Dipole Moment: [D]
     X:    -5.7193      Y:    -2.3550      Z:     0.1517     Total:     6.1871

*** Psi4 exiting successfully. Buy a developer a beer!
