                               Psi4 1.4a3.dev225

  ==> Input File <==

--------------------------------------------------------------------------
#psi4
#
memory 32 gb

molecule  {
-1 1
  O        0.6232130    -0.7170940    -0.0000140
  O       -0.2658470     1.3958930    -0.0000020
  O        1.9606930    -0.1412830     0.0000110
  C       -1.7044290    -0.5379690     0.0000040
  C       -0.4075055     0.1442282    -0.0000037
  H       -1.5968530    -1.6227110     0.0000310
  H       -2.2707620    -0.2273260    -0.8817580
  H       -2.2707590    -0.2273030     0.8817680
units angstrom
no_reorient  #important for SAPT in psi4, default
symmetry c1  #important for SAPT in psi4, default
}

set PROPERTIES_ORIGIN ["COM"]
properties('MP2/aug-cc-pvtz', properties = ['dipole'])
--------------------------------------------------------------------------

    Molecular point group: c1
  Charge       = -1
  Multiplicity = 1
  Basis Set: AUG-CC-PVTZ
    Blend: AUG-CC-PVTZ
  Basis Set: (AUG-CC-PVTZ AUX)
    Blend: AUG-CC-PVTZ-JKFIT

    Orbital Energies [Eh]
    ---------------------

    Doubly Occupied:

       1A    -20.404183     2A    -20.340815     3A    -20.296327
       4A    -11.187926     5A    -11.092024     6A     -1.239032
       7A     -1.136174     8A     -0.927567     9A     -0.842411
      10A     -0.570339    11A     -0.484556    12A     -0.468391
      13A     -0.465090    14A     -0.404401    15A     -0.383950
      16A     -0.311054    17A     -0.276861    18A     -0.251440
      19A     -0.183963    20A     -0.158846

  @DF-RHF Final Energy:  -302.08289182225059

   => Energetics <=

    Nuclear Repulsion Energy =            167.6940635382256062
    One-Electron Energy =                -756.7032111072219323
    Two-Electron Energy =                 286.9262557467457668
    Total Energy =                       -302.0828918222505877
  Basis Set: (AUG-CC-PVTZ AUX)
    Blend: AUG-CC-PVTZ-RI
    Molecular point group: c1

    Geometry (in Angstrom), charge = -1, multiplicity = 1:

       Center              X                  Y                   Z               Mass
    ------------   -----------------  -----------------  -----------------  -----------------
         O            0.549253974029    -0.740811903171    -0.000013532668    15.994914619570
         O           -0.339806025971     1.372175096829    -0.000001532668    15.994914619570
         O            1.886733974029    -0.165000903171     0.000011467332    15.994914619570
         C           -1.778388025971    -0.561686903171     0.000004467332    12.000000000000
         C           -0.481464525971     0.120510296829    -0.000003232668    12.000000000000
         H           -1.670812025971    -1.646428903171     0.000031467332     1.007825032230
         H           -2.344721025971    -0.251043903171    -0.881757532668     1.007825032230
         H           -2.344718025971    -0.251020903171     0.881768467332     1.007825032230

  Basis Set: AUG-CC-PVTZ
    Blend: AUG-CC-PVTZ
  Basis Set: (AUG-CC-PVTZ AUX)
    Blend: AUG-CC-PVTZ-JKFIT
	 Reference Energy          =    -302.0828918222505877 [Eh]
	 Singles Energy            =      -0.0000000000000000 [Eh]
	 Same-Spin Energy          =      -0.2881744629382749 [Eh]
	 Opposite-Spin Energy      =      -0.8666226003178793 [Eh]
	 Correlation Energy        =      -1.1547970632561542 [Eh]
	 Total Energy              =    -303.2376888855067136 [Eh]

	 ================> DF-SCS-MP2 Energies <==================
	-----------------------------------------------------------
	 SCS Same-Spin Scale       =       0.3333333333333333 [-]
	 SCS Opposite-Spin Scale   =       1.2000000000000000 [-]
	 SCS Same-Spin Energy      =      -0.0960581543127583 [Eh]
	 SCS Opposite-Spin Energy  =      -1.0399471203814552 [Eh]
	 SCS Correlation Energy    =      -1.1360052746942135 [Eh]
	 SCS Total Energy          =    -303.2188970969448292 [Eh]
	-----------------------------------------------------------

  Dipole Moment: [D]
     X:    -6.4574      Y:    -1.8742      Z:    -0.0000     Total:     6.7239

*** Psi4 exiting successfully. Buy a developer a beer!
