                               Psi4 1.3.2 release

  ==> Input File <==

--------------------------------------------------------------------------
#psi4
#
memory 32 gb

molecule  {
-1 1
  O        0.6232130    -0.7170940    -0.0000140
  O       -0.3947821     1.3993456    -0.0000011
  O        1.9606930    -0.1412830     0.0000110
  C       -1.7044290    -0.5379690     0.0000040
  C       -0.3632540     0.1675050    -0.0000040
  H       -1.5968530    -1.6227110     0.0000310
  H       -2.2707620    -0.2273260    -0.8817580
  H       -2.2707590    -0.2273030     0.8817680
units angstrom
no_reorient  #important for SAPT in psi4, default
symmetry c1  #important for SAPT in psi4, default
}

set PROPERTIES_ORIGIN ["COM"]
properties('MP2/aug-cc-pvtz', properties = ['dipole'])
--------------------------------------------------------------------------

    Molecular point group: c1
  Charge       = -1
  Multiplicity = 1
  Basis Set: AUG-CC-PVTZ
    Blend: AUG-CC-PVTZ
  Basis Set: (AUG-CC-PVTZ AUX)
    Blend: AUG-CC-PVTZ-JKFIT

    Orbital Energies [Eh]
    ---------------------

    Doubly Occupied:

       1A    -20.413833     2A    -20.347012     3A    -20.301455
       4A    -11.188835     5A    -11.081407     6A     -1.251840
       7A     -1.162722     8A     -0.930221     9A     -0.825355
      10A     -0.569542    11A     -0.486731    12A     -0.463999
      13A     -0.462529    14A     -0.410452    15A     -0.388565
      16A     -0.315005    17A     -0.291390    18A     -0.250649
      19A     -0.191241    20A     -0.166923

  @DF-RHF Final Energy:  -302.08995703453684

   => Energetics <=

    Nuclear Repulsion Energy =            167.6796987525922020
    One-Electron Energy =                -756.5398978987748251
    Two-Electron Energy =                 286.7702421116457572
    Total Energy =                       -302.0899570345368375
  Basis Set: (AUG-CC-PVTZ AUX)
    Blend: AUG-CC-PVTZ-RI
    Molecular point group: c1

    Geometry (in Angstrom), charge = -1, multiplicity = 1:

       Center              X                  Y                   Z               Mass
    ------------   -----------------  -----------------  -----------------  -----------------
         O            0.569668909050    -0.745272022967    -0.000013676591    15.994914619570
         O           -0.448326190950     1.371167577033    -0.000000776591    15.994914619570
         O            1.907148909050    -0.169461022967     0.000011323409    15.994914619570
         C           -1.757973090950    -0.566147022967     0.000004323409    12.000000000000
         C           -0.416798090950     0.139326977033    -0.000003676591    12.000000000000
         H           -1.650397090950    -1.650889022967     0.000031323409     1.007825032230
         H           -2.324306090950    -0.255504022967    -0.881757676591     1.007825032230
         H           -2.324303090950    -0.255481022967     0.881768323409     1.007825032230

  Basis Set: AUG-CC-PVTZ
    Blend: AUG-CC-PVTZ
  Basis Set: (AUG-CC-PVTZ AUX)
    Blend: AUG-CC-PVTZ-JKFIT
	 Reference Energy          =    -302.0899570345368375 [Eh]
	 Singles Energy            =      -0.0000000000000000 [Eh]
	 Same-Spin Energy          =      -0.2867777289280874 [Eh]
	 Opposite-Spin Energy      =      -0.8643898817396670 [Eh]
	 Correlation Energy        =      -1.1511676106677544 [Eh]
	 Total Energy              =    -303.2411246452045930 [Eh]

	 ================> DF-SCS-MP2 Energies <==================
	-----------------------------------------------------------
	 SCS Same-Spin Scale       =       0.3333333333333333 [-]
	 SCS Opposite-Spin Scale   =       1.2000000000000000 [-]
	 SCS Same-Spin Energy      =      -0.0955925763093625 [Eh]
	 SCS Opposite-Spin Energy  =      -1.0372678580876005 [Eh]
	 SCS Correlation Energy    =      -1.1328604343969630 [Eh]
	 SCS Total Energy          =    -303.2228174689337834 [Eh]
	-----------------------------------------------------------

  Dipole Moment: [D]
     X:    -6.0062      Y:    -1.6638      Z:    -0.0000     Total:     6.2323

*** Psi4 exiting successfully. Buy a developer a beer!
