                               Psi4 1.3.2 release

  ==> Input File <==

--------------------------------------------------------------------------
#psi4
#
memory 32 gb

molecule  {
-1 1
  O        0.6385011    -0.6997430    -0.0000141
  O       -0.2658470     1.3958930    -0.0000020
  O        1.9606930    -0.1412830     0.0000110
  C       -1.7044290    -0.5379690     0.0000040
  C       -0.3632540     0.1675050    -0.0000040
  H       -1.5968530    -1.6227110     0.0000310
  H       -2.2707620    -0.2273260    -0.8817580
  H       -2.2707590    -0.2273030     0.8817680
units angstrom
no_reorient  #important for SAPT in psi4, default
symmetry c1  #important for SAPT in psi4, default
}

set PROPERTIES_ORIGIN ["COM"]
properties('MP2/aug-cc-pvtz', properties = ['dipole'])
--------------------------------------------------------------------------

    Molecular point group: c1
  Charge       = -1
  Multiplicity = 1
  Basis Set: AUG-CC-PVTZ
    Blend: AUG-CC-PVTZ
  Basis Set: (AUG-CC-PVTZ AUX)
    Blend: AUG-CC-PVTZ-JKFIT

    Orbital Energies [Eh]
    ---------------------

    Doubly Occupied:

       1A    -20.407508     2A    -20.342550     3A    -20.293267
       4A    -11.185713     5A    -11.090021     6A     -1.254320
       7A     -1.154567     8A     -0.927141     9A     -0.830938
      10A     -0.566933    11A     -0.487144    12A     -0.465493
      13A     -0.463891    14A     -0.411206    15A     -0.391307
      16A     -0.314898    17A     -0.286533    18A     -0.251976
      19A     -0.182635    20A     -0.156860

  @DF-RHF Final Energy:  -302.09142267588373

   => Energetics <=

    Nuclear Repulsion Energy =            168.3799917767590841
    One-Electron Energy =                -758.0130274600938947
    Two-Electron Energy =                 287.5416130074510761
    Total Energy =                       -302.0914226758837344
  Basis Set: (AUG-CC-PVTZ AUX)
    Blend: AUG-CC-PVTZ-RI
    Molecular point group: c1

    Geometry (in Angstrom), charge = -1, multiplicity = 1:

       Center              X                  Y                   Z               Mass
    ------------   -----------------  -----------------  -----------------  -----------------
         O            0.554202542375    -0.730884747802    -0.000013563349    15.994914619570
         O           -0.350145557625     1.364751252198    -0.000001463349    15.994914619570
         O            1.876394442375    -0.172424747802     0.000011536651    15.994914619570
         C           -1.788727557625    -0.569110747802     0.000004536651    12.000000000000
         C           -0.447552557625     0.136363252198    -0.000003463349    12.000000000000
         H           -1.681151557625    -1.653852747802     0.000031536651     1.007825032230
         H           -2.355060557625    -0.258467747802    -0.881757463349     1.007825032230
         H           -2.355057557625    -0.258444747802     0.881768536651     1.007825032230

  Basis Set: AUG-CC-PVTZ
    Blend: AUG-CC-PVTZ
  Basis Set: (AUG-CC-PVTZ AUX)
    Blend: AUG-CC-PVTZ-JKFIT
	 Reference Energy          =    -302.0914226758837344 [Eh]
	 Singles Energy            =      -0.0000000000000000 [Eh]
	 Same-Spin Energy          =      -0.2871843733844073 [Eh]
	 Opposite-Spin Energy      =      -0.8641071461291947 [Eh]
	 Correlation Energy        =      -1.1512915195136020 [Eh]
	 Total Energy              =    -303.2427141953973546 [Eh]

	 ================> DF-SCS-MP2 Energies <==================
	-----------------------------------------------------------
	 SCS Same-Spin Scale       =       0.3333333333333333 [-]
	 SCS Opposite-Spin Scale   =       1.2000000000000000 [-]
	 SCS Same-Spin Energy      =      -0.0957281244614691 [Eh]
	 SCS Opposite-Spin Energy  =      -1.0369285753550337 [Eh]
	 SCS Correlation Energy    =      -1.1326566998165029 [Eh]
	 SCS Total Energy          =    -303.2240793757002280 [Eh]
	-----------------------------------------------------------

  Dipole Moment: [D]
     X:    -6.2396      Y:    -1.7359      Z:    -0.0000     Total:     6.4766

*** Psi4 exiting successfully. Buy a developer a beer!
