                               Psi4 1.3.2 release

  ==> Input File <==

--------------------------------------------------------------------------
#psi4
#
memory 32 gb

molecule  {
-1 1
  O        0.6232130    -0.7170940    -0.0000140
  O       -0.2658470     1.3958930    -0.0000020
  O        1.8688434    -0.1808260     0.0000093
  C       -1.7044290    -0.5379690     0.0000040
  C       -0.3632540     0.1675050    -0.0000040
  H       -1.5968530    -1.6227110     0.0000310
  H       -2.2707620    -0.2273260    -0.8817580
  H       -2.2707590    -0.2273030     0.8817680
units angstrom
no_reorient  #important for SAPT in psi4, default
symmetry c1  #important for SAPT in psi4, default
}

set PROPERTIES_ORIGIN ["COM"]
properties('MP2/aug-cc-pvtz', properties = ['dipole'])
--------------------------------------------------------------------------

    Molecular point group: c1
  Charge       = -1
  Multiplicity = 1
  Basis Set: AUG-CC-PVTZ
    Blend: AUG-CC-PVTZ
  Basis Set: (AUG-CC-PVTZ AUX)
    Blend: AUG-CC-PVTZ-JKFIT

    Orbital Energies [Eh]
    ---------------------

    Doubly Occupied:

       1A    -20.418376     2A    -20.343684     3A    -20.276707
       4A    -11.184022     5A    -11.088583     6A     -1.282155
       7A     -1.163719     8A     -0.929148     9A     -0.825427
      10A     -0.569113    11A     -0.493804    12A     -0.469745
      13A     -0.464705    14A     -0.412735    15A     -0.400614
      16A     -0.331976    17A     -0.292279    18A     -0.253303
      19A     -0.169138    20A     -0.138550

  @DF-RHF Final Energy:  -302.08812557278509

   => Energetics <=

    Nuclear Repulsion Energy =            170.6900649642728638
    One-Electron Energy =                -762.5408159441941507
    Two-Electron Energy =                 289.7626254071361700
    Total Energy =                       -302.0881255727850885
  Basis Set: (AUG-CC-PVTZ AUX)
    Blend: AUG-CC-PVTZ-RI
    Molecular point group: c1

    Geometry (in Angstrom), charge = -1, multiplicity = 1:

       Center              X                  Y                   Z               Mass
    ------------   -----------------  -----------------  -----------------  -----------------
         O            0.561760716929    -0.736103548357    -0.000013122162    15.994914619570
         O           -0.327299283071     1.376883451643    -0.000001122162    15.994914619570
         O            1.807391116929    -0.199835548357     0.000010177838    15.994914619570
         C           -1.765881283071    -0.556978548357     0.000004877838    12.000000000000
         C           -0.424706283071     0.148495451643    -0.000003122162    12.000000000000
         H           -1.658305283071    -1.641720548357     0.000031877838     1.007825032230
         H           -2.332214283071    -0.246335548357    -0.881757122162     1.007825032230
         H           -2.332211283071    -0.246312548357     0.881768877838     1.007825032230

  Basis Set: AUG-CC-PVTZ
    Blend: AUG-CC-PVTZ
  Basis Set: (AUG-CC-PVTZ AUX)
    Blend: AUG-CC-PVTZ-JKFIT
	 Reference Energy          =    -302.0881255727850885 [Eh]
	 Singles Energy            =      -0.0000000000000000 [Eh]
	 Same-Spin Energy          =      -0.2885850236740018 [Eh]
	 Opposite-Spin Energy      =      -0.8639503719096799 [Eh]
	 Correlation Energy        =      -1.1525353955836817 [Eh]
	 Total Energy              =    -303.2406609683687861 [Eh]

	 ================> DF-SCS-MP2 Energies <==================
	-----------------------------------------------------------
	 SCS Same-Spin Scale       =       0.3333333333333333 [-]
	 SCS Opposite-Spin Scale   =       1.2000000000000000 [-]
	 SCS Same-Spin Energy      =      -0.0961950078913339 [Eh]
	 SCS Opposite-Spin Energy  =      -1.0367404462916159 [Eh]
	 SCS Correlation Energy    =      -1.1329354541829497 [Eh]
	 SCS Total Energy          =    -303.2210610269680160 [Eh]
	-----------------------------------------------------------

  Dipole Moment: [D]
     X:    -5.9204      Y:    -1.7748      Z:    -0.0000     Total:     6.1807

*** Psi4 exiting successfully. Buy a developer a beer!
