                               Psi4 1.4a3.dev225

  ==> Input File <==

--------------------------------------------------------------------------
#psi4
#
memory 32 gb

molecule  {
-1 1
  O        0.6232130    -0.7170940    -0.0000140
  O       -0.2658470     1.3958930    -0.0000020
  O        1.9606930    -0.1412830     0.0000110
  C       -1.7044290    -0.5379690     0.0000040
  C       -0.3648350     0.1475676    -0.0000040
  H       -1.5968530    -1.6227110     0.0000310
  H       -2.2707620    -0.2273260    -0.8817580
  H       -2.2707590    -0.2273030     0.8817680
units angstrom
no_reorient  #important for SAPT in psi4, default
symmetry c1  #important for SAPT in psi4, default
}

set PROPERTIES_ORIGIN ["COM"]
properties('MP2/aug-cc-pvtz', properties = ['dipole'])
--------------------------------------------------------------------------

    Molecular point group: c1
  Charge       = -1
  Multiplicity = 1
  Basis Set: AUG-CC-PVTZ
    Blend: AUG-CC-PVTZ
  Basis Set: (AUG-CC-PVTZ AUX)
    Blend: AUG-CC-PVTZ-JKFIT

    Orbital Energies [Eh]
    ---------------------

    Doubly Occupied:

       1A    -20.409548     2A    -20.338687     3A    -20.299727
       4A    -11.186288     5A    -11.088915     6A     -1.252360
       7A     -1.141604     8A     -0.931558     9A     -0.833264
      10A     -0.568387    11A     -0.485678    12A     -0.465287
      13A     -0.463400    14A     -0.407159    15A     -0.390150
      16A     -0.311888    17A     -0.278837    18A     -0.248861
      19A     -0.189363    20A     -0.164406

  @DF-RHF Final Energy:  -302.08973634223702

   => Energetics <=

    Nuclear Repulsion Energy =            168.0258939000723046
    One-Electron Energy =                -757.3205291727191479
    Two-Electron Energy =                 287.2048989304097972
    Total Energy =                       -302.0897363422370177
  Basis Set: (AUG-CC-PVTZ AUX)
    Blend: AUG-CC-PVTZ-RI
    Molecular point group: c1

    Geometry (in Angstrom), charge = -1, multiplicity = 1:

       Center              X                  Y                   Z               Mass
    ------------   -----------------  -----------------  -----------------  -----------------
         O            0.542427442122    -0.741346148625    -0.000013484673    15.994914619570
         O           -0.346632557878     1.371640851375    -0.000001484673    15.994914619570
         O            1.879907442122    -0.165535148625     0.000011515327    15.994914619570
         C           -1.785214557878    -0.562221148625     0.000004515327    12.000000000000
         C           -0.445620557878     0.123315451375    -0.000003484673    12.000000000000
         H           -1.677638557878    -1.646963148625     0.000031515327     1.007825032230
         H           -2.351547557878    -0.251578148625    -0.881757484673     1.007825032230
         H           -2.351544557878    -0.251555148625     0.881768515327     1.007825032230

  Basis Set: AUG-CC-PVTZ
    Blend: AUG-CC-PVTZ
  Basis Set: (AUG-CC-PVTZ AUX)
    Blend: AUG-CC-PVTZ-JKFIT
	 Reference Energy          =    -302.0897363422370177 [Eh]
	 Singles Energy            =      -0.0000000000000000 [Eh]
	 Same-Spin Energy          =      -0.2870963795180664 [Eh]
	 Opposite-Spin Energy      =      -0.8646291785070424 [Eh]
	 Correlation Energy        =      -1.1517255580251087 [Eh]
	 Total Energy              =    -303.2414619002621521 [Eh]

	 ================> DF-SCS-MP2 Energies <==================
	-----------------------------------------------------------
	 SCS Same-Spin Scale       =       0.3333333333333333 [-]
	 SCS Opposite-Spin Scale   =       1.2000000000000000 [-]
	 SCS Same-Spin Energy      =      -0.0956987931726888 [Eh]
	 SCS Opposite-Spin Energy  =      -1.0375550142084509 [Eh]
	 SCS Correlation Energy    =      -1.1332538073811396 [Eh]
	 SCS Total Energy          =    -303.2229901496181697 [Eh]
	-----------------------------------------------------------

  Dipole Moment: [D]
     X:    -6.1872      Y:    -1.8664      Z:    -0.0000     Total:     6.4626

*** Psi4 exiting successfully. Buy a developer a beer!
