                               Psi4 1.4a3.dev225

  ==> Input File <==

--------------------------------------------------------------------------
#psi4
#
memory 32 gb

molecule  {
-1 1
  O        0.6232130    -0.7170940    -0.0000140
  O       -0.2658470     1.3958930    -0.0000020
  O        1.9606930    -0.1412830     0.0000110
  C       -1.7044290    -0.5379690     0.0000040
  C       -0.3190025     0.1907818    -0.0000043
  H       -1.5968530    -1.6227110     0.0000310
  H       -2.2707620    -0.2273260    -0.8817580
  H       -2.2707590    -0.2273030     0.8817680
units angstrom
no_reorient  #important for SAPT in psi4, default
symmetry c1  #important for SAPT in psi4, default
}

set PROPERTIES_ORIGIN ["COM"]
properties('MP2/aug-cc-pvtz', properties = ['dipole'])
--------------------------------------------------------------------------

    Molecular point group: c1
  Charge       = -1
  Multiplicity = 1
  Basis Set: AUG-CC-PVTZ
    Blend: AUG-CC-PVTZ
  Basis Set: (AUG-CC-PVTZ AUX)
    Blend: AUG-CC-PVTZ-JKFIT

    Orbital Energies [Eh]
    ---------------------

    Doubly Occupied:

       1A    -20.408851     2A    -20.346518     3A    -20.297777
       4A    -11.184761     5A    -11.083362     6A     -1.260974
       7A     -1.170971     8A     -0.927653     9A     -0.817279
      10A     -0.566086    11A     -0.486788    12A     -0.463885
      13A     -0.462539    14A     -0.413851    15A     -0.391895
      16A     -0.311453    17A     -0.294924    18A     -0.247376
      19A     -0.189340    20A     -0.164853

  @DF-RHF Final Energy:  -302.09292245825674

   => Energetics <=

    Nuclear Repulsion Energy =            168.4545970175582283
    One-Electron Energy =                -758.1127666186046099
    Two-Electron Energy =                 287.5652471427897012
    Total Energy =                       -302.0929224582567372
  Basis Set: (AUG-CC-PVTZ AUX)
    Blend: AUG-CC-PVTZ-RI
    Molecular point group: c1

    Geometry (in Angstrom), charge = -1, multiplicity = 1:

       Center              X                  Y                   Z               Mass
    ------------   -----------------  -----------------  -----------------  -----------------
         O            0.535095045651    -0.748259663000    -0.000013436678    15.994914619570
         O           -0.353964954349     1.364727337000    -0.000001436678    15.994914619570
         O            1.872575045651    -0.172448663000     0.000011563322    15.994914619570
         C           -1.792546954349    -0.569134663000     0.000004563322    12.000000000000
         C           -0.407120454349     0.159616137000    -0.000003736678    12.000000000000
         H           -1.684970954349    -1.653876663000     0.000031563322     1.007825032230
         H           -2.358879954349    -0.258491663000    -0.881757436678     1.007825032230
         H           -2.358876954349    -0.258468663000     0.881768563322     1.007825032230

  Basis Set: AUG-CC-PVTZ
    Blend: AUG-CC-PVTZ
  Basis Set: (AUG-CC-PVTZ AUX)
    Blend: AUG-CC-PVTZ-JKFIT
	 Reference Energy          =    -302.0929224582567372 [Eh]
	 Singles Energy            =      -0.0000000000000000 [Eh]
	 Same-Spin Energy          =      -0.2860837630741925 [Eh]
	 Opposite-Spin Energy      =      -0.8627894764062037 [Eh]
	 Correlation Energy        =      -1.1488732394803962 [Eh]
	 Total Energy              =    -303.2417956977371318 [Eh]

	 ================> DF-SCS-MP2 Energies <==================
	-----------------------------------------------------------
	 SCS Same-Spin Scale       =       0.3333333333333333 [-]
	 SCS Opposite-Spin Scale   =       1.2000000000000000 [-]
	 SCS Same-Spin Energy      =      -0.0953612543580642 [Eh]
	 SCS Opposite-Spin Energy  =      -1.0353473716874444 [Eh]
	 SCS Correlation Energy    =      -1.1307086260455086 [Eh]
	 SCS Total Energy          =    -303.2236310843022693 [Eh]
	-----------------------------------------------------------

  Dipole Moment: [D]
     X:    -6.0126      Y:    -1.4906      Z:    -0.0000     Total:     6.1946

*** Psi4 exiting successfully. Buy a developer a beer!
