                               Psi4 1.4a3.dev225

  ==> Input File <==

--------------------------------------------------------------------------
#psi4
#
memory 32 gb

molecule  {
-1 1
  O        0.6232130    -0.7170940    -0.0000140
  O       -0.2658470     1.3958930    -0.0000020
  O        1.9606930    -0.1412830     0.0000110
  C       -1.7044290    -0.5379690     0.0000040
  C       -0.4004791     0.2008860    -0.0000036
  H       -1.5968530    -1.6227110     0.0000310
  H       -2.2707620    -0.2273260    -0.8817580
  H       -2.2707590    -0.2273030     0.8817680
units angstrom
no_reorient  #important for SAPT in psi4, default
symmetry c1  #important for SAPT in psi4, default
}

set PROPERTIES_ORIGIN ["COM"]
properties('MP2/aug-cc-pvtz', properties = ['dipole'])
--------------------------------------------------------------------------

    Molecular point group: c1
  Charge       = -1
  Multiplicity = 1
  Basis Set: AUG-CC-PVTZ
    Blend: AUG-CC-PVTZ
  Basis Set: (AUG-CC-PVTZ AUX)
    Blend: AUG-CC-PVTZ-JKFIT

    Orbital Energies [Eh]
    ---------------------

    Doubly Occupied:

       1A    -20.395135     2A    -20.353611     3A    -20.288680
       4A    -11.185952     5A    -11.090516     6A     -1.242656
       7A     -1.161592     8A     -0.915153     9A     -0.831978
      10A     -0.567703    11A     -0.484446    12A     -0.467058
      13A     -0.466220    14A     -0.414383    15A     -0.382536
      16A     -0.304643    17A     -0.295250    18A     -0.257910
      19A     -0.176194    20A     -0.151663

  @DF-RHF Final Energy:  -302.08611697289473

   => Energetics <=

    Nuclear Repulsion Energy =            167.8637019707315687
    One-Electron Energy =                -757.0330794094481917
    Two-Electron Energy =                 287.0832604658219225
    Total Energy =                       -302.0861169728947289
  Basis Set: (AUG-CC-PVTZ AUX)
    Blend: AUG-CC-PVTZ-RI
    Molecular point group: c1

    Geometry (in Angstrom), charge = -1, multiplicity = 1:

       Center              X                  Y                   Z               Mass
    ------------   -----------------  -----------------  -----------------  -----------------
         O            0.548129873215    -0.749876157855    -0.000013548666    15.994914619570
         O           -0.340930126785     1.363110842145    -0.000001548666    15.994914619570
         O            1.885609873215    -0.174065157855     0.000011451334    15.994914619570
         C           -1.779512126785    -0.570751157855     0.000004451334    12.000000000000
         C           -0.475562226785     0.168103842145    -0.000003148666    12.000000000000
         H           -1.671936126785    -1.655493157855     0.000031451334     1.007825032230
         H           -2.345845126785    -0.260108157855    -0.881757548666     1.007825032230
         H           -2.345842126785    -0.260085157855     0.881768451334     1.007825032230

  Basis Set: AUG-CC-PVTZ
    Blend: AUG-CC-PVTZ
  Basis Set: (AUG-CC-PVTZ AUX)
    Blend: AUG-CC-PVTZ-JKFIT
	 Reference Energy          =    -302.0861169728947289 [Eh]
	 Singles Energy            =      -0.0000000000000000 [Eh]
	 Same-Spin Energy          =      -0.2875932565481301 [Eh]
	 Opposite-Spin Energy      =      -0.8656524085110728 [Eh]
	 Correlation Energy        =      -1.1532456650592029 [Eh]
	 Total Energy              =    -303.2393626379539455 [Eh]

	 ================> DF-SCS-MP2 Energies <==================
	-----------------------------------------------------------
	 SCS Same-Spin Scale       =       0.3333333333333333 [-]
	 SCS Opposite-Spin Scale   =       1.2000000000000000 [-]
	 SCS Same-Spin Energy      =      -0.0958644188493767 [Eh]
	 SCS Opposite-Spin Energy  =      -1.0387828902132874 [Eh]
	 SCS Correlation Energy    =      -1.1346473090626641 [Eh]
	 SCS Total Energy          =    -303.2207642819573721 [Eh]
	-----------------------------------------------------------

  Dipole Moment: [D]
     X:    -6.6447      Y:    -1.3787      Z:    -0.0000     Total:     6.7862

*** Psi4 exiting successfully. Buy a developer a beer!
