                               Psi4 1.3.2 release

  ==> Input File <==

--------------------------------------------------------------------------
#psi4
#
memory 32 gb

molecule  {
-1 1
  O        0.6232130    -0.7170940    -0.0000140
  O       -0.2658470     1.3958930    -0.0000020
  O        1.8931775    -0.0046326     0.0000133
  C       -1.7044290    -0.5379690     0.0000040
  C       -0.3632540     0.1675050    -0.0000040
  H       -1.5968530    -1.6227110     0.0000310
  H       -2.2707620    -0.2273260    -0.8817580
  H       -2.2707590    -0.2273030     0.8817680
units angstrom
no_reorient  #important for SAPT in psi4, default
symmetry c1  #important for SAPT in psi4, default
}

set PROPERTIES_ORIGIN ["COM"]
properties('MP2/aug-cc-pvtz', properties = ['dipole'])
--------------------------------------------------------------------------

    Molecular point group: c1
  Charge       = -1
  Multiplicity = 1
  Basis Set: AUG-CC-PVTZ
    Blend: AUG-CC-PVTZ
  Basis Set: (AUG-CC-PVTZ AUX)
    Blend: AUG-CC-PVTZ-JKFIT

    Orbital Energies [Eh]
    ---------------------

    Doubly Occupied:

       1A    -20.407326     2A    -20.341057     3A    -20.291501
       4A    -11.183243     5A    -11.086486     6A     -1.252266
       7A     -1.150659     8A     -0.922257     9A     -0.827355
      10A     -0.567809    11A     -0.485529    12A     -0.463351
      13A     -0.461332    14A     -0.409335    15A     -0.388766
      16A     -0.309133    17A     -0.281891    18A     -0.247728
      19A     -0.184375    20A     -0.159788

  @DF-RHF Final Energy:  -302.08825073567749

   => Energetics <=

    Nuclear Repulsion Energy =            169.2240671746336602
    One-Electron Energy =                -759.7822633294257457
    Two-Electron Energy =                 288.4699454191145946
    Total Energy =                       -302.0882507356774909
  Basis Set: (AUG-CC-PVTZ AUX)
    Blend: AUG-CC-PVTZ-RI
    Molecular point group: c1

    Geometry (in Angstrom), charge = -1, multiplicity = 1:

       Center              X                  Y                   Z               Mass
    ------------   -----------------  -----------------  -----------------  -----------------
         O            0.556571660886    -0.773675409531    -0.000013975130    15.994914619570
         O           -0.332488339114     1.339311590469    -0.000001975130    15.994914619570
         O            1.826536160886    -0.061214009531     0.000013324870    15.994914619570
         C           -1.771070339114    -0.594550409531     0.000004024870    12.000000000000
         C           -0.429895339114     0.110923590469    -0.000003975130    12.000000000000
         H           -1.663494339114    -1.679292409531     0.000031024870     1.007825032230
         H           -2.337403339114    -0.283907409531    -0.881757975130     1.007825032230
         H           -2.337400339114    -0.283884409531     0.881768024870     1.007825032230

  Basis Set: AUG-CC-PVTZ
    Blend: AUG-CC-PVTZ
  Basis Set: (AUG-CC-PVTZ AUX)
    Blend: AUG-CC-PVTZ-JKFIT
	 Reference Energy          =    -302.0882507356774909 [Eh]
	 Singles Energy            =      -0.0000000000000000 [Eh]
	 Same-Spin Energy          =      -0.2874114782463595 [Eh]
	 Opposite-Spin Energy      =      -0.8650939374153679 [Eh]
	 Correlation Energy        =      -1.1525054156617274 [Eh]
	 Total Energy              =    -303.2407561513392125 [Eh]

	 ================> DF-SCS-MP2 Energies <==================
	-----------------------------------------------------------
	 SCS Same-Spin Scale       =       0.3333333333333333 [-]
	 SCS Opposite-Spin Scale   =       1.2000000000000000 [-]
	 SCS Same-Spin Energy      =      -0.0958038260821198 [Eh]
	 SCS Opposite-Spin Energy  =      -1.0381127248984414 [Eh]
	 SCS Correlation Energy    =      -1.1339165509805613 [Eh]
	 SCS Total Energy          =    -303.2221672866580775 [Eh]
	-----------------------------------------------------------

  Dipole Moment: [D]
     X:    -6.1302      Y:    -1.8883      Z:    -0.0000     Total:     6.4145

*** Psi4 exiting successfully. Buy a developer a beer!
