                               Psi4 1.4a3.dev225

  ==> Input File <==

--------------------------------------------------------------------------
#psi4
#
memory 32 gb

molecule  {
-1 1
  O        0.6232130    -0.7170940    -0.0000140
  O       -0.2658470     1.3958930    -0.0000020
  O        1.9606930    -0.1412830     0.0000110
  C       -1.7044290    -0.5379690     0.0000040
  C       -0.3455534     0.1768157    -0.0000041
  H       -1.5968530    -1.6227110     0.0000310
  H       -2.2707620    -0.2273260    -0.8817580
  H       -2.2707590    -0.2273030     0.8817680
units angstrom
no_reorient  #important for SAPT in psi4, default
symmetry c1  #important for SAPT in psi4, default
}

set PROPERTIES_ORIGIN ["COM"]
properties('MP2/aug-cc-pvtz', properties = ['dipole'])
--------------------------------------------------------------------------

    Molecular point group: c1
  Charge       = -1
  Multiplicity = 1
  Basis Set: AUG-CC-PVTZ
    Blend: AUG-CC-PVTZ
  Basis Set: (AUG-CC-PVTZ AUX)
    Blend: AUG-CC-PVTZ-JKFIT

    Orbital Energies [Eh]
    ---------------------

    Doubly Occupied:

       1A    -20.407283     2A    -20.344547     3A    -20.297209
       4A    -11.185302     5A    -11.086446     6A     -1.254280
       7A     -1.160288     8A     -0.927096     9A     -0.824922
      10A     -0.566570    11A     -0.485654    12A     -0.463444
      13A     -0.463299    14A     -0.412401    15A     -0.390289
      16A     -0.310569    17A     -0.289388    18A     -0.250271
      19A     -0.187673    20A     -0.162957

  @DF-RHF Final Energy:  -302.09268242116133

   => Energetics <=

    Nuclear Repulsion Energy =            168.2214043054149215
    One-Electron Energy =                -757.6883979260654769
    Two-Electron Energy =                 287.3743111994892274
    Total Energy =                       -302.0926824211613280
  Basis Set: (AUG-CC-PVTZ AUX)
    Blend: AUG-CC-PVTZ-RI
    Molecular point group: c1

    Geometry (in Angstrom), charge = -1, multiplicity = 1:

       Center              X                  Y                   Z               Mass
    ------------   -----------------  -----------------  -----------------  -----------------
         O            0.539342724164    -0.746025331852    -0.000013468675    15.994914619570
         O           -0.349717275836     1.366961668148    -0.000001468675    15.994914619570
         O            1.876822724164    -0.170214331852     0.000011531325    15.994914619570
         C           -1.788299275836    -0.566900331852     0.000004531325    12.000000000000
         C           -0.429423675836     0.147884368148    -0.000003568675    12.000000000000
         H           -1.680723275836    -1.651642331852     0.000031531325     1.007825032230
         H           -2.354632275836    -0.256257331852    -0.881757468675     1.007825032230
         H           -2.354629275836    -0.256234331852     0.881768531325     1.007825032230

  Basis Set: AUG-CC-PVTZ
    Blend: AUG-CC-PVTZ
  Basis Set: (AUG-CC-PVTZ AUX)
    Blend: AUG-CC-PVTZ-JKFIT
	 Reference Energy          =    -302.0926824211613280 [Eh]
	 Singles Energy            =      -0.0000000000000000 [Eh]
	 Same-Spin Energy          =      -0.2865696968470554 [Eh]
	 Opposite-Spin Energy      =      -0.8636934542809029 [Eh]
	 Correlation Energy        =      -1.1502631511279584 [Eh]
	 Total Energy              =    -303.2429455722892726 [Eh]

	 ================> DF-SCS-MP2 Energies <==================
	-----------------------------------------------------------
	 SCS Same-Spin Scale       =       0.3333333333333333 [-]
	 SCS Opposite-Spin Scale   =       1.2000000000000000 [-]
	 SCS Same-Spin Energy      =      -0.0955232322823518 [Eh]
	 SCS Opposite-Spin Energy  =      -1.0364321451370835 [Eh]
	 SCS Correlation Energy    =      -1.1319553774194353 [Eh]
	 SCS Total Energy          =    -303.2246377985807726 [Eh]
	-----------------------------------------------------------

  Dipole Moment: [D]
     X:    -6.1618      Y:    -1.6130      Z:    -0.0000     Total:     6.3694

*** Psi4 exiting successfully. Buy a developer a beer!
