                               Psi4 1.4a3.dev225

  ==> Input File <==

--------------------------------------------------------------------------
#psi4
#
memory 32 gb

molecule  {
-1 1
  O        0.6232130    -0.7170940    -0.0000140
  O       -0.2658470     1.3958930    -0.0000020
  O        1.9606930    -0.1412830     0.0000110
  C       -1.7044290    -0.5379690     0.0000040
  C       -0.3781440     0.1808574    -0.0000038
  H       -1.5968530    -1.6227110     0.0000310
  H       -2.2707620    -0.2273260    -0.8817580
  H       -2.2707590    -0.2273030     0.8817680
units angstrom
no_reorient  #important for SAPT in psi4, default
symmetry c1  #important for SAPT in psi4, default
}

set PROPERTIES_ORIGIN ["COM"]
properties('MP2/aug-cc-pvtz', properties = ['dipole'])
--------------------------------------------------------------------------

    Molecular point group: c1
  Charge       = -1
  Multiplicity = 1
  Basis Set: AUG-CC-PVTZ
    Blend: AUG-CC-PVTZ
  Basis Set: (AUG-CC-PVTZ AUX)
    Blend: AUG-CC-PVTZ-JKFIT

    Orbital Energies [Eh]
    ---------------------

    Doubly Occupied:

       1A    -20.401871     2A    -20.347499     3A    -20.293560
       4A    -11.185950     5A    -11.089133     6A     -1.245068
       7A     -1.158180     8A     -0.921903     9A     -0.831034
      10A     -0.567168    11A     -0.484643    12A     -0.464774
      13A     -0.464596    14A     -0.412464    15A     -0.386048
      16A     -0.308393    17A     -0.289841    18A     -0.254291
      19A     -0.182459    20A     -0.157673

  @DF-RHF Final Energy:  -302.08989522074677

   => Energetics <=

    Nuclear Repulsion Energy =            167.9802718551891019
    One-Electron Energy =                -757.2472387862113692
    Two-Electron Energy =                 287.1770717102754702
    Total Energy =                       -302.0898952207467687
  Basis Set: (AUG-CC-PVTZ AUX)
    Blend: AUG-CC-PVTZ-RI
    Molecular point group: c1

    Geometry (in Angstrom), charge = -1, multiplicity = 1:

       Center              X                  Y                   Z               Mass
    ------------   -----------------  -----------------  -----------------  -----------------
         O            0.544556648791    -0.746671932993    -0.000013516670    15.994914619570
         O           -0.344503351209     1.366315067007    -0.000001516670    15.994914619570
         O            1.882036648791    -0.170860932993     0.000011483330    15.994914619570
         C           -1.783085351209    -0.567546932993     0.000004483330    12.000000000000
         C           -0.456800351209     0.151279467007    -0.000003316670    12.000000000000
         H           -1.675509351209    -1.652288932993     0.000031483330     1.007825032230
         H           -2.349418351209    -0.256903932993    -0.881757516670     1.007825032230
         H           -2.349415351209    -0.256880932993     0.881768483330     1.007825032230

  Basis Set: AUG-CC-PVTZ
    Blend: AUG-CC-PVTZ
  Basis Set: (AUG-CC-PVTZ AUX)
    Blend: AUG-CC-PVTZ-JKFIT
	 Reference Energy          =    -302.0898952207467687 [Eh]
	 Singles Energy            =      -0.0000000000000000 [Eh]
	 Same-Spin Energy          =      -0.2872071462990399 [Eh]
	 Opposite-Spin Energy      =      -0.8648987632616997 [Eh]
	 Correlation Energy        =      -1.1521059095607395 [Eh]
	 Total Energy              =    -303.2420011303075285 [Eh]

	 ================> DF-SCS-MP2 Energies <==================
	-----------------------------------------------------------
	 SCS Same-Spin Scale       =       0.3333333333333333 [-]
	 SCS Opposite-Spin Scale   =       1.2000000000000000 [-]
	 SCS Same-Spin Energy      =      -0.0957357154330133 [Eh]
	 SCS Opposite-Spin Energy  =      -1.0378785159140396 [Eh]
	 SCS Correlation Energy    =      -1.1336142313470527 [Eh]
	 SCS Total Energy          =    -303.2235094520938219 [Eh]
	-----------------------------------------------------------

  Dipole Moment: [D]
     X:    -6.4094      Y:    -1.5661      Z:    -0.0000     Total:     6.5979

*** Psi4 exiting successfully. Buy a developer a beer!
