                               Psi4 1.4a3.dev225

  ==> Input File <==

--------------------------------------------------------------------------
#psi4
#
memory 32 gb

molecule  {
-1 1
  O        0.6232130    -0.7170940    -0.0000140
  O       -0.2658470     1.3958930    -0.0000020
  O        1.9606930    -0.1412830     0.0000110
  C       -1.7044290    -0.5379690     0.0000040
  C       -0.3672064     0.1176615    -0.0000041
  H       -1.5968530    -1.6227110     0.0000310
  H       -2.2707620    -0.2273260    -0.8817580
  H       -2.2707590    -0.2273030     0.8817680
units angstrom
no_reorient  #important for SAPT in psi4, default
symmetry c1  #important for SAPT in psi4, default
}

set PROPERTIES_ORIGIN ["COM"]
properties('MP2/aug-cc-pvtz', properties = ['dipole'])
--------------------------------------------------------------------------

    Molecular point group: c1
  Charge       = -1
  Multiplicity = 1
  Basis Set: AUG-CC-PVTZ
    Blend: AUG-CC-PVTZ
  Basis Set: (AUG-CC-PVTZ AUX)
    Blend: AUG-CC-PVTZ-JKFIT

    Orbital Energies [Eh]
    ---------------------

    Doubly Occupied:

       1A    -20.414358     2A    -20.331666     3A    -20.304022
       4A    -11.186676     5A    -11.089797     6A     -1.258397
       7A     -1.122967     8A     -0.938355     9A     -0.838191
      10A     -0.570359    11A     -0.487534    12A     -0.467223
      13A     -0.464135    14A     -0.401222    15A     -0.392641
      16A     -0.313639    17A     -0.268482    18A     -0.244053
      19A     -0.193357    20A     -0.168303

  @DF-RHF Final Energy:  -302.08534243098075

   => Energetics <=

    Nuclear Repulsion Energy =            167.9805597050005588
    One-Electron Energy =                -757.2210531044695472
    Two-Electron Energy =                 287.1551509684882149
    Total Energy =                       -302.0853424309807451
  Basis Set: (AUG-CC-PVTZ AUX)
    Blend: AUG-CC-PVTZ-RI
    Molecular point group: c1

    Geometry (in Angstrom), charge = -1, multiplicity = 1:

       Center              X                  Y                   Z               Mass
    ------------   -----------------  -----------------  -----------------  -----------------
         O            0.542806824547    -0.736561696934    -0.000013468675    15.994914619570
         O           -0.346253175453     1.376425303066    -0.000001468675    15.994914619570
         O            1.880286824547    -0.160750696934     0.000011531325    15.994914619570
         C           -1.784835175453    -0.557436696934     0.000004531325    12.000000000000
         C           -0.447612575453     0.098193803066    -0.000003568675    12.000000000000
         H           -1.677259175453    -1.642178696934     0.000031531325     1.007825032230
         H           -2.351168175453    -0.246793696934    -0.881757468675     1.007825032230
         H           -2.351165175453    -0.246770696934     0.881768531325     1.007825032230

  Basis Set: AUG-CC-PVTZ
    Blend: AUG-CC-PVTZ
  Basis Set: (AUG-CC-PVTZ AUX)
    Blend: AUG-CC-PVTZ-JKFIT
	 Reference Energy          =    -302.0853424309807451 [Eh]
	 Singles Energy            =      -0.0000000000000000 [Eh]
	 Same-Spin Energy          =      -0.2872971913416797 [Eh]
	 Opposite-Spin Energy      =      -0.8649561907098975 [Eh]
	 Correlation Energy        =      -1.1522533820515772 [Eh]
	 Total Energy              =    -303.2375958130323284 [Eh]

	 ================> DF-SCS-MP2 Energies <==================
	-----------------------------------------------------------
	 SCS Same-Spin Scale       =       0.3333333333333333 [-]
	 SCS Opposite-Spin Scale   =       1.2000000000000000 [-]
	 SCS Same-Spin Energy      =      -0.0957657304472266 [Eh]
	 SCS Opposite-Spin Energy  =      -1.0379474288518769 [Eh]
	 SCS Correlation Energy    =      -1.1337131592991034 [Eh]
	 SCS Total Energy          =    -303.2190555902798224 [Eh]
	-----------------------------------------------------------

  Dipole Moment: [D]
     X:    -6.0864      Y:    -2.1228      Z:    -0.0000     Total:     6.4460

*** Psi4 exiting successfully. Buy a developer a beer!
