                               Psi4 1.3.2 release

  ==> Input File <==

--------------------------------------------------------------------------
#psi4
#
memory 32 gb

molecule  {
-1 1
  O        0.6232130    -0.7170940    -0.0000140
  O       -0.2444235     1.3940059    -0.0000022
  O        1.9606930    -0.1412830     0.0000110
  C       -1.7044290    -0.5379690     0.0000040
  C       -0.3632540     0.1675050    -0.0000040
  H       -1.5968530    -1.6227110     0.0000310
  H       -2.2707620    -0.2273260    -0.8817580
  H       -2.2707590    -0.2273030     0.8817680
units angstrom
no_reorient  #important for SAPT in psi4, default
symmetry c1  #important for SAPT in psi4, default
}

set PROPERTIES_ORIGIN ["COM"]
properties('MP2/aug-cc-pvtz', properties = ['dipole'])
--------------------------------------------------------------------------

    Molecular point group: c1
  Charge       = -1
  Multiplicity = 1
  Basis Set: AUG-CC-PVTZ
    Blend: AUG-CC-PVTZ
  Basis Set: (AUG-CC-PVTZ AUX)
    Blend: AUG-CC-PVTZ-JKFIT

    Orbital Energies [Eh]
    ---------------------

    Doubly Occupied:

       1A    -20.405044     2A    -20.342704     3A    -20.296108
       4A    -11.185385     5A    -11.089369     6A     -1.249616
       7A     -1.151624     8A     -0.926390     9A     -0.830688
      10A     -0.566896    11A     -0.484948    12A     -0.464424
      13A     -0.463677    14A     -0.410756    15A     -0.388793
      16A     -0.309592    17A     -0.284717    18A     -0.251160
      19A     -0.185766    20A     -0.160853

  @DF-RHF Final Energy:  -302.09083628890022

   => Energetics <=

    Nuclear Repulsion Energy =            168.1506069428151875
    One-Electron Energy =                -757.5858671826654245
    Two-Electron Energy =                 287.3444239509499880
    Total Energy =                       -302.0908362889002206
  Basis Set: (AUG-CC-PVTZ AUX)
    Blend: AUG-CC-PVTZ-RI
    Molecular point group: c1

    Geometry (in Angstrom), charge = -1, multiplicity = 1:

       Center              X                  Y                   Z               Mass
    ------------   -----------------  -----------------  -----------------  -----------------
         O            0.537606116428    -0.744133373806    -0.000013442025    15.994914619570
         O           -0.330030383572     1.366966526194    -0.000001642025    15.994914619570
         O            1.875086116428    -0.168322373806     0.000011557975    15.994914619570
         C           -1.790035883572    -0.565008373806     0.000004557975    12.000000000000
         C           -0.448860883572     0.140465626194    -0.000003442025    12.000000000000
         H           -1.682459883572    -1.649750373806     0.000031557975     1.007825032230
         H           -2.356368883572    -0.254365373806    -0.881757442025     1.007825032230
         H           -2.356365883572    -0.254342373806     0.881768557975     1.007825032230

  Basis Set: AUG-CC-PVTZ
    Blend: AUG-CC-PVTZ
  Basis Set: (AUG-CC-PVTZ AUX)
    Blend: AUG-CC-PVTZ-JKFIT
	 Reference Energy          =    -302.0908362889002206 [Eh]
	 Singles Energy            =      -0.0000000000000000 [Eh]
	 Same-Spin Energy          =      -0.2870231258722255 [Eh]
	 Opposite-Spin Energy      =      -0.8644711732232280 [Eh]
	 Correlation Energy        =      -1.1514942990954535 [Eh]
	 Total Energy              =    -303.2423305879956956 [Eh]

	 ================> DF-SCS-MP2 Energies <==================
	-----------------------------------------------------------
	 SCS Same-Spin Scale       =       0.3333333333333333 [-]
	 SCS Opposite-Spin Scale   =       1.2000000000000000 [-]
	 SCS Same-Spin Energy      =      -0.0956743752907418 [Eh]
	 SCS Opposite-Spin Energy  =      -1.0373654078678736 [Eh]
	 SCS Correlation Energy    =      -1.1330397831586154 [Eh]
	 SCS Total Energy          =    -303.2238760720588289 [Eh]
	-----------------------------------------------------------

  Dipole Moment: [D]
     X:    -6.2932      Y:    -1.6921      Z:    -0.0000     Total:     6.5167

*** Psi4 exiting successfully. Buy a developer a beer!
