                               Psi4 1.3.2 release

  ==> Input File <==

--------------------------------------------------------------------------
#psi4
#
memory 32 gb

molecule  {
-1 1
  O        0.6232130    -0.7170940    -0.0000140
  O       -0.2658470     1.3958930    -0.0000020
  O        1.9606930    -0.1412830     0.0000110
  C       -1.7044290    -0.5379690     0.0000040
  C       -0.3790637    -0.0318692    -0.0000043
  H       -1.5968530    -1.6227110     0.0000310
  H       -2.2707620    -0.2273260    -0.8817580
  H       -2.2707590    -0.2273030     0.8817680
units angstrom
no_reorient  #important for SAPT in psi4, default
symmetry c1  #important for SAPT in psi4, default
}

set PROPERTIES_ORIGIN ["COM"]
properties('MP2/aug-cc-pvtz', properties = ['dipole'])
--------------------------------------------------------------------------

    Molecular point group: c1
  Charge       = -1
  Multiplicity = 1
  Basis Set: AUG-CC-PVTZ
    Blend: AUG-CC-PVTZ
  Basis Set: (AUG-CC-PVTZ AUX)
    Blend: AUG-CC-PVTZ-JKFIT

    Orbital Energies [Eh]
    ---------------------

    Doubly Occupied:

       1A    -20.437347     2A    -20.325588     3A    -20.297654
       4A    -11.184972     5A    -11.093135     6A     -1.302121
       7A     -1.039118     8A     -0.966336     9A     -0.862885
      10A     -0.582443    11A     -0.511145    12A     -0.482664
      13A     -0.472018    14A     -0.407986    15A     -0.392165
      16A     -0.291910    17A     -0.228573    18A     -0.218375
      19A     -0.202686    20A     -0.181026

  @DF-RHF Final Energy:  -302.03307183947447

   => Energetics <=

    Nuclear Repulsion Energy =            167.9902319423835308
    One-Electron Energy =                -757.0863162323971665
    Two-Electron Energy =                 287.0630124505391905
    Total Energy =                       -302.0330718394744736
  Basis Set: (AUG-CC-PVTZ AUX)
    Blend: AUG-CC-PVTZ-RI
    Molecular point group: c1

    Geometry (in Angstrom), charge = -1, multiplicity = 1:

       Center              X                  Y                   Z               Mass
    ------------   -----------------  -----------------  -----------------  -----------------
         O            0.544703784667    -0.712639406484    -0.000013436678    15.994914619570
         O           -0.344356215333     1.400347593516    -0.000001436678    15.994914619570
         O            1.882183784667    -0.136828406484     0.000011563322    15.994914619570
         C           -1.782938215333    -0.533514406484     0.000004563322    12.000000000000
         C           -0.457572915333    -0.027414606484    -0.000003736678    12.000000000000
         H           -1.675362215333    -1.618256406484     0.000031563322     1.007825032230
         H           -2.349271215333    -0.222871406484    -0.881757436678     1.007825032230
         H           -2.349268215333    -0.222848406484     0.881768563322     1.007825032230

  Basis Set: AUG-CC-PVTZ
    Blend: AUG-CC-PVTZ
  Basis Set: (AUG-CC-PVTZ AUX)
    Blend: AUG-CC-PVTZ-JKFIT
	 Reference Energy          =    -302.0330718394744736 [Eh]
	 Singles Energy            =      -0.0000000000000000 [Eh]
	 Same-Spin Energy          =      -0.2881182322881072 [Eh]
	 Opposite-Spin Energy      =      -0.8664968121828978 [Eh]
	 Correlation Energy        =      -1.1546150444710048 [Eh]
	 Total Energy              =    -303.1876868839455028 [Eh]

	 ================> DF-SCS-MP2 Energies <==================
	-----------------------------------------------------------
	 SCS Same-Spin Scale       =       0.3333333333333333 [-]
	 SCS Opposite-Spin Scale   =       1.2000000000000000 [-]
	 SCS Same-Spin Energy      =      -0.0960394107627024 [Eh]
	 SCS Opposite-Spin Energy  =      -1.0397961746194773 [Eh]
	 SCS Correlation Energy    =      -1.1358355853821798 [Eh]
	 SCS Total Energy          =    -303.1689074248566271 [Eh]
	-----------------------------------------------------------

  Dipole Moment: [D]
     X:    -5.5685      Y:    -3.3385      Z:    -0.0000     Total:     6.4926

*** Psi4 exiting successfully. Buy a developer a beer!
