                               Psi4 1.3.2 release

  ==> Input File <==

--------------------------------------------------------------------------
#psi4
#
memory 32 gb

molecule  {
-1 1
  O        0.6232130    -0.7170940    -0.0000140
  O       -0.2658470     1.3958930    -0.0000020
  O        1.9606930    -0.1412830     0.0000110
  C       -1.7044290    -0.5379690     0.0000040
  C       -0.2143536     0.0339809    -0.0000055
  H       -1.5968530    -1.6227110     0.0000310
  H       -2.2707620    -0.2273260    -0.8817580
  H       -2.2707590    -0.2273030     0.8817680
units angstrom
no_reorient  #important for SAPT in psi4, default
symmetry c1  #important for SAPT in psi4, default
}

set PROPERTIES_ORIGIN ["COM"]
properties('MP2/aug-cc-pvtz', properties = ['dipole'])
--------------------------------------------------------------------------

    Molecular point group: c1
  Charge       = -1
  Multiplicity = 1
  Basis Set: AUG-CC-PVTZ
    Blend: AUG-CC-PVTZ
  Basis Set: (AUG-CC-PVTZ AUX)
    Blend: AUG-CC-PVTZ-JKFIT

    Orbital Energies [Eh]
    ---------------------

    Doubly Occupied:

       1A    -20.448499     2A    -20.333938     3A    -20.301293
       4A    -11.179192     5A    -11.079631     6A     -1.367058
       7A     -1.065922     8A     -0.989053     9A     -0.810932
      10A     -0.594720    11A     -0.509311    12A     -0.499984
      13A     -0.456455    14A     -0.406455    15A     -0.399744
      16A     -0.288228    17A     -0.245970    18A     -0.233476
      19A     -0.203058    20A     -0.198944

  @DF-RHF Final Energy:  -302.03639288390423

   => Energetics <=

    Nuclear Repulsion Energy =            169.5303462915082093
    One-Electron Energy =                -759.9097551099830525
    Two-Electron Energy =                 288.3430159345706443
    Total Energy =                       -302.0363928839042273
  Basis Set: (AUG-CC-PVTZ AUX)
    Blend: AUG-CC-PVTZ-RI
    Molecular point group: c1

    Geometry (in Angstrom), charge = -1, multiplicity = 1:

       Center              X                  Y                   Z               Mass
    ------------   -----------------  -----------------  -----------------  -----------------
         O            0.518353056340    -0.723174268010    -0.000013244699    15.994914619570
         O           -0.370706943660     1.389812731990    -0.000001244699    15.994914619570
         O            1.855833056340    -0.147363268010     0.000011755301    15.994914619570
         C           -1.809288943660    -0.544049268010     0.000004755301    12.000000000000
         C           -0.319213543660     0.027900631990    -0.000004744699    12.000000000000
         H           -1.701712943660    -1.628791268010     0.000031755301     1.007825032230
         H           -2.375621943660    -0.233406268010    -0.881757244699     1.007825032230
         H           -2.375618943660    -0.233383268010     0.881768755301     1.007825032230

  Basis Set: AUG-CC-PVTZ
    Blend: AUG-CC-PVTZ
  Basis Set: (AUG-CC-PVTZ AUX)
    Blend: AUG-CC-PVTZ-JKFIT
	 Reference Energy          =    -302.0363928839042273 [Eh]
	 Singles Energy            =      -0.0000000000000000 [Eh]
	 Same-Spin Energy          =      -0.2844413873572129 [Eh]
	 Opposite-Spin Energy      =      -0.8591877429475400 [Eh]
	 Correlation Energy        =      -1.1436291303047530 [Eh]
	 Total Energy              =    -303.1800220142089870 [Eh]

	 ================> DF-SCS-MP2 Energies <==================
	-----------------------------------------------------------
	 SCS Same-Spin Scale       =       0.3333333333333333 [-]
	 SCS Opposite-Spin Scale   =       1.2000000000000000 [-]
	 SCS Same-Spin Energy      =      -0.0948137957857376 [Eh]
	 SCS Opposite-Spin Energy  =      -1.0310252915370479 [Eh]
	 SCS Correlation Energy    =      -1.1258390873227855 [Eh]
	 SCS Total Energy          =    -303.1622319712270155 [Eh]
	-----------------------------------------------------------

  Dipole Moment: [D]
     X:    -4.6956      Y:    -2.9882      Z:    -0.0000     Total:     5.5658

*** Psi4 exiting successfully. Buy a developer a beer!
