                               Psi4 1.3.2 release

  ==> Input File <==

--------------------------------------------------------------------------
#psi4
#
memory 32 gb

molecule  {
-1 1
  O        0.6232130    -0.7170940    -0.0000140
  O       -0.2658470     1.3958930    -0.0000020
  O        1.9606930    -0.1412830     0.0000110
  C       -1.7044290    -0.5379690     0.0000040
  C       -0.2888038     0.1007430    -0.0000048
  H       -1.5968530    -1.6227110     0.0000310
  H       -2.2707620    -0.2273260    -0.8817580
  H       -2.2707590    -0.2273030     0.8817680
units angstrom
no_reorient  #important for SAPT in psi4, default
symmetry c1  #important for SAPT in psi4, default
}

set PROPERTIES_ORIGIN ["COM"]
properties('MP2/aug-cc-pvtz', properties = ['dipole'])
--------------------------------------------------------------------------

    Molecular point group: c1
  Charge       = -1
  Multiplicity = 1
  Basis Set: AUG-CC-PVTZ
    Blend: AUG-CC-PVTZ
  Basis Set: (AUG-CC-PVTZ AUX)
    Blend: AUG-CC-PVTZ-JKFIT

    Orbital Energies [Eh]
    ---------------------

    Doubly Occupied:

       1A    -20.428121     2A    -20.322261     3A    -20.314666
       4A    -11.184136     5A    -11.084140     6A     -1.297655
       7A     -1.112872     8A     -0.956359     9A     -0.821773
      10A     -0.574895    11A     -0.492143    12A     -0.471254
      13A     -0.461938    14A     -0.402254    15A     -0.401463
      16A     -0.310179    17A     -0.263174    18A     -0.233123
      19A     -0.206093    20A     -0.182397

  @DF-RHF Final Energy:  -302.08168248021269

   => Energetics <=

    Nuclear Repulsion Energy =            168.6475137169588834
    One-Electron Energy =                -758.4166004852992273
    Two-Electron Energy =                 287.6874042881276523
    Total Energy =                       -302.0816824802126916
  Basis Set: (AUG-CC-PVTZ AUX)
    Blend: AUG-CC-PVTZ-RI
    Molecular point group: c1

    Geometry (in Angstrom), charge = -1, multiplicity = 1:

       Center              X                  Y                   Z               Mass
    ------------   -----------------  -----------------  -----------------  -----------------
         O            0.530263783090    -0.733855033547    -0.000013356687    15.994914619570
         O           -0.358796216910     1.379131966453    -0.000001356687    15.994914619570
         O            1.867743783090    -0.158044033547     0.000011643313    15.994914619570
         C           -1.797378216910    -0.554730033547     0.000004643313    12.000000000000
         C           -0.381753016910     0.083981966453    -0.000004156687    12.000000000000
         H           -1.689802216910    -1.639472033547     0.000031643313     1.007825032230
         H           -2.363711216910    -0.244087033547    -0.881757356687     1.007825032230
         H           -2.363708216910    -0.244064033547     0.881768643313     1.007825032230

  Basis Set: AUG-CC-PVTZ
    Blend: AUG-CC-PVTZ
  Basis Set: (AUG-CC-PVTZ AUX)
    Blend: AUG-CC-PVTZ-JKFIT
	 Reference Energy          =    -302.0816824802126916 [Eh]
	 Singles Energy            =      -0.0000000000000000 [Eh]
	 Same-Spin Energy          =      -0.2857570586044676 [Eh]
	 Opposite-Spin Energy      =      -0.8619659506799215 [Eh]
	 Correlation Energy        =      -1.1477230092843891 [Eh]
	 Total Energy              =    -303.2294054894970827 [Eh]

	 ================> DF-SCS-MP2 Energies <==================
	-----------------------------------------------------------
	 SCS Same-Spin Scale       =       0.3333333333333333 [-]
	 SCS Opposite-Spin Scale   =       1.2000000000000000 [-]
	 SCS Same-Spin Energy      =      -0.0952523528681559 [Eh]
	 SCS Opposite-Spin Energy  =      -1.0343591408159059 [Eh]
	 SCS Correlation Energy    =      -1.1296114936840618 [Eh]
	 SCS Total Energy          =    -303.2112939738967725 [Eh]
	-----------------------------------------------------------

  Dipole Moment: [D]
     X:    -5.4793      Y:    -2.3218      Z:    -0.0000     Total:     5.9509

*** Psi4 exiting successfully. Buy a developer a beer!
