                               Psi4 1.3.2 release

  ==> Input File <==

--------------------------------------------------------------------------
#psi4
#
memory 32 gb

molecule  {
-1 1
  O        0.5253433    -0.8153620    -0.0000136
  O       -0.2658470     1.3958930    -0.0000020
  O        1.9606930    -0.1412830     0.0000110
  C       -1.7044290    -0.5379690     0.0000040
  C       -0.3632540     0.1675050    -0.0000040
  H       -1.5968530    -1.6227110     0.0000310
  H       -2.2707620    -0.2273260    -0.8817580
  H       -2.2707590    -0.2273030     0.8817680
units angstrom
no_reorient  #important for SAPT in psi4, default
symmetry c1  #important for SAPT in psi4, default
}

set PROPERTIES_ORIGIN ["COM"]
properties('MP2/aug-cc-pvtz', properties = ['dipole'])
--------------------------------------------------------------------------

    Molecular point group: c1
  Charge       = -1
  Multiplicity = 1
  Basis Set: AUG-CC-PVTZ
    Blend: AUG-CC-PVTZ
  Basis Set: (AUG-CC-PVTZ AUX)
    Blend: AUG-CC-PVTZ-JKFIT

    Orbital Energies [Eh]
    ---------------------

    Doubly Occupied:

       1A    -20.397456     2A    -20.346221     3A    -20.322448
       4A    -11.185474     5A    -11.076564     6A     -1.229800
       7A     -1.145692     8A     -0.930417     9A     -0.823720
      10A     -0.566721    11A     -0.473253    12A     -0.460830
      13A     -0.457021    14A     -0.407357    15A     -0.374694
      16A     -0.286279    17A     -0.281258    18A     -0.243514
      19A     -0.211050    20A     -0.190980

  @DF-RHF Final Energy:  -302.07846101805069

   => Energetics <=

    Nuclear Repulsion Energy =            166.4056545429581320
    One-Electron Energy =                -754.1467369573181259
    Two-Electron Energy =                 285.6626213963093051
    Total Energy =                       -302.0784610180506888
  Basis Set: (AUG-CC-PVTZ AUX)
    Blend: AUG-CC-PVTZ-RI
    Molecular point group: c1

    Geometry (in Angstrom), charge = -1, multiplicity = 1:

       Center              X                  Y                   Z               Mass
    ------------   -----------------  -----------------  -----------------  -----------------
         O            0.465174756056    -0.821848902517    -0.000013169970    15.994914619570
         O           -0.326015543944     1.389406097483    -0.000001569970    15.994914619570
         O            1.900524456056    -0.147769902517     0.000011430030    15.994914619570
         C           -1.764597543944    -0.544455902517     0.000004430030    12.000000000000
         C           -0.423422543944     0.161018097483    -0.000003569970    12.000000000000
         H           -1.657021543944    -1.629197902517     0.000031430030     1.007825032230
         H           -2.330930543944    -0.233812902517    -0.881757569970     1.007825032230
         H           -2.330927543944    -0.233789902517     0.881768430030     1.007825032230

  Basis Set: AUG-CC-PVTZ
    Blend: AUG-CC-PVTZ
  Basis Set: (AUG-CC-PVTZ AUX)
    Blend: AUG-CC-PVTZ-JKFIT
	 Reference Energy          =    -302.0784610180506888 [Eh]
	 Singles Energy            =      -0.0000000000000000 [Eh]
	 Same-Spin Energy          =      -0.2858338261975523 [Eh]
	 Opposite-Spin Energy      =      -0.8663310894519597 [Eh]
	 Correlation Energy        =      -1.1521649156495120 [Eh]
	 Total Energy              =    -303.2306259337001961 [Eh]

	 ================> DF-SCS-MP2 Energies <==================
	-----------------------------------------------------------
	 SCS Same-Spin Scale       =       0.3333333333333333 [-]
	 SCS Opposite-Spin Scale   =       1.2000000000000000 [-]
	 SCS Same-Spin Energy      =      -0.0952779420658507 [Eh]
	 SCS Opposite-Spin Energy  =      -1.0395973073423517 [Eh]
	 SCS Correlation Energy    =      -1.1348752494082024 [Eh]
	 SCS Total Energy          =    -303.2133362674588852 [Eh]
	-----------------------------------------------------------

  Dipole Moment: [D]
     X:    -6.2223      Y:    -1.4812      Z:    -0.0000     Total:     6.3961

*** Psi4 exiting successfully. Buy a developer a beer!
