                               Psi4 1.3.2 release

  ==> Input File <==

--------------------------------------------------------------------------
#psi4
#
memory 32 gb

molecule  {
-1 1
  O        0.6232130    -0.7170940    -0.0000140
  O       -0.2658470     1.3958930    -0.0000020
  O        1.9504400    -0.1180285     0.0000114
  C       -1.7044290    -0.5379690     0.0000040
  C       -0.3632540     0.1675050    -0.0000040
  H       -1.5968530    -1.6227110     0.0000310
  H       -2.2707620    -0.2273260    -0.8817580
  H       -2.2707590    -0.2273030     0.8817680
units angstrom
no_reorient  #important for SAPT in psi4, default
symmetry c1  #important for SAPT in psi4, default
}

set PROPERTIES_ORIGIN ["COM"]
properties('MP2/aug-cc-pvtz', properties = ['dipole'])
--------------------------------------------------------------------------

    Molecular point group: c1
  Charge       = -1
  Multiplicity = 1
  Basis Set: AUG-CC-PVTZ
    Blend: AUG-CC-PVTZ
  Basis Set: (AUG-CC-PVTZ AUX)
    Blend: AUG-CC-PVTZ-JKFIT

    Orbital Energies [Eh]
    ---------------------

    Doubly Occupied:

       1A    -20.406575     2A    -20.343054     3A    -20.296021
       4A    -11.185458     5A    -11.088002     6A     -1.250262
       7A     -1.152901     8A     -0.926166     9A     -0.829611
      10A     -0.567382    11A     -0.485243    12A     -0.464185
      13A     -0.463225    14A     -0.410552    15A     -0.388819
      16A     -0.310191    17A     -0.285179    18A     -0.250772
      19A     -0.186330    20A     -0.161409

  @DF-RHF Final Energy:  -302.09100526037957

   => Energetics <=

    Nuclear Repulsion Energy =            168.2482647268116125
    One-Electron Energy =                -757.7758589120713850
    Two-Electron Energy =                 287.4365889248801977
    Total Energy =                       -302.0910052603795748
  Basis Set: (AUG-CC-PVTZ AUX)
    Blend: AUG-CC-PVTZ-RI
    Molecular point group: c1

    Geometry (in Angstrom), charge = -1, multiplicity = 1:

       Center              X                  Y                   Z               Mass
    ------------   -----------------  -----------------  -----------------  -----------------
         O            0.544360881705    -0.749494622893    -0.000013569970    15.994914619570
         O           -0.344699118295     1.363492377107    -0.000001569970    15.994914619570
         O            1.871587881705    -0.150429122893     0.000011830030    15.994914619570
         C           -1.783281118295    -0.570369622893     0.000004430030    12.000000000000
         C           -0.442106118295     0.135104377107    -0.000003569970    12.000000000000
         H           -1.675705118295    -1.655111622893     0.000031430030     1.007825032230
         H           -2.349614118295    -0.259726622893    -0.881757569970     1.007825032230
         H           -2.349611118295    -0.259703622893     0.881768430030     1.007825032230

  Basis Set: AUG-CC-PVTZ
    Blend: AUG-CC-PVTZ
  Basis Set: (AUG-CC-PVTZ AUX)
    Blend: AUG-CC-PVTZ-JKFIT
	 Reference Energy          =    -302.0910052603795748 [Eh]
	 Singles Energy            =      -0.0000000000000000 [Eh]
	 Same-Spin Energy          =      -0.2870283781920536 [Eh]
	 Opposite-Spin Energy      =      -0.8645175114890411 [Eh]
	 Correlation Energy        =      -1.1515458896810946 [Eh]
	 Total Energy              =    -303.2425511500606490 [Eh]

	 ================> DF-SCS-MP2 Energies <==================
	-----------------------------------------------------------
	 SCS Same-Spin Scale       =       0.3333333333333333 [-]
	 SCS Opposite-Spin Scale   =       1.2000000000000000 [-]
	 SCS Same-Spin Energy      =      -0.0956761260640179 [Eh]
	 SCS Opposite-Spin Energy  =      -1.0374210137868494 [Eh]
	 SCS Correlation Energy    =      -1.1330971398508671 [Eh]
	 SCS Total Energy          =    -303.2241024002304357 [Eh]
	-----------------------------------------------------------

  Dipole Moment: [D]
     X:    -6.2362      Y:    -1.7253      Z:    -0.0000     Total:     6.4704

*** Psi4 exiting successfully. Buy a developer a beer!
