                               Psi4 1.4a3.dev225

  ==> Input File <==

--------------------------------------------------------------------------
#psi4
#
memory 32 gb

molecule  {
-1 1
  O        0.6232130    -0.7170940    -0.0000140
  O       -0.2658470     1.3958930    -0.0000020
  O        1.9147682    -0.1610545     0.0000101
  C       -1.7044290    -0.5379690     0.0000040
  C       -0.3632540     0.1675050    -0.0000040
  H       -1.5968530    -1.6227110     0.0000310
  H       -2.2707620    -0.2273260    -0.8817580
  H       -2.2707590    -0.2273030     0.8817680
units angstrom
no_reorient  #important for SAPT in psi4, default
symmetry c1  #important for SAPT in psi4, default
}

set PROPERTIES_ORIGIN ["COM"]
properties('MP2/aug-cc-pvtz', properties = ['dipole'])
--------------------------------------------------------------------------

    Molecular point group: c1
  Charge       = -1
  Multiplicity = 1
  Basis Set: AUG-CC-PVTZ
    Blend: AUG-CC-PVTZ
  Basis Set: (AUG-CC-PVTZ AUX)
    Blend: AUG-CC-PVTZ-JKFIT

    Orbital Energies [Eh]
    ---------------------

    Doubly Occupied:

       1A    -20.412372     2A    -20.343799     3A    -20.286345
       4A    -11.185404     5A    -11.088656     6A     -1.263947
       7A     -1.158974     8A     -0.927576     9A     -0.827888
      10A     -0.568228    11A     -0.489423    12A     -0.466812
      13A     -0.464257    14A     -0.411951    15A     -0.394513
      16A     -0.320887    17A     -0.289102    18A     -0.252498
      19A     -0.177631    20A     -0.150264

  @DF-RHF Final Energy:  -302.09096828485531

   => Energetics <=

    Nuclear Repulsion Energy =            169.3442424886341939
    One-Electron Energy =                -759.9093642424749078
    Two-Electron Energy =                 288.4741534689853779
    Total Energy =                       -302.0909682848553075
  Basis Set: (AUG-CC-PVTZ AUX)
    Blend: AUG-CC-PVTZ-RI
    Molecular point group: c1

    Geometry (in Angstrom), charge = -1, multiplicity = 1:

       Center              X                  Y                   Z               Mass
    ------------   -----------------  -----------------  -----------------  -----------------
         O            0.551967613385    -0.740319665721    -0.000013292755    15.994914619570
         O           -0.337092386615     1.372667334279    -0.000001292755    15.994914619570
         O            1.843522813385    -0.184280165721     0.000010807245    15.994914619570
         C           -1.775674386615    -0.561194665721     0.000004707245    12.000000000000
         C           -0.434499386615     0.144279334279    -0.000003292755    12.000000000000
         H           -1.668098386615    -1.645936665721     0.000031707245     1.007825032230
         H           -2.342007386615    -0.250551665721    -0.881757292755     1.007825032230
         H           -2.342004386615    -0.250528665721     0.881768707245     1.007825032230

  Basis Set: AUG-CC-PVTZ
    Blend: AUG-CC-PVTZ
  Basis Set: (AUG-CC-PVTZ AUX)
    Blend: AUG-CC-PVTZ-JKFIT
	 Reference Energy          =    -302.0909682848553075 [Eh]
	 Singles Energy            =      -0.0000000000000000 [Eh]
	 Same-Spin Energy          =      -0.2877898883600285 [Eh]
	 Opposite-Spin Energy      =      -0.8642451393678032 [Eh]
	 Correlation Energy        =      -1.1520350277278317 [Eh]
	 Total Energy              =    -303.2430033125831415 [Eh]

	 ================> DF-SCS-MP2 Energies <==================
	-----------------------------------------------------------
	 SCS Same-Spin Scale       =       0.3333333333333333 [-]
	 SCS Opposite-Spin Scale   =       1.2000000000000000 [-]
	 SCS Same-Spin Energy      =      -0.0959299627866762 [Eh]
	 SCS Opposite-Spin Energy  =      -1.0370941672413638 [Eh]
	 SCS Correlation Energy    =      -1.1330241300280399 [Eh]
	 SCS Total Energy          =    -303.2239924148833552 [Eh]
	-----------------------------------------------------------

  Dipole Moment: [D]
     X:    -6.1075      Y:    -1.7254      Z:    -0.0000     Total:     6.3465

*** Psi4 exiting successfully. Buy a developer a beer!
