                               Psi4 1.3.2 release

  ==> Input File <==

--------------------------------------------------------------------------
#psi4
#
memory 32 gb

molecule  {
-1 1
  O        0.5917400    -0.7509823    -0.0000138
  O       -0.2658470     1.3958930    -0.0000020
  O        1.9606930    -0.1412830     0.0000110
  C       -1.7044290    -0.5379690     0.0000040
  C       -0.3632540     0.1675050    -0.0000040
  H       -1.5968530    -1.6227110     0.0000310
  H       -2.2707620    -0.2273260    -0.8817580
  H       -2.2707590    -0.2273030     0.8817680
units angstrom
no_reorient  #important for SAPT in psi4, default
symmetry c1  #important for SAPT in psi4, default
}

set PROPERTIES_ORIGIN ["COM"]
properties('MP2/aug-cc-pvtz', properties = ['dipole'])
--------------------------------------------------------------------------

    Molecular point group: c1
  Charge       = -1
  Multiplicity = 1
  Basis Set: AUG-CC-PVTZ
    Blend: AUG-CC-PVTZ
  Basis Set: (AUG-CC-PVTZ AUX)
    Blend: AUG-CC-PVTZ-JKFIT

    Orbital Energies [Eh]
    ---------------------

    Doubly Occupied:

       1A    -20.403699     2A    -20.344683     3A    -20.304779
       4A    -11.185999     5A    -11.084555     6A     -1.242050
       7A     -1.150670     8A     -0.927134     9A     -0.828088
      10A     -0.567562    11A     -0.481156    12A     -0.462800
      13A     -0.461927    14A     -0.409718    15A     -0.383932
      16A     -0.301699    17A     -0.284203    18A     -0.249601
      19A     -0.194597    20A     -0.171516

  @DF-RHF Final Energy:  -302.08904947188950

   => Energetics <=

    Nuclear Repulsion Energy =            167.4729331011654381
    One-Electron Energy =                -756.2432306554291017
    Two-Electron Energy =                 286.6812480823741112
    Total Energy =                       -302.0890494718894956
  Basis Set: (AUG-CC-PVTZ AUX)
    Blend: AUG-CC-PVTZ-RI
    Molecular point group: c1

    Geometry (in Angstrom), charge = -1, multiplicity = 1:

       Center              X                  Y                   Z               Mass
    ------------   -----------------  -----------------  -----------------  -----------------
         O            0.517412880338    -0.771197668798    -0.000013327322    15.994914619570
         O           -0.340174119662     1.375677631202    -0.000001527322    15.994914619570
         O            1.886365880338    -0.161498368798     0.000011472678    15.994914619570
         C           -1.778756119662    -0.558184368798     0.000004472678    12.000000000000
         C           -0.437581119662     0.147289631202    -0.000003527322    12.000000000000
         H           -1.671180119662    -1.642926368798     0.000031472678     1.007825032230
         H           -2.345089119662    -0.247541368798    -0.881757527322     1.007825032230
         H           -2.345086119662    -0.247518368798     0.881768472678     1.007825032230

  Basis Set: AUG-CC-PVTZ
    Blend: AUG-CC-PVTZ
  Basis Set: (AUG-CC-PVTZ AUX)
    Blend: AUG-CC-PVTZ-JKFIT
	 Reference Energy          =    -302.0890494718894956 [Eh]
	 Singles Energy            =      -0.0000000000000000 [Eh]
	 Same-Spin Energy          =      -0.2865545572053070 [Eh]
	 Opposite-Spin Energy      =      -0.8650686452690124 [Eh]
	 Correlation Energy        =      -1.1516232024743194 [Eh]
	 Total Energy              =    -303.2406726743637932 [Eh]

	 ================> DF-SCS-MP2 Energies <==================
	-----------------------------------------------------------
	 SCS Same-Spin Scale       =       0.3333333333333333 [-]
	 SCS Opposite-Spin Scale   =       1.2000000000000000 [-]
	 SCS Same-Spin Energy      =      -0.0955181857351023 [Eh]
	 SCS Opposite-Spin Energy  =      -1.0380823743228149 [Eh]
	 SCS Correlation Energy    =      -1.1336005600579173 [Eh]
	 SCS Total Energy          =    -303.2226500319474098 [Eh]
	-----------------------------------------------------------

  Dipole Moment: [D]
     X:    -6.2617      Y:    -1.6100      Z:    -0.0000     Total:     6.4653

*** Psi4 exiting successfully. Buy a developer a beer!
