                               Psi4 1.3.2 release

  ==> Input File <==

--------------------------------------------------------------------------
#psi4
#
memory 32 gb

molecule  {
0 1
  C        1.2416220     1.4034370    -0.0000100
  C        2.4325270     0.7073060     0.0000070
  C        2.4325270    -0.7073070    -0.0000060
  C        1.2416220    -1.4034370     0.0000270
  C        0.0000000    -0.7164940    -0.0000890
  C       -1.2416220    -1.4034360     0.0000440
  C       -2.4325280    -0.7073070    -0.0000350
  C       -2.4325270     0.7073060     0.0000360
  C       -1.2416230     1.4034370    -0.0000280
  C        0.0000000     0.7164930     0.0000370
  H        1.2406550     2.4926530    -0.0000150
  H        3.3769801     1.2466381     0.1000290
  H        3.3769830    -1.2466390     0.0000450
  H        1.2406520    -2.4926530    -0.0000080
  H       -1.2406510    -2.4926520    -0.0000430
  H       -3.3769830    -1.2466380     0.0000750
  H       -3.3769830     1.2466370     0.0000000
  H       -1.2406540     2.4926530     0.0000170
units angstrom
no_reorient  #important for SAPT in psi4, default
symmetry c1  #important for SAPT in psi4, default
}

set PROPERTIES_ORIGIN ["COM"]
properties('MP2/aug-cc-pvtz', properties = ['dipole'])
--------------------------------------------------------------------------

    Molecular point group: c1
  Charge       = 0
  Multiplicity = 1
  Basis Set: AUG-CC-PVTZ
    Blend: AUG-CC-PVTZ
  Basis Set: (AUG-CC-PVTZ AUX)
    Blend: AUG-CC-PVTZ-JKFIT

    Orbital Energies [Eh]
    ---------------------

    Doubly Occupied:

       1A    -11.246798     2A    -11.245794     3A    -11.240145
       4A    -11.240025     5A    -11.239798     6A    -11.239704
       7A    -11.238815     8A    -11.238694     9A    -11.238031
      10A    -11.237914    11A     -1.175731    12A     -1.108562
      13A     -1.050462    14A     -1.008488    15A     -0.980101
      16A     -0.854537    17A     -0.835859    18A     -0.811133
      19A     -0.706666    20A     -0.698377    21A     -0.676659
      22A     -0.623830    23A     -0.611426    24A     -0.583844
      25A     -0.583013    26A     -0.563567    27A     -0.533601
      28A     -0.525230    29A     -0.488937    30A     -0.478247
      31A     -0.448141    32A     -0.386456    33A     -0.320210
      34A     -0.288700

  @DF-RHF Final Energy:  -383.47589332574449

   => Energetics <=

    Nuclear Repulsion Energy =            457.2741765341176574
    One-Electron Energy =               -1424.0051472695383836
    Two-Electron Energy =                 583.2550774096761188
    Total Energy =                       -383.4758933257445506
  Basis Set: (AUG-CC-PVTZ AUX)
    Blend: AUG-CC-PVTZ-RI
    Molecular point group: c1

    Geometry (in Angstrom), charge = 0, multiplicity = 1:

       Center              X                  Y                   Z               Mass
    ------------   -----------------  -----------------  -----------------  -----------------
         C            1.241622194491     1.403437194491    -0.000796172431    12.000000000000
         C            2.432527194491     0.707306194491    -0.000779172431    12.000000000000
         C            2.432527194491    -0.707306805509    -0.000792172431    12.000000000000
         C            1.241622194491    -1.403436805509    -0.000759172431    12.000000000000
         C            0.000000194491    -0.716493805509    -0.000875172431    12.000000000000
         C           -1.241621805509    -1.403435805509    -0.000742172431    12.000000000000
         C           -2.432527805509    -0.707306805509    -0.000821172431    12.000000000000
         C           -2.432526805509     0.707306194491    -0.000750172431    12.000000000000
         C           -1.241622805509     1.403437194491    -0.000814172431    12.000000000000
         C            0.000000194491     0.716493194491    -0.000749172431    12.000000000000
         H            1.240655194491     2.492653194491    -0.000801172431     1.007825032230
         H            3.376980294491     1.246638294491     0.099242827569     1.007825032230
         H            3.376983194491    -1.246638805509    -0.000741172431     1.007825032230
         H            1.240652194491    -2.492652805509    -0.000794172431     1.007825032230
         H           -1.240650805509    -2.492651805509    -0.000829172431     1.007825032230
         H           -3.376982805509    -1.246637805509    -0.000711172431     1.007825032230
         H           -3.376982805509     1.246637194491    -0.000786172431     1.007825032230
         H           -1.240653805509     2.492653194491    -0.000769172431     1.007825032230

  Basis Set: AUG-CC-PVTZ
    Blend: AUG-CC-PVTZ
  Basis Set: (AUG-CC-PVTZ AUX)
    Blend: AUG-CC-PVTZ-JKFIT
	 Reference Energy          =    -383.4758933257444937 [Eh]
	 Singles Energy            =      -0.0000000000000000 [Eh]
	 Same-Spin Energy          =      -0.4343044138689450 [Eh]
	 Opposite-Spin Energy      =      -1.3480439653245775 [Eh]
	 Correlation Energy        =      -1.7823483791935226 [Eh]
	 Total Energy              =    -385.2582417049380297 [Eh]

	 ================> DF-SCS-MP2 Energies <==================
	-----------------------------------------------------------
	 SCS Same-Spin Scale       =       0.3333333333333333 [-]
	 SCS Opposite-Spin Scale   =       1.2000000000000000 [-]
	 SCS Same-Spin Energy      =      -0.1447681379563150 [Eh]
	 SCS Opposite-Spin Energy  =      -1.6176527583894929 [Eh]
	 SCS Correlation Energy    =      -1.7624208963458079 [Eh]
	 SCS Total Energy          =    -385.2383142220903096 [Eh]
	-----------------------------------------------------------

  Dipole Moment: [D]
     X:    -0.0095      Y:    -0.0041      Z:     0.0633     Total:     0.0642

*** Psi4 exiting successfully. Buy a developer a beer!
