                               Psi4 1.3.2 release

  ==> Input File <==

--------------------------------------------------------------------------
#psi4
#
memory 32 gb

molecule  {
0 1
  C        1.2416220     1.4034370    -0.0000100
  C        2.4325270     0.7073060     0.0000070
  C        2.4325270    -0.7073070    -0.0000060
  C        1.2416220    -1.4034370     0.0000270
  C        0.0000000    -0.7164940    -0.0000890
  C       -1.2416220    -1.4034360     0.0000440
  C       -2.4325280    -0.7073070    -0.0000350
  C       -2.4325270     0.7073060     0.0000360
  C       -1.2416230     1.4034370    -0.0000280
  C       -0.0000021     0.7164932    -0.2999630
  H        1.2406550     2.4926530    -0.0000150
  H        3.3769820     1.2466390     0.0000290
  H        3.3769830    -1.2466390     0.0000450
  H        1.2406520    -2.4926530    -0.0000080
  H       -1.2406510    -2.4926520    -0.0000430
  H       -3.3769830    -1.2466380     0.0000750
  H       -3.3769830     1.2466370     0.0000000
  H       -1.2406540     2.4926530     0.0000170
units angstrom
no_reorient  #important for SAPT in psi4, default
symmetry c1  #important for SAPT in psi4, default
}

set PROPERTIES_ORIGIN ["COM"]
properties('MP2/aug-cc-pvtz', properties = ['dipole'])
--------------------------------------------------------------------------

    Molecular point group: c1
  Charge       = 0
  Multiplicity = 1
  Basis Set: AUG-CC-PVTZ
    Blend: AUG-CC-PVTZ
  Basis Set: (AUG-CC-PVTZ AUX)
    Blend: AUG-CC-PVTZ-JKFIT

    Orbital Energies [Eh]
    ---------------------

    Doubly Occupied:

       1A    -11.253739     2A    -11.252026     3A    -11.244517
       4A    -11.244457     5A    -11.241214     6A    -11.241210
       7A    -11.238121     8A    -11.238069     9A    -11.236824
      10A    -11.236823    11A     -1.171253    12A     -1.107654
      13A     -1.047305    14A     -1.005789    15A     -0.979172
      16A     -0.851602    17A     -0.834226    18A     -0.805735
      19A     -0.705468    20A     -0.695311    21A     -0.676043
      22A     -0.624344    23A     -0.606403    24A     -0.583527
      25A     -0.577894    26A     -0.563875    27A     -0.528573
      28A     -0.525034    29A     -0.488178    30A     -0.475037
      31A     -0.443841    32A     -0.381304    33A     -0.320018
      34A     -0.287129

  @DF-RHF Final Energy:  -383.44464611332114

   => Energetics <=

    Nuclear Repulsion Energy =            456.0746122893432357
    One-Electron Energy =               -1421.6150951771298878
    Two-Electron Energy =                 582.0958367744655106
    Total Energy =                       -383.4446461133211415
  Basis Set: (AUG-CC-PVTZ AUX)
    Blend: AUG-CC-PVTZ-RI
    Molecular point group: c1

    Geometry (in Angstrom), charge = 0, multiplicity = 1:

       Center              X                  Y                   Z               Mass
    ------------   -----------------  -----------------  -----------------  -----------------
         C            1.241622376317     1.403437168668     0.028102057777    12.000000000000
         C            2.432527376317     0.707306168668     0.028119057777    12.000000000000
         C            2.432527376317    -0.707306831332     0.028106057777    12.000000000000
         C            1.241622376317    -1.403436831332     0.028139057777    12.000000000000
         C            0.000000376317    -0.716493831332     0.028023057777    12.000000000000
         C           -1.241621623683    -1.403435831332     0.028156057777    12.000000000000
         C           -2.432527623683    -0.707306831332     0.028077057777    12.000000000000
         C           -2.432526623683     0.707306168668     0.028148057777    12.000000000000
         C           -1.241622623683     1.403437168668     0.028084057777    12.000000000000
         C           -0.000001723683     0.716493368668    -0.271850942223    12.000000000000
         H            1.240655376317     2.492653168668     0.028097057777     1.007825032230
         H            3.376982376317     1.246639168668     0.028141057777     1.007825032230
         H            3.376983376317    -1.246638831332     0.028157057777     1.007825032230
         H            1.240652376317    -2.492652831332     0.028104057777     1.007825032230
         H           -1.240650623683    -2.492651831332     0.028069057777     1.007825032230
         H           -3.376982623683    -1.246637831332     0.028187057777     1.007825032230
         H           -3.376982623683     1.246637168668     0.028112057777     1.007825032230
         H           -1.240653623683     2.492653168668     0.028129057777     1.007825032230

  Basis Set: AUG-CC-PVTZ
    Blend: AUG-CC-PVTZ
  Basis Set: (AUG-CC-PVTZ AUX)
    Blend: AUG-CC-PVTZ-JKFIT
	 Reference Energy          =    -383.4446461133211415 [Eh]
	 Singles Energy            =      -0.0000000000000000 [Eh]
	 Same-Spin Energy          =      -0.4355010055953021 [Eh]
	 Opposite-Spin Energy      =      -1.3513405544187300 [Eh]
	 Correlation Energy        =      -1.7868415600140322 [Eh]
	 Total Energy              =    -385.2314876733351525 [Eh]

	 ================> DF-SCS-MP2 Energies <==================
	-----------------------------------------------------------
	 SCS Same-Spin Scale       =       0.3333333333333333 [-]
	 SCS Opposite-Spin Scale   =       1.2000000000000000 [-]
	 SCS Same-Spin Energy      =      -0.1451670018651007 [Eh]
	 SCS Opposite-Spin Energy  =      -1.6216086653024759 [Eh]
	 SCS Correlation Energy    =      -1.7667756671675767 [Eh]
	 SCS Total Energy          =    -385.2114217804887062 [Eh]
	-----------------------------------------------------------

  Dipole Moment: [D]
     X:    -0.0000      Y:    -0.0634      Z:    -0.0063     Total:     0.0637

*** Psi4 exiting successfully. Buy a developer a beer!
