                               Psi4 1.3.2 release

  ==> Input File <==

--------------------------------------------------------------------------
#psi4
#
memory 32 gb

molecule  {
0 1
  C        1.2416220     1.4034370    -0.0000100
  C        2.4325270     0.7073060     0.0000070
  C        2.4325270    -0.7073070    -0.0000060
  C        1.2416220    -1.4034370     0.0000270
  C        0.0000000    -0.7164940    -0.0000890
  C       -1.2416220    -1.4034360     0.0000440
  C       -2.4325280    -0.7073070    -0.0000350
  C       -2.4325270     0.7073060     0.0000360
  C       -1.2416230     1.4034370    -0.0000280
  C        0.0000000     0.7164930     0.0000370
  H        1.2406531     2.4926499    -0.1500150
  H        3.3769820     1.2466390     0.0000290
  H        3.3769830    -1.2466390     0.0000450
  H        1.2406520    -2.4926530    -0.0000080
  H       -1.2406510    -2.4926520    -0.0000430
  H       -3.3769830    -1.2466380     0.0000750
  H       -3.3769830     1.2466370     0.0000000
  H       -1.2406540     2.4926530     0.0000170
units angstrom
no_reorient  #important for SAPT in psi4, default
symmetry c1  #important for SAPT in psi4, default
}

set PROPERTIES_ORIGIN ["COM"]
properties('MP2/aug-cc-pvtz', properties = ['dipole'])
--------------------------------------------------------------------------

    Molecular point group: c1
  Charge       = 0
  Multiplicity = 1
  Basis Set: AUG-CC-PVTZ
    Blend: AUG-CC-PVTZ
  Basis Set: (AUG-CC-PVTZ AUX)
    Blend: AUG-CC-PVTZ-JKFIT

    Orbital Energies [Eh]
    ---------------------

    Doubly Occupied:

       1A    -11.246816     2A    -11.245813     3A    -11.240559
       4A    -11.240034     5A    -11.239990     6A    -11.239694
       7A    -11.238951     8A    -11.238666     9A    -11.238058
      10A    -11.237891    11A     -1.175726    12A     -1.108609
      13A     -1.050306    14A     -1.008604    15A     -0.979991
      16A     -0.854514    17A     -0.836027    18A     -0.810533
      19A     -0.706815    20A     -0.697982    21A     -0.676851
      22A     -0.623004    23A     -0.611575    24A     -0.583950
      25A     -0.582352    26A     -0.563804    27A     -0.533954
      28A     -0.524613    29A     -0.489052    30A     -0.478024
      31A     -0.448162    32A     -0.386219    33A     -0.320283
      34A     -0.288701

  @DF-RHF Final Energy:  -383.47511112653012

   => Energetics <=

    Nuclear Repulsion Energy =            457.2507936485621940
    One-Electron Energy =               -1423.9595683412169365
    Two-Electron Energy =                 583.2336635661246191
    Total Energy =                       -383.4751111265301233
  Basis Set: (AUG-CC-PVTZ AUX)
    Blend: AUG-CC-PVTZ-RI
    Molecular point group: c1

    Geometry (in Angstrom), charge = 0, multiplicity = 1:

       Center              X                  Y                   Z               Mass
    ------------   -----------------  -----------------  -----------------  -----------------
         C            1.241622194491     1.403437211805     0.001171273627    12.000000000000
         C            2.432527194491     0.707306211805     0.001188273627    12.000000000000
         C            2.432527194491    -0.707306788195     0.001175273627    12.000000000000
         C            1.241622194491    -1.403436788195     0.001208273627    12.000000000000
         C            0.000000194491    -0.716493788195     0.001092273627    12.000000000000
         C           -1.241621805509    -1.403435788195     0.001225273627    12.000000000000
         C           -2.432527805509    -0.707306788195     0.001146273627    12.000000000000
         C           -2.432526805509     0.707306211805     0.001217273627    12.000000000000
         C           -1.241622805509     1.403437211805     0.001153273627    12.000000000000
         C            0.000000194491     0.716493211805     0.001218273627    12.000000000000
         H            1.240653294491     2.492650111805    -0.148833726373     1.007825032230
         H            3.376982194491     1.246639211805     0.001210273627     1.007825032230
         H            3.376983194491    -1.246638788195     0.001226273627     1.007825032230
         H            1.240652194491    -2.492652788195     0.001173273627     1.007825032230
         H           -1.240650805509    -2.492651788195     0.001138273627     1.007825032230
         H           -3.376982805509    -1.246637788195     0.001256273627     1.007825032230
         H           -3.376982805509     1.246637211805     0.001181273627     1.007825032230
         H           -1.240653805509     2.492653211805     0.001198273627     1.007825032230

  Basis Set: AUG-CC-PVTZ
    Blend: AUG-CC-PVTZ
  Basis Set: (AUG-CC-PVTZ AUX)
    Blend: AUG-CC-PVTZ-JKFIT
	 Reference Energy          =    -383.4751111265301233 [Eh]
	 Singles Energy            =      -0.0000000000000000 [Eh]
	 Same-Spin Energy          =      -0.4343628408053397 [Eh]
	 Opposite-Spin Energy      =      -1.3481737512897425 [Eh]
	 Correlation Energy        =      -1.7825365920950822 [Eh]
	 Total Energy              =    -385.2576477186252077 [Eh]

	 ================> DF-SCS-MP2 Energies <==================
	-----------------------------------------------------------
	 SCS Same-Spin Scale       =       0.3333333333333333 [-]
	 SCS Opposite-Spin Scale   =       1.2000000000000000 [-]
	 SCS Same-Spin Energy      =      -0.1447876136017799 [Eh]
	 SCS Opposite-Spin Energy  =      -1.6178085015476908 [Eh]
	 SCS Correlation Energy    =      -1.7625961151494707 [Eh]
	 SCS Total Energy          =    -385.2377072416795727 [Eh]
	-----------------------------------------------------------

  Dipole Moment: [D]
     X:    -0.0022      Y:    -0.0180      Z:    -0.0896     Total:     0.0914

*** Psi4 exiting successfully. Buy a developer a beer!
