                               Psi4 1.3.2 release

  ==> Input File <==

--------------------------------------------------------------------------
#psi4
#
memory 32 gb

molecule  {
0 1
  C        1.2416220     1.4034370    -0.0000100
  C        2.4325270     0.7073060     0.0000070
  C        2.4325270    -0.7073070    -0.0000060
  C        1.2416220    -1.4034370     0.0000270
  C        0.0000000    -0.7164940    -0.0000890
  C       -1.2416220    -1.4034360     0.0000440
  C       -2.4325280    -0.7073070    -0.0000350
  C       -2.4325270     0.7073060     0.0000360
  C       -1.2416230     1.4034370    -0.0000280
  C       -0.0000010     0.7164931    -0.1499630
  H        1.2406550     2.4926530    -0.0000150
  H        3.3769820     1.2466390     0.0000290
  H        3.3769830    -1.2466390     0.0000450
  H        1.2406520    -2.4926530    -0.0000080
  H       -1.2406510    -2.4926520    -0.0000430
  H       -3.3769830    -1.2466380     0.0000750
  H       -3.3769830     1.2466370     0.0000000
  H       -1.2406540     2.4926530     0.0000170
units angstrom
no_reorient  #important for SAPT in psi4, default
symmetry c1  #important for SAPT in psi4, default
}

set PROPERTIES_ORIGIN ["COM"]
properties('MP2/aug-cc-pvtz', properties = ['dipole'])
--------------------------------------------------------------------------

    Molecular point group: c1
  Charge       = 0
  Multiplicity = 1
  Basis Set: AUG-CC-PVTZ
    Blend: AUG-CC-PVTZ
  Basis Set: (AUG-CC-PVTZ AUX)
    Blend: AUG-CC-PVTZ-JKFIT

    Orbital Energies [Eh]
    ---------------------

    Doubly Occupied:

       1A    -11.248500     2A    -11.247425     3A    -11.240925
       4A    -11.240846     5A    -11.239923     6A    -11.239888
       7A    -11.238676     8A    -11.238631     9A    -11.237808
      10A    -11.237800    11A     -1.174541    12A     -1.108291
      13A     -1.049614    14A     -1.007859    15A     -0.979836
      16A     -0.853784    17A     -0.835489    18A     -0.809698
      19A     -0.706328    20A     -0.697807    21A     -0.676595
      22A     -0.623914    23A     -0.610250    24A     -0.583469
      25A     -0.581991    26A     -0.563765    27A     -0.532206
      28A     -0.525303    29A     -0.488811    30A     -0.477482
      31A     -0.447223    32A     -0.385068    33A     -0.320113
      34A     -0.288249

  @DF-RHF Final Energy:  -383.46860761997789

   => Energetics <=

    Nuclear Repulsion Energy =            456.9813985017275968
    One-Electron Energy =               -1423.4237985762636072
    Two-Electron Energy =                 582.9737924545580654
    Total Energy =                       -383.4686076199778881
  Basis Set: (AUG-CC-PVTZ AUX)
    Blend: AUG-CC-PVTZ-RI
    Molecular point group: c1

    Geometry (in Angstrom), charge = 0, multiplicity = 1:

       Center              X                  Y                   Z               Mass
    ------------   -----------------  -----------------  -----------------  -----------------
         C            1.241622273243     1.403437178038     0.014046431885    12.000000000000
         C            2.432527273243     0.707306178038     0.014063431885    12.000000000000
         C            2.432527273243    -0.707306821962     0.014050431885    12.000000000000
         C            1.241622273243    -1.403436821962     0.014083431885    12.000000000000
         C            0.000000273243    -0.716493821962     0.013967431885    12.000000000000
         C           -1.241621726757    -1.403435821962     0.014100431885    12.000000000000
         C           -2.432527726757    -0.707306821962     0.014021431885    12.000000000000
         C           -2.432526726757     0.707306178038     0.014092431885    12.000000000000
         C           -1.241622726757     1.403437178038     0.014028431885    12.000000000000
         C           -0.000000726757     0.716493278038    -0.135906568115    12.000000000000
         H            1.240655273243     2.492653178038     0.014041431885     1.007825032230
         H            3.376982273243     1.246639178038     0.014085431885     1.007825032230
         H            3.376983273243    -1.246638821962     0.014101431885     1.007825032230
         H            1.240652273243    -2.492652821962     0.014048431885     1.007825032230
         H           -1.240650726757    -2.492651821962     0.014013431885     1.007825032230
         H           -3.376982726757    -1.246637821962     0.014131431885     1.007825032230
         H           -3.376982726757     1.246637178038     0.014056431885     1.007825032230
         H           -1.240653726757     2.492653178038     0.014073431885     1.007825032230

  Basis Set: AUG-CC-PVTZ
    Blend: AUG-CC-PVTZ
  Basis Set: (AUG-CC-PVTZ AUX)
    Blend: AUG-CC-PVTZ-JKFIT
	 Reference Energy          =    -383.4686076199778881 [Eh]
	 Singles Energy            =      -0.0000000000000000 [Eh]
	 Same-Spin Energy          =      -0.4345873547545409 [Eh]
	 Opposite-Spin Energy      =      -1.3485800824439327 [Eh]
	 Correlation Energy        =      -1.7831674371984736 [Eh]
	 Total Energy              =    -385.2517750571763600 [Eh]

	 ================> DF-SCS-MP2 Energies <==================
	-----------------------------------------------------------
	 SCS Same-Spin Scale       =       0.3333333333333333 [-]
	 SCS Opposite-Spin Scale   =       1.2000000000000000 [-]
	 SCS Same-Spin Energy      =      -0.1448624515848470 [Eh]
	 SCS Opposite-Spin Energy  =      -1.6182960989327191 [Eh]
	 SCS Correlation Energy    =      -1.7631585505175660 [Eh]
	 SCS Total Energy          =    -385.2317661704954617 [Eh]
	-----------------------------------------------------------

  Dipole Moment: [D]
     X:    -0.0000      Y:    -0.0153      Z:    -0.0051     Total:     0.0161

*** Psi4 exiting successfully. Buy a developer a beer!
