                               Psi4 1.3.2 release

  ==> Input File <==

--------------------------------------------------------------------------
#psi4
#
memory 32 gb

molecule  {
0 1
  C        1.2416220     1.4034370    -0.0000100
  C        2.4325270     0.7073060     0.0000070
  C        2.4325270    -0.7073070    -0.0000060
  C        1.2416220    -1.4034370     0.0000270
  C        0.0000000    -0.7164940    -0.0000890
  C       -1.2416220    -1.4034360     0.0000440
  C       -2.4325280    -0.7073070    -0.0000350
  C       -2.4325270     0.7073060     0.0000360
  C       -1.2416230     1.4034370    -0.0000280
  C        0.0000000     0.7164930     0.0000370
  H        1.2406538     2.4926509    -0.1000150
  H        3.3769820     1.2466390     0.0000290
  H        3.3769830    -1.2466390     0.0000450
  H        1.2406520    -2.4926530    -0.0000080
  H       -1.2406510    -2.4926520    -0.0000430
  H       -3.3769830    -1.2466380     0.0000750
  H       -3.3769830     1.2466370     0.0000000
  H       -1.2406540     2.4926530     0.0000170
units angstrom
no_reorient  #important for SAPT in psi4, default
symmetry c1  #important for SAPT in psi4, default
}

set PROPERTIES_ORIGIN ["COM"]
properties('MP2/aug-cc-pvtz', properties = ['dipole'])
--------------------------------------------------------------------------

    Molecular point group: c1
  Charge       = 0
  Multiplicity = 1
  Basis Set: AUG-CC-PVTZ
    Blend: AUG-CC-PVTZ
  Basis Set: (AUG-CC-PVTZ AUX)
    Blend: AUG-CC-PVTZ-JKFIT

    Orbital Energies [Eh]
    ---------------------

    Doubly Occupied:

       1A    -11.246774     2A    -11.245771     3A    -11.240196
       4A    -11.239987     5A    -11.239881     6A    -11.239684
       7A    -11.238790     8A    -11.238654     9A    -11.237956
      10A    -11.237876    11A     -1.175704    12A     -1.108580
      13A     -1.050371    14A     -1.008562    15A     -0.980052
      16A     -0.854567    17A     -0.835993    18A     -0.810839
      19A     -0.706864    20A     -0.698253    21A     -0.676842
      22A     -0.623451    23A     -0.611553    24A     -0.583910
      25A     -0.582710    26A     -0.563779    27A     -0.533707
      28A     -0.525051    29A     -0.489011    30A     -0.478129
      31A     -0.448274    32A     -0.386336    33A     -0.320246
      34A     -0.288682

  @DF-RHF Final Energy:  -383.47590588766883

   => Energetics <=

    Nuclear Repulsion Energy =            457.2733147164320826
    One-Electron Energy =               -1424.0043747164065735
    Two-Electron Energy =                 583.2551541123056040
    Total Energy =                       -383.4759058876688869
  Basis Set: (AUG-CC-PVTZ AUX)
    Blend: AUG-CC-PVTZ-RI
    Molecular point group: c1

    Geometry (in Angstrom), charge = 0, multiplicity = 1:

       Center              X                  Y                   Z               Mass
    ------------   -----------------  -----------------  -----------------  -----------------
         C            1.241622188982     1.403437203935     0.000777784416    12.000000000000
         C            2.432527188982     0.707306203935     0.000794784416    12.000000000000
         C            2.432527188982    -0.707306796065     0.000781784416    12.000000000000
         C            1.241622188982    -1.403436796065     0.000814784416    12.000000000000
         C            0.000000188982    -0.716493796065     0.000698784416    12.000000000000
         C           -1.241621811018    -1.403435796065     0.000831784416    12.000000000000
         C           -2.432527811018    -0.707306796065     0.000752784416    12.000000000000
         C           -2.432526811018     0.707306203935     0.000823784416    12.000000000000
         C           -1.241622811018     1.403437203935     0.000759784416    12.000000000000
         C            0.000000188982     0.716493203935     0.000824784416    12.000000000000
         H            1.240653988982     2.492651103935    -0.099227215584     1.007825032230
         H            3.376982188982     1.246639203935     0.000816784416     1.007825032230
         H            3.376983188982    -1.246638796065     0.000832784416     1.007825032230
         H            1.240652188982    -2.492652796065     0.000779784416     1.007825032230
         H           -1.240650811018    -2.492651796065     0.000744784416     1.007825032230
         H           -3.376982811018    -1.246637796065     0.000862784416     1.007825032230
         H           -3.376982811018     1.246637203935     0.000787784416     1.007825032230
         H           -1.240653811018     2.492653203935     0.000804784416     1.007825032230

  Basis Set: AUG-CC-PVTZ
    Blend: AUG-CC-PVTZ
  Basis Set: (AUG-CC-PVTZ AUX)
    Blend: AUG-CC-PVTZ-JKFIT
	 Reference Energy          =    -383.4759058876688300 [Eh]
	 Singles Energy            =      -0.0000000000000000 [Eh]
	 Same-Spin Energy          =      -0.4343108799936435 [Eh]
	 Opposite-Spin Energy      =      -1.3480571275573507 [Eh]
	 Correlation Energy        =      -1.7823680075509942 [Eh]
	 Total Energy              =    -385.2582738952198156 [Eh]

	 ================> DF-SCS-MP2 Energies <==================
	-----------------------------------------------------------
	 SCS Same-Spin Scale       =       0.3333333333333333 [-]
	 SCS Opposite-Spin Scale   =       1.2000000000000000 [-]
	 SCS Same-Spin Energy      =      -0.1447702933312145 [Eh]
	 SCS Opposite-Spin Energy  =      -1.6176685530688208 [Eh]
	 SCS Correlation Energy    =      -1.7624388464000353 [Eh]
	 SCS Total Energy          =    -385.2383447340688463 [Eh]
	-----------------------------------------------------------

  Dipole Moment: [D]
     X:    -0.0010      Y:    -0.0080      Z:    -0.0600     Total:     0.0605

*** Psi4 exiting successfully. Buy a developer a beer!
