                               Psi4 1.3.2 release

  ==> Input File <==

--------------------------------------------------------------------------
#psi4
#
memory 32 gb

molecule  {
0 1
  C        1.2416220     1.4034370    -0.0000100
  C        2.4325270     0.7073060     0.0000070
  C        2.4325270    -0.7073070    -0.0000060
  C        1.2416220    -1.4034370     0.0000270
  C        0.0000000    -0.7164940    -0.0000890
  C       -1.2416220    -1.4034360     0.0000440
  C       -2.4325280    -0.7073070    -0.0000350
  C       -2.4325270     0.7073060     0.0000360
  C       -1.2416230     1.4034370    -0.0000280
  C        0.0000000     0.7164930     0.0000370
  H        1.2406550     2.4926530    -0.0000150
  H        3.3769820     1.2466390     0.0000290
  H        3.3769830    -1.2466390     0.0000450
  H        1.2406520    -2.4926530    -0.0000080
  H       -1.2406510    -2.4926520    -0.0000430
  H       -3.3769830    -1.2466380     0.0000750
  H       -3.3769830     1.2466370     0.0000000
  H       -1.2406540     2.4926530     0.0000170
units angstrom
no_reorient  #important for SAPT in psi4, default
symmetry c1  #important for SAPT in psi4, default
}

set PROPERTIES_ORIGIN ["COM"]
properties('MP2/aug-cc-pvtz', properties = ['dipole'])
--------------------------------------------------------------------------

    Molecular point group: c1
  Charge       = 0
  Multiplicity = 1
  Basis Set: AUG-CC-PVTZ
    Blend: AUG-CC-PVTZ
  Basis Set: (AUG-CC-PVTZ AUX)
    Blend: AUG-CC-PVTZ-JKFIT

    Orbital Energies [Eh]
    ---------------------

    Doubly Occupied:

       1A    -11.246745     2A    -11.245741     3A    -11.240008
       4A    -11.239958     5A    -11.239743     6A    -11.239648
       7A    -11.238669     8A    -11.238632     9A    -11.237875
      10A    -11.237859    11A     -1.175691    12A     -1.108559
      13A     -1.050428    14A     -1.008531    15A     -0.980105
      16A     -0.854615    17A     -0.835970    18A     -0.811094
      19A     -0.706912    20A     -0.698475    21A     -0.676838
      22A     -0.623818    23A     -0.611539    24A     -0.583885
      25A     -0.582993    26A     -0.563760    27A     -0.533490
      28A     -0.525421    29A     -0.488982    30A     -0.478213
      31A     -0.448367    32A     -0.386434    33A     -0.320219
      34A     -0.288669

  @DF-RHF Final Energy:  -383.47651699064551

   => Energetics <=

    Nuclear Repulsion Energy =            457.2915136288617077
    One-Electron Energy =               -1424.0402890917303012
    Two-Electron Energy =                 583.2722584722230295
    Total Energy =                       -383.4765169906455640
  Basis Set: (AUG-CC-PVTZ AUX)
    Blend: AUG-CC-PVTZ-RI
    Molecular point group: c1

    Geometry (in Angstrom), charge = 0, multiplicity = 1:

       Center              X                  Y                   Z               Mass
    ------------   -----------------  -----------------  -----------------  -----------------
         C            1.241622179539     1.403437187408    -0.000009194007    12.000000000000
         C            2.432527179539     0.707306187408     0.000007805993    12.000000000000
         C            2.432527179539    -0.707306812592    -0.000005194007    12.000000000000
         C            1.241622179539    -1.403436812592     0.000027805993    12.000000000000
         C            0.000000179539    -0.716493812592    -0.000088194007    12.000000000000
         C           -1.241621820461    -1.403435812592     0.000044805993    12.000000000000
         C           -2.432527820461    -0.707306812592    -0.000034194007    12.000000000000
         C           -2.432526820461     0.707306187408     0.000036805993    12.000000000000
         C           -1.241622820461     1.403437187408    -0.000027194007    12.000000000000
         C            0.000000179539     0.716493187408     0.000037805993    12.000000000000
         H            1.240655179539     2.492653187408    -0.000014194007     1.007825032230
         H            3.376982179539     1.246639187408     0.000029805993     1.007825032230
         H            3.376983179539    -1.246638812592     0.000045805993     1.007825032230
         H            1.240652179539    -2.492652812592    -0.000007194007     1.007825032230
         H           -1.240650820461    -2.492651812592    -0.000042194007     1.007825032230
         H           -3.376982820461    -1.246637812592     0.000075805993     1.007825032230
         H           -3.376982820461     1.246637187408     0.000000805993     1.007825032230
         H           -1.240653820461     2.492653187408     0.000017805993     1.007825032230

  Basis Set: AUG-CC-PVTZ
    Blend: AUG-CC-PVTZ
  Basis Set: (AUG-CC-PVTZ AUX)
    Blend: AUG-CC-PVTZ-JKFIT
	 Reference Energy          =    -383.4765169906455071 [Eh]
	 Singles Energy            =      -0.0000000000000000 [Eh]
	 Same-Spin Energy          =      -0.4342666606319719 [Eh]
	 Opposite-Spin Energy      =      -1.3479637606902495 [Eh]
	 Correlation Energy        =      -1.7822304213222213 [Eh]
	 Total Energy              =    -385.2587474119677040 [Eh]

	 ================> DF-SCS-MP2 Energies <==================
	-----------------------------------------------------------
	 SCS Same-Spin Scale       =       0.3333333333333333 [-]
	 SCS Opposite-Spin Scale   =       1.2000000000000000 [-]
	 SCS Same-Spin Energy      =      -0.1447555535439906 [Eh]
	 SCS Opposite-Spin Energy  =      -1.6175565128282994 [Eh]
	 SCS Correlation Energy    =      -1.7623120663722900 [Eh]
	 SCS Total Energy          =    -385.2388290570178242 [Eh]
	-----------------------------------------------------------

  Dipole Moment: [D]
     X:     0.0000      Y:     0.0000      Z:     0.0000     Total:     0.0000

*** Psi4 exiting successfully. Buy a developer a beer!
