                               Psi4 1.3.2 release

  ==> Input File <==

--------------------------------------------------------------------------
#psi4
#
memory 32 gb

molecule  {
0 1
  C        1.2416220     1.4034370    -0.0000100
  C        2.4325270     0.7073060     0.0000070
  C        2.4325270    -0.7073070    -0.0000060
  C        1.2416220    -1.4034370     0.0000270
  C        0.0000000    -0.7164940    -0.0000890
  C       -1.2416220    -1.4034360     0.0000440
  C       -2.4325280    -0.7073070    -0.0000350
  C       -2.4325270     0.7073060     0.0000360
  C       -1.2416230     1.4034370    -0.0000280
  C       -0.0000007     0.7164931    -0.0999630
  H        1.2406550     2.4926530    -0.0000150
  H        3.3769820     1.2466390     0.0000290
  H        3.3769830    -1.2466390     0.0000450
  H        1.2406520    -2.4926530    -0.0000080
  H       -1.2406510    -2.4926520    -0.0000430
  H       -3.3769830    -1.2466380     0.0000750
  H       -3.3769830     1.2466370     0.0000000
  H       -1.2406540     2.4926530     0.0000170
units angstrom
no_reorient  #important for SAPT in psi4, default
symmetry c1  #important for SAPT in psi4, default
}

set PROPERTIES_ORIGIN ["COM"]
properties('MP2/aug-cc-pvtz', properties = ['dipole'])
--------------------------------------------------------------------------

    Molecular point group: c1
  Charge       = 0
  Multiplicity = 1
  Basis Set: AUG-CC-PVTZ
    Blend: AUG-CC-PVTZ
  Basis Set: (AUG-CC-PVTZ AUX)
    Blend: AUG-CC-PVTZ-JKFIT

    Orbital Energies [Eh]
    ---------------------

    Doubly Occupied:

       1A    -11.247507     2A    -11.246495     3A    -11.240308
       4A    -11.240237     5A    -11.239837     6A    -11.239774
       7A    -11.238701     8A    -11.238665     9A    -11.237875
      10A    -11.237863    11A     -1.175170    12A     -1.108430
      13A     -1.050056    14A     -1.008227    15A     -0.979976
      16A     -0.854232    17A     -0.835745    18A     -0.810463
      19A     -0.706624    20A     -0.698185    21A     -0.676720
      22A     -0.623850    23A     -0.610960    24A     -0.583581
      25A     -0.582650    26A     -0.563754    27A     -0.532915
      28A     -0.525361    29A     -0.488902    30A     -0.477887
      31A     -0.447853    32A     -0.385813    33A     -0.320160
      34A     -0.288474

  @DF-RHF Final Energy:  -383.47301441166059

   => Energetics <=

    Nuclear Repulsion Energy =            457.1532320992670861
    One-Electron Energy =               -1423.7659965028242368
    Two-Electron Energy =                 583.1397499918964513
    Total Energy =                       -383.4730144116606425
  Basis Set: (AUG-CC-PVTZ AUX)
    Blend: AUG-CC-PVTZ-RI
    Molecular point group: c1

    Geometry (in Angstrom), charge = 0, multiplicity = 1:

       Center              X                  Y                   Z               Mass
    ------------   -----------------  -----------------  -----------------  -----------------
         C            1.241622245131     1.403437178038     0.009361223254    12.000000000000
         C            2.432527245131     0.707306178038     0.009378223254    12.000000000000
         C            2.432527245131    -0.707306821962     0.009365223254    12.000000000000
         C            1.241622245131    -1.403436821962     0.009398223254    12.000000000000
         C            0.000000245131    -0.716493821962     0.009282223254    12.000000000000
         C           -1.241621754869    -1.403435821962     0.009415223254    12.000000000000
         C           -2.432527754869    -0.707306821962     0.009336223254    12.000000000000
         C           -2.432526754869     0.707306178038     0.009407223254    12.000000000000
         C           -1.241622754869     1.403437178038     0.009343223254    12.000000000000
         C           -0.000000454869     0.716493278038    -0.090591776746    12.000000000000
         H            1.240655245131     2.492653178038     0.009356223254     1.007825032230
         H            3.376982245131     1.246639178038     0.009400223254     1.007825032230
         H            3.376983245131    -1.246638821962     0.009416223254     1.007825032230
         H            1.240652245131    -2.492652821962     0.009363223254     1.007825032230
         H           -1.240650754869    -2.492651821962     0.009328223254     1.007825032230
         H           -3.376982754869    -1.246637821962     0.009446223254     1.007825032230
         H           -3.376982754869     1.246637178038     0.009371223254     1.007825032230
         H           -1.240653754869     2.492653178038     0.009388223254     1.007825032230

  Basis Set: AUG-CC-PVTZ
    Blend: AUG-CC-PVTZ
  Basis Set: (AUG-CC-PVTZ AUX)
    Blend: AUG-CC-PVTZ-JKFIT
	 Reference Energy          =    -383.4730144116605857 [Eh]
	 Singles Energy            =      -0.0000000000000000 [Eh]
	 Same-Spin Energy          =      -0.4344132039994283 [Eh]
	 Opposite-Spin Energy      =      -1.3481349173821835 [Eh]
	 Correlation Energy        =      -1.7825481213816117 [Eh]
	 Total Energy              =    -385.2555625330422231 [Eh]

	 ================> DF-SCS-MP2 Energies <==================
	-----------------------------------------------------------
	 SCS Same-Spin Scale       =       0.3333333333333333 [-]
	 SCS Opposite-Spin Scale   =       1.2000000000000000 [-]
	 SCS Same-Spin Energy      =      -0.1448044013331428 [Eh]
	 SCS Opposite-Spin Energy  =      -1.6177619008586201 [Eh]
	 SCS Correlation Energy    =      -1.7625663021917628 [Eh]
	 SCS Total Energy          =    -385.2355807138523573 [Eh]
	-----------------------------------------------------------

  Dipole Moment: [D]
     X:    -0.0000      Y:    -0.0068      Z:    -0.0037     Total:     0.0077

*** Psi4 exiting successfully. Buy a developer a beer!
