                               Psi4 1.3.2 release

  ==> Input File <==

--------------------------------------------------------------------------
#psi4
#
memory 32 gb

molecule  {
0 1
  C        1.2416220     1.4034370    -0.0000100
  C        2.4325270     0.7073060     0.0000070
  C        2.4325270    -0.7073070    -0.0000060
  C        1.2416220    -1.4034370     0.0000270
  C        0.0000000    -0.7164940    -0.0000890
  C       -1.2416220    -1.4034360     0.0000440
  C       -2.4325280    -0.7073070    -0.0000350
  C       -2.4325270     0.7073060     0.0000360
  C       -1.2416230     1.4034370    -0.0000280
  C        0.0000000     0.7164930     0.0000370
  H        1.2406550     2.4926530    -0.0000150
  H        3.3769763     1.2466364     0.3000290
  H        3.3769830    -1.2466390     0.0000450
  H        1.2406520    -2.4926530    -0.0000080
  H       -1.2406510    -2.4926520    -0.0000430
  H       -3.3769830    -1.2466380     0.0000750
  H       -3.3769830     1.2466370     0.0000000
  H       -1.2406540     2.4926530     0.0000170
units angstrom
no_reorient  #important for SAPT in psi4, default
symmetry c1  #important for SAPT in psi4, default
}

set PROPERTIES_ORIGIN ["COM"]
properties('MP2/aug-cc-pvtz', properties = ['dipole'])
--------------------------------------------------------------------------

    Molecular point group: c1
  Charge       = 0
  Multiplicity = 1
  Basis Set: AUG-CC-PVTZ
    Blend: AUG-CC-PVTZ
  Basis Set: (AUG-CC-PVTZ AUX)
    Blend: AUG-CC-PVTZ-JKFIT

    Orbital Energies [Eh]
    ---------------------

    Doubly Occupied:

       1A    -11.247267     2A    -11.246230     3A    -11.242477
       4A    -11.240435     5A    -11.240234     6A    -11.240116
       7A    -11.239930     8A    -11.239082     9A    -11.238560
      10A    -11.238302    11A     -1.176083    12A     -1.108632
      13A     -1.050771    14A     -1.008223    15A     -0.980123
      16A     -0.854072    17A     -0.835068    18A     -0.811470
      19A     -0.705323    20A     -0.697511    21A     -0.675222
      22A     -0.623974    23A     -0.610627    24A     -0.583721
      25A     -0.583080    26A     -0.561948    27A     -0.534370
      28A     -0.523835    29A     -0.488523    30A     -0.478515
      31A     -0.446379    32A     -0.386657    33A     -0.320175
      34A     -0.288968

  @DF-RHF Final Energy:  -383.47027854791810

   => Energetics <=

    Nuclear Repulsion Energy =            457.1411775170914780
    One-Electron Energy =               -1423.7311026738748296
    Two-Electron Energy =                 583.1196466088653096
    Total Energy =                       -383.4702785479180420
  Basis Set: (AUG-CC-PVTZ AUX)
    Blend: AUG-CC-PVTZ-RI
    Molecular point group: c1

    Geometry (in Angstrom), charge = 0, multiplicity = 1:

       Center              X                  Y                   Z               Mass
    ------------   -----------------  -----------------  -----------------  -----------------
         C            1.241622224396     1.403437207870    -0.002370129277    12.000000000000
         C            2.432527224396     0.707306207870    -0.002353129277    12.000000000000
         C            2.432527224396    -0.707306792130    -0.002366129277    12.000000000000
         C            1.241622224396    -1.403436792130    -0.002333129277    12.000000000000
         C            0.000000224396    -0.716493792130    -0.002449129277    12.000000000000
         C           -1.241621775604    -1.403435792130    -0.002316129277    12.000000000000
         C           -2.432527775604    -0.707306792130    -0.002395129277    12.000000000000
         C           -2.432526775604     0.707306207870    -0.002324129277    12.000000000000
         C           -1.241622775604     1.403437207870    -0.002388129277    12.000000000000
         C            0.000000224396     0.716493207870    -0.002323129277    12.000000000000
         H            1.240655224396     2.492653207870    -0.002375129277     1.007825032230
         H            3.376976524396     1.246636607870     0.297668870723     1.007825032230
         H            3.376983224396    -1.246638792130    -0.002315129277     1.007825032230
         H            1.240652224396    -2.492652792130    -0.002368129277     1.007825032230
         H           -1.240650775604    -2.492651792130    -0.002403129277     1.007825032230
         H           -3.376982775604    -1.246637792130    -0.002285129277     1.007825032230
         H           -3.376982775604     1.246637207870    -0.002360129277     1.007825032230
         H           -1.240653775604     2.492653207870    -0.002343129277     1.007825032230

  Basis Set: AUG-CC-PVTZ
    Blend: AUG-CC-PVTZ
  Basis Set: (AUG-CC-PVTZ AUX)
    Blend: AUG-CC-PVTZ-JKFIT
	 Reference Energy          =    -383.4702785479180989 [Eh]
	 Singles Energy            =      -0.0000000000000000 [Eh]
	 Same-Spin Energy          =      -0.4345778513586310 [Eh]
	 Opposite-Spin Energy      =      -1.3487905239550253 [Eh]
	 Correlation Energy        =      -1.7833683753136564 [Eh]
	 Total Energy              =    -385.2536469232317700 [Eh]

	 ================> DF-SCS-MP2 Energies <==================
	-----------------------------------------------------------
	 SCS Same-Spin Scale       =       0.3333333333333333 [-]
	 SCS Opposite-Spin Scale   =       1.2000000000000000 [-]
	 SCS Same-Spin Energy      =      -0.1448592837862103 [Eh]
	 SCS Opposite-Spin Energy  =      -1.6185486287460302 [Eh]
	 SCS Correlation Energy    =      -1.7634079125322406 [Eh]
	 SCS Total Energy          =    -385.2336864604503148 [Eh]
	-----------------------------------------------------------

  Dipole Moment: [D]
     X:    -0.0829      Y:    -0.0363      Z:     0.1852     Total:     0.2061

*** Psi4 exiting successfully. Buy a developer a beer!
