                               Psi4 1.3.2 release

  ==> Input File <==

--------------------------------------------------------------------------
#psi4
#
memory 32 gb

molecule  {
0 1
  C        1.2416220     1.4034370    -0.0000100
  C        2.4325270     0.7073060     0.0000070
  C        2.4325270    -0.7073070    -0.0000060
  C        1.2416220    -1.4034370     0.0000270
  C        0.0000000    -0.7164940    -0.0000890
  C       -1.2416220    -1.4034360     0.0000440
  C       -2.4325280    -0.7073070    -0.0000350
  C       -2.4325270     0.7073060     0.0000360
  C       -1.2416230     1.4034370    -0.0000280
  C       -0.0000014     0.7164931    -0.1999630
  H        1.2406550     2.4926530    -0.0000150
  H        3.3769820     1.2466390     0.0000290
  H        3.3769830    -1.2466390     0.0000450
  H        1.2406520    -2.4926530    -0.0000080
  H       -1.2406510    -2.4926520    -0.0000430
  H       -3.3769830    -1.2466380     0.0000750
  H       -3.3769830     1.2466370     0.0000000
  H       -1.2406540     2.4926530     0.0000170
units angstrom
no_reorient  #important for SAPT in psi4, default
symmetry c1  #important for SAPT in psi4, default
}

set PROPERTIES_ORIGIN ["COM"]
properties('MP2/aug-cc-pvtz', properties = ['dipole'])
--------------------------------------------------------------------------

    Molecular point group: c1
  Charge       = 0
  Multiplicity = 1
  Basis Set: AUG-CC-PVTZ
    Blend: AUG-CC-PVTZ
  Basis Set: (AUG-CC-PVTZ AUX)
    Blend: AUG-CC-PVTZ-JKFIT

    Orbital Energies [Eh]
    ---------------------

    Doubly Occupied:

       1A    -11.249895     2A    -11.248675     3A    -11.241862
       4A    -11.241788     5A    -11.240147     6A    -11.240130
       7A    -11.238581     8A    -11.238528     9A    -11.237611
      10A    -11.237607    11A     -1.173673    12A     -1.108111
      13A     -1.049006    14A     -1.007339    15A     -0.979653
      16A     -0.853182    17A     -0.835147    18A     -0.808644
      19A     -0.705998    20A     -0.697226    21A     -0.676434
      22A     -0.624015    23A     -0.609253    24A     -0.583451
      25A     -0.580945    26A     -0.563787    27A     -0.531233
      28A     -0.525229    29A     -0.488672    30A     -0.476891
      31A     -0.446345    32A     -0.384053    33A     -0.320065
      34A     -0.287947

  @DF-RHF Final Energy:  -383.46241559184227

   => Energetics <=

    Nuclear Repulsion Energy =            456.7429081611864490
    One-Electron Energy =               -1422.9484047917305816
    Two-Electron Energy =                 582.7430810387018028
    Total Energy =                       -383.4624155918422730
  Basis Set: (AUG-CC-PVTZ AUX)
    Blend: AUG-CC-PVTZ-RI
    Molecular point group: c1

    Geometry (in Angstrom), charge = 0, multiplicity = 1:

       Center              X                  Y                   Z               Mass
    ------------   -----------------  -----------------  -----------------  -----------------
         C            1.241622310724     1.403437178038     0.018731640515    12.000000000000
         C            2.432527310724     0.707306178038     0.018748640515    12.000000000000
         C            2.432527310724    -0.707306821962     0.018735640515    12.000000000000
         C            1.241622310724    -1.403436821962     0.018768640515    12.000000000000
         C            0.000000310724    -0.716493821962     0.018652640515    12.000000000000
         C           -1.241621689276    -1.403435821962     0.018785640515    12.000000000000
         C           -2.432527689276    -0.707306821962     0.018706640515    12.000000000000
         C           -2.432526689276     0.707306178038     0.018777640515    12.000000000000
         C           -1.241622689276     1.403437178038     0.018713640515    12.000000000000
         C           -0.000001089276     0.716493278038    -0.181221359485    12.000000000000
         H            1.240655310724     2.492653178038     0.018726640515     1.007825032230
         H            3.376982310724     1.246639178038     0.018770640515     1.007825032230
         H            3.376983310724    -1.246638821962     0.018786640515     1.007825032230
         H            1.240652310724    -2.492652821962     0.018733640515     1.007825032230
         H           -1.240650689276    -2.492651821962     0.018698640515     1.007825032230
         H           -3.376982689276    -1.246637821962     0.018816640515     1.007825032230
         H           -3.376982689276     1.246637178038     0.018741640515     1.007825032230
         H           -1.240653689276     2.492653178038     0.018758640515     1.007825032230

  Basis Set: AUG-CC-PVTZ
    Blend: AUG-CC-PVTZ
  Basis Set: (AUG-CC-PVTZ AUX)
    Blend: AUG-CC-PVTZ-JKFIT
	 Reference Energy          =    -383.4624155918422730 [Eh]
	 Singles Energy            =      -0.0000000000000000 [Eh]
	 Same-Spin Energy          =      -0.4348282606758027 [Eh]
	 Opposite-Spin Energy      =      -1.3492597003935378 [Eh]
	 Correlation Energy        =      -1.7840879610693405 [Eh]
	 Total Energy              =    -385.2465035529116335 [Eh]

	 ================> DF-SCS-MP2 Energies <==================
	-----------------------------------------------------------
	 SCS Same-Spin Scale       =       0.3333333333333333 [-]
	 SCS Opposite-Spin Scale   =       1.2000000000000000 [-]
	 SCS Same-Spin Energy      =      -0.1449427535586009 [Eh]
	 SCS Opposite-Spin Energy  =      -1.6191116404722454 [Eh]
	 SCS Correlation Energy    =      -1.7640543940308464 [Eh]
	 SCS Total Energy          =    -385.2264699858731092 [Eh]
	-----------------------------------------------------------

  Dipole Moment: [D]
     X:    -0.0000      Y:    -0.0275      Z:    -0.0061     Total:     0.0281

*** Psi4 exiting successfully. Buy a developer a beer!
