                               Psi4 1.3.2 release

  ==> Input File <==

--------------------------------------------------------------------------
#psi4
#
memory 32 gb

molecule  {
0 1
  C        1.2416220     1.4034370    -0.0000100
  C        2.4325270     0.7073060     0.0000070
  C        2.4325270    -0.7073070    -0.0000060
  C        1.2416220    -1.4034370     0.0000270
  C        0.0000000    -0.7164940    -0.0000890
  C       -1.2416220    -1.4034360     0.0000440
  C       -2.4325280    -0.7073070    -0.0000350
  C       -2.4325270     0.7073060     0.0000360
  C       -1.2416230     1.4034370    -0.0000280
  C        0.0000000     0.7164930     0.0000370
  H        1.2406544     2.4926520    -0.0500150
  H        3.3769820     1.2466390     0.0000290
  H        3.3769830    -1.2466390     0.0000450
  H        1.2406520    -2.4926530    -0.0000080
  H       -1.2406510    -2.4926520    -0.0000430
  H       -3.3769830    -1.2466380     0.0000750
  H       -3.3769830     1.2466370     0.0000000
  H       -1.2406540     2.4926530     0.0000170
units angstrom
no_reorient  #important for SAPT in psi4, default
symmetry c1  #important for SAPT in psi4, default
}

set PROPERTIES_ORIGIN ["COM"]
properties('MP2/aug-cc-pvtz', properties = ['dipole'])
--------------------------------------------------------------------------

    Molecular point group: c1
  Charge       = 0
  Multiplicity = 1
  Basis Set: AUG-CC-PVTZ
    Blend: AUG-CC-PVTZ
  Basis Set: (AUG-CC-PVTZ AUX)
    Blend: AUG-CC-PVTZ-JKFIT

    Orbital Energies [Eh]
    ---------------------

    Doubly Occupied:

       1A    -11.246751     2A    -11.245748     3A    -11.240037
       4A    -11.239972     5A    -11.239774     6A    -11.239666
       7A    -11.238693     8A    -11.238643     9A    -11.237892
      10A    -11.237866    11A     -1.175694    12A     -1.108564
      13A     -1.050413    14A     -1.008539    15A     -0.980091
      16A     -0.854603    17A     -0.835975    18A     -0.811029
      19A     -0.706899    20A     -0.698419    21A     -0.676839
      22A     -0.623725    23A     -0.611542    24A     -0.583890
      25A     -0.582922    26A     -0.563765    27A     -0.533546
      28A     -0.525326    29A     -0.488989    30A     -0.478192
      31A     -0.448343    32A     -0.386409    33A     -0.320226
      34A     -0.288672

  @DF-RHF Final Energy:  -383.47636654738602

   => Energetics <=

    Nuclear Repulsion Energy =            457.2869498431530815
    One-Electron Energy =               -1424.0313180814332554
    Two-Electron Energy =                 583.2680016908942662
    Total Energy =                       -383.4763665473859646
  Basis Set: (AUG-CC-PVTZ AUX)
    Blend: AUG-CC-PVTZ-RI
    Molecular point group: c1

    Geometry (in Angstrom), charge = 0, multiplicity = 1:

       Center              X                  Y                   Z               Mass
    ------------   -----------------  -----------------  -----------------  -----------------
         C            1.241622184260     1.403437195278     0.000384295204    12.000000000000
         C            2.432527184260     0.707306195278     0.000401295204    12.000000000000
         C            2.432527184260    -0.707306804722     0.000388295204    12.000000000000
         C            1.241622184260    -1.403436804722     0.000421295204    12.000000000000
         C            0.000000184260    -0.716493804722     0.000305295204    12.000000000000
         C           -1.241621815740    -1.403435804722     0.000438295204    12.000000000000
         C           -2.432527815740    -0.707306804722     0.000359295204    12.000000000000
         C           -2.432526815740     0.707306195278     0.000430295204    12.000000000000
         C           -1.241622815740     1.403437195278     0.000366295204    12.000000000000
         C            0.000000184260     0.716493195278     0.000431295204    12.000000000000
         H            1.240654584260     2.492652195278    -0.049620704796     1.007825032230
         H            3.376982184260     1.246639195278     0.000423295204     1.007825032230
         H            3.376983184260    -1.246638804722     0.000439295204     1.007825032230
         H            1.240652184260    -2.492652804722     0.000386295204     1.007825032230
         H           -1.240650815740    -2.492651804722     0.000351295204     1.007825032230
         H           -3.376982815740    -1.246637804722     0.000469295204     1.007825032230
         H           -3.376982815740     1.246637195278     0.000394295204     1.007825032230
         H           -1.240653815740     2.492653195278     0.000411295204     1.007825032230

  Basis Set: AUG-CC-PVTZ
    Blend: AUG-CC-PVTZ
  Basis Set: (AUG-CC-PVTZ AUX)
    Blend: AUG-CC-PVTZ-JKFIT
	 Reference Energy          =    -383.4763665473860215 [Eh]
	 Singles Energy            =      -0.0000000000000000 [Eh]
	 Same-Spin Energy          =      -0.4342780836217351 [Eh]
	 Opposite-Spin Energy      =      -1.3479871122797467 [Eh]
	 Correlation Energy        =      -1.7822651959014819 [Eh]
	 Total Energy              =    -385.2586317432874807 [Eh]

	 ================> DF-SCS-MP2 Energies <==================
	-----------------------------------------------------------
	 SCS Same-Spin Scale       =       0.3333333333333333 [-]
	 SCS Opposite-Spin Scale   =       1.2000000000000000 [-]
	 SCS Same-Spin Energy      =      -0.1447593612072450 [Eh]
	 SCS Opposite-Spin Energy  =      -1.6175845347356959 [Eh]
	 SCS Correlation Energy    =      -1.7623438959429409 [Eh]
	 SCS Total Energy          =    -385.2387104433289551 [Eh]
	-----------------------------------------------------------

  Dipole Moment: [D]
     X:    -0.0003      Y:    -0.0020      Z:    -0.0300     Total:     0.0301

*** Psi4 exiting successfully. Buy a developer a beer!
