                               Psi4 1.3.2 release

  ==> Input File <==

--------------------------------------------------------------------------
#psi4
#
memory 32 gb

molecule  {
0 1
  C        1.2416220     1.4034370    -0.0000100
  C        2.4325270     0.7073060     0.0000070
  C        2.4325270    -0.7073070    -0.0000060
  C        1.2416220    -1.4034370     0.0000270
  C        0.0000000    -0.7164940    -0.0000890
  C       -1.2416220    -1.4034360     0.0000440
  C       -2.4325280    -0.7073070    -0.0000350
  C       -2.4325270     0.7073060     0.0000360
  C       -1.2416230     1.4034370    -0.0000280
  C       -0.0000017     0.7164932    -0.2499630
  H        1.2406550     2.4926530    -0.0000150
  H        3.3769820     1.2466390     0.0000290
  H        3.3769830    -1.2466390     0.0000450
  H        1.2406520    -2.4926530    -0.0000080
  H       -1.2406510    -2.4926520    -0.0000430
  H       -3.3769830    -1.2466380     0.0000750
  H       -3.3769830     1.2466370     0.0000000
  H       -1.2406540     2.4926530     0.0000170
units angstrom
no_reorient  #important for SAPT in psi4, default
symmetry c1  #important for SAPT in psi4, default
}

set PROPERTIES_ORIGIN ["COM"]
properties('MP2/aug-cc-pvtz', properties = ['dipole'])
--------------------------------------------------------------------------

    Molecular point group: c1
  Charge       = 0
  Multiplicity = 1
  Basis Set: AUG-CC-PVTZ
    Blend: AUG-CC-PVTZ
  Basis Set: (AUG-CC-PVTZ AUX)
    Blend: AUG-CC-PVTZ-JKFIT

    Orbital Energies [Eh]
    ---------------------

    Doubly Occupied:

       1A    -11.251660     2A    -11.250216     3A    -11.243074
       4A    -11.243007     5A    -11.240576     6A    -11.240568
       7A    -11.238395     8A    -11.238340     9A    -11.237276
      10A    -11.237273    11A     -1.172573    12A     -1.107895
      13A     -1.048233    14A     -1.006654    15A     -0.979429
      16A     -0.852447    17A     -0.834724    18A     -0.807315
      19A     -0.705694    20A     -0.696402    21A     -0.676246
      22A     -0.624158    23A     -0.607969    24A     -0.583477
      25A     -0.579568    26A     -0.563823    27A     -0.530014
      28A     -0.525138    29A     -0.488468    30A     -0.476086
      31A     -0.445219    32A     -0.382789    33A     -0.320028
      34A     -0.287571

  @DF-RHF Final Energy:  -383.45442981161830

   => Energetics <=

    Nuclear Repulsion Energy =            456.4398023077282005
    One-Electron Energy =               -1422.3438573594919490
    Two-Electron Energy =                 582.4496252401454512
    Total Energy =                       -383.4544298116182972
  Basis Set: (AUG-CC-PVTZ AUX)
    Blend: AUG-CC-PVTZ-RI
    Molecular point group: c1

    Geometry (in Angstrom), charge = 0, multiplicity = 1:

       Center              X                  Y                   Z               Mass
    ------------   -----------------  -----------------  -----------------  -----------------
         C            1.241622338836     1.403437168668     0.023416849146    12.000000000000
         C            2.432527338836     0.707306168668     0.023433849146    12.000000000000
         C            2.432527338836    -0.707306831332     0.023420849146    12.000000000000
         C            1.241622338836    -1.403436831332     0.023453849146    12.000000000000
         C            0.000000338836    -0.716493831332     0.023337849146    12.000000000000
         C           -1.241621661164    -1.403435831332     0.023470849146    12.000000000000
         C           -2.432527661164    -0.707306831332     0.023391849146    12.000000000000
         C           -2.432526661164     0.707306168668     0.023462849146    12.000000000000
         C           -1.241622661164     1.403437168668     0.023398849146    12.000000000000
         C           -0.000001361164     0.716493368668    -0.226536150854    12.000000000000
         H            1.240655338836     2.492653168668     0.023411849146     1.007825032230
         H            3.376982338836     1.246639168668     0.023455849146     1.007825032230
         H            3.376983338836    -1.246638831332     0.023471849146     1.007825032230
         H            1.240652338836    -2.492652831332     0.023418849146     1.007825032230
         H           -1.240650661164    -2.492651831332     0.023383849146     1.007825032230
         H           -3.376982661164    -1.246637831332     0.023501849146     1.007825032230
         H           -3.376982661164     1.246637168668     0.023426849146     1.007825032230
         H           -1.240653661164     2.492653168668     0.023443849146     1.007825032230

  Basis Set: AUG-CC-PVTZ
    Blend: AUG-CC-PVTZ
  Basis Set: (AUG-CC-PVTZ AUX)
    Blend: AUG-CC-PVTZ-JKFIT
	 Reference Energy          =    -383.4544298116182972 [Eh]
	 Singles Energy            =      -0.0000000000000000 [Eh]
	 Same-Spin Energy          =      -0.4351340443879073 [Eh]
	 Opposite-Spin Energy      =      -1.3501772460707935 [Eh]
	 Correlation Energy        =      -1.7853112904587007 [Eh]
	 Total Energy              =    -385.2397411020770051 [Eh]

	 ================> DF-SCS-MP2 Energies <==================
	-----------------------------------------------------------
	 SCS Same-Spin Scale       =       0.3333333333333333 [-]
	 SCS Opposite-Spin Scale   =       1.2000000000000000 [-]
	 SCS Same-Spin Energy      =      -0.1450446814626358 [Eh]
	 SCS Opposite-Spin Energy  =      -1.6202126952849520 [Eh]
	 SCS Correlation Energy    =      -1.7652573767475879 [Eh]
	 SCS Total Energy          =    -385.2196871883658673 [Eh]
	-----------------------------------------------------------

  Dipole Moment: [D]
     X:    -0.0000      Y:    -0.0434      Z:    -0.0064     Total:     0.0439

*** Psi4 exiting successfully. Buy a developer a beer!
