                               Psi4 1.3.2 release

  ==> Input File <==

--------------------------------------------------------------------------
#psi4
#
memory 32 gb

molecule  {
0 1
  C        1.2416220     1.4034370    -0.0000100
  C        2.4325270     0.7073060     0.0000070
  C        2.4325270    -0.7073070    -0.0000060
  C        1.2416220    -1.4034370     0.0000270
  C        0.0000000    -0.7164940    -0.0000890
  C       -1.2416220    -1.4034360     0.0000440
  C       -2.4325280    -0.7073070    -0.0000350
  C       -2.4325270     0.7073060     0.0000360
  C       -1.2416230     1.4034370    -0.0000280
  C        0.0000000     0.7164930     0.0000370
  H        1.2406550     2.4926530    -0.0000150
  H        3.3769792     1.2466377     0.1500290
  H        3.3769830    -1.2466390     0.0000450
  H        1.2406520    -2.4926530    -0.0000080
  H       -1.2406510    -2.4926520    -0.0000430
  H       -3.3769830    -1.2466380     0.0000750
  H       -3.3769830     1.2466370     0.0000000
  H       -1.2406540     2.4926530     0.0000170
units angstrom
no_reorient  #important for SAPT in psi4, default
symmetry c1  #important for SAPT in psi4, default
}

set PROPERTIES_ORIGIN ["COM"]
properties('MP2/aug-cc-pvtz', properties = ['dipole'])
--------------------------------------------------------------------------

    Molecular point group: c1
  Charge       = 0
  Multiplicity = 1
  Basis Set: AUG-CC-PVTZ
    Blend: AUG-CC-PVTZ
  Basis Set: (AUG-CC-PVTZ AUX)
    Blend: AUG-CC-PVTZ-JKFIT

    Orbital Energies [Eh]
    ---------------------

    Doubly Occupied:

       1A    -11.246868     2A    -11.245862     3A    -11.240407
       4A    -11.240089     5A    -11.239852     6A    -11.239763
       7A    -11.239045     8A    -11.238756     9A    -11.238173
      10A    -11.237975    11A     -1.175784    12A     -1.108569
      13A     -1.050508    14A     -1.008438    15A     -0.980100
      16A     -0.854447    17A     -0.835726    18A     -0.811184
      19A     -0.706387    20A     -0.698252    21A     -0.676437
      22A     -0.623848    23A     -0.611291    24A     -0.583801
      25A     -0.583037    26A     -0.563322    27A     -0.533734
      28A     -0.524999    29A     -0.488879    30A     -0.478291
      31A     -0.447862    32A     -0.386486    33A     -0.320201
      34A     -0.288740

  @DF-RHF Final Energy:  -383.47508498577798

   => Energetics <=

    Nuclear Repulsion Energy =            457.2527361527530729
    One-Electron Energy =               -1423.9614150972433890
    Two-Electron Energy =                 583.2335939587123903
    Total Energy =                       -383.4750849857779258
  Basis Set: (AUG-CC-PVTZ AUX)
    Blend: AUG-CC-PVTZ-RI
    Molecular point group: c1

    Geometry (in Angstrom), charge = 0, multiplicity = 1:

       Center              X                  Y                   Z               Mass
    ------------   -----------------  -----------------  -----------------  -----------------
         C            1.241622201574     1.403437197639    -0.001189661642    12.000000000000
         C            2.432527201574     0.707306197639    -0.001172661642    12.000000000000
         C            2.432527201574    -0.707306802361    -0.001185661642    12.000000000000
         C            1.241622201574    -1.403436802361    -0.001152661642    12.000000000000
         C            0.000000201574    -0.716493802361    -0.001268661642    12.000000000000
         C           -1.241621798426    -1.403435802361    -0.001135661642    12.000000000000
         C           -2.432527798426    -0.707306802361    -0.001214661642    12.000000000000
         C           -2.432526798426     0.707306197639    -0.001143661642    12.000000000000
         C           -1.241622798426     1.403437197639    -0.001207661642    12.000000000000
         C            0.000000201574     0.716493197639    -0.001142661642    12.000000000000
         H            1.240655201574     2.492653197639    -0.001194661642     1.007825032230
         H            3.376979401574     1.246637897639     0.148849338358     1.007825032230
         H            3.376983201574    -1.246638802361    -0.001134661642     1.007825032230
         H            1.240652201574    -2.492652802361    -0.001187661642     1.007825032230
         H           -1.240650798426    -2.492651802361    -0.001222661642     1.007825032230
         H           -3.376982798426    -1.246637802361    -0.001104661642     1.007825032230
         H           -3.376982798426     1.246637197639    -0.001179661642     1.007825032230
         H           -1.240653798426     2.492653197639    -0.001162661642     1.007825032230

  Basis Set: AUG-CC-PVTZ
    Blend: AUG-CC-PVTZ
  Basis Set: (AUG-CC-PVTZ AUX)
    Blend: AUG-CC-PVTZ-JKFIT
	 Reference Energy          =    -383.4750849857779826 [Eh]
	 Singles Energy            =      -0.0000000000000000 [Eh]
	 Same-Spin Energy          =      -0.4343495143506741 [Eh]
	 Opposite-Spin Energy      =      -1.3481540934163356 [Eh]
	 Correlation Energy        =      -1.7825036077670098 [Eh]
	 Total Energy              =    -385.2575885935449946 [Eh]

	 ================> DF-SCS-MP2 Energies <==================
	-----------------------------------------------------------
	 SCS Same-Spin Scale       =       0.3333333333333333 [-]
	 SCS Opposite-Spin Scale   =       1.2000000000000000 [-]
	 SCS Same-Spin Energy      =      -0.1447831714502247 [Eh]
	 SCS Opposite-Spin Energy  =      -1.6177849120996026 [Eh]
	 SCS Correlation Energy    =      -1.7625680835498274 [Eh]
	 SCS Total Energy          =    -385.2376530693277914 [Eh]
	-----------------------------------------------------------

  Dipole Moment: [D]
     X:    -0.0212      Y:    -0.0092      Z:     0.0946     Total:     0.0974

*** Psi4 exiting successfully. Buy a developer a beer!
