                               Psi4 1.3.2 release

  ==> Input File <==

--------------------------------------------------------------------------
#psi4
#
memory 32 gb

molecule  {
0 1
  C        1.2416220     1.4034370    -0.0000100
  C        2.4325270     0.7073060     0.0000070
  C        2.4325270    -0.7073070    -0.0000060
  C        1.2416220    -1.4034370     0.0000270
  C        0.0000000    -0.7164940    -0.0000890
  C       -1.2416220    -1.4034360     0.0000440
  C       -2.4325280    -0.7073070    -0.0000350
  C       -2.4325270     0.7073060     0.0000360
  C       -1.2416230     1.4034370    -0.0000280
  C       -0.0000003     0.7164930    -0.0499630
  H        1.2406550     2.4926530    -0.0000150
  H        3.3769820     1.2466390     0.0000290
  H        3.3769830    -1.2466390     0.0000450
  H        1.2406520    -2.4926530    -0.0000080
  H       -1.2406510    -2.4926520    -0.0000430
  H       -3.3769830    -1.2466380     0.0000750
  H       -3.3769830     1.2466370     0.0000000
  H       -1.2406540     2.4926530     0.0000170
units angstrom
no_reorient  #important for SAPT in psi4, default
symmetry c1  #important for SAPT in psi4, default
}

set PROPERTIES_ORIGIN ["COM"]
properties('MP2/aug-cc-pvtz', properties = ['dipole'])
--------------------------------------------------------------------------

    Molecular point group: c1
  Charge       = 0
  Multiplicity = 1
  Basis Set: AUG-CC-PVTZ
    Blend: AUG-CC-PVTZ
  Basis Set: (AUG-CC-PVTZ AUX)
    Blend: AUG-CC-PVTZ-JKFIT

    Orbital Energies [Eh]
    ---------------------

    Doubly Occupied:

       1A    -11.246927     2A    -11.245926     3A    -11.240046
       4A    -11.239993     5A    -11.239778     6A    -11.239687
       7A    -11.238682     8A    -11.238647     9A    -11.237876
      10A    -11.237862    11A     -1.175556    12A     -1.108522
      13A     -1.050330    14A     -1.008451    15A     -0.980068
      16A     -0.854515    17A     -0.835909    18A     -0.810932
      19A     -0.706833    20A     -0.698401    21A     -0.676804
      22A     -0.623821    23A     -0.611391    24A     -0.583782
      25A     -0.582926    26A     -0.563755    27A     -0.533345
      28A     -0.525402    29A     -0.488959    30A     -0.478129
      31A     -0.448236    32A     -0.386274    33A     -0.320200
      34A     -0.288616

  @DF-RHF Final Energy:  -383.47564594135753

   => Energetics <=

    Nuclear Repulsion Energy =            457.2569098606072657
    One-Electron Energy =               -1423.9719499622353851
    Two-Electron Energy =                 583.2393941602705354
    Total Energy =                       -383.4756459413575840
  Basis Set: (AUG-CC-PVTZ AUX)
    Blend: AUG-CC-PVTZ-RI
    Molecular point group: c1

    Geometry (in Angstrom), charge = 0, multiplicity = 1:

       Center              X                  Y                   Z               Mass
    ------------   -----------------  -----------------  -----------------  -----------------
         C            1.241622207650     1.403437187408     0.004676014623    12.000000000000
         C            2.432527207650     0.707306187408     0.004693014623    12.000000000000
         C            2.432527207650    -0.707306812592     0.004680014623    12.000000000000
         C            1.241622207650    -1.403436812592     0.004713014623    12.000000000000
         C            0.000000207650    -0.716493812592     0.004597014623    12.000000000000
         C           -1.241621792350    -1.403435812592     0.004730014623    12.000000000000
         C           -2.432527792350    -0.707306812592     0.004651014623    12.000000000000
         C           -2.432526792350     0.707306187408     0.004722014623    12.000000000000
         C           -1.241622792350     1.403437187408     0.004658014623    12.000000000000
         C           -0.000000092350     0.716493187408    -0.045276985377    12.000000000000
         H            1.240655207650     2.492653187408     0.004671014623     1.007825032230
         H            3.376982207650     1.246639187408     0.004715014623     1.007825032230
         H            3.376983207650    -1.246638812592     0.004731014623     1.007825032230
         H            1.240652207650    -2.492652812592     0.004678014623     1.007825032230
         H           -1.240650792350    -2.492651812592     0.004643014623     1.007825032230
         H           -3.376982792350    -1.246637812592     0.004761014623     1.007825032230
         H           -3.376982792350     1.246637187408     0.004686014623     1.007825032230
         H           -1.240653792350     2.492653187408     0.004703014623     1.007825032230

  Basis Set: AUG-CC-PVTZ
    Blend: AUG-CC-PVTZ
  Basis Set: (AUG-CC-PVTZ AUX)
    Blend: AUG-CC-PVTZ-JKFIT
	 Reference Energy          =    -383.4756459413575271 [Eh]
	 Singles Energy            =      -0.0000000000000000 [Eh]
	 Same-Spin Energy          =      -0.4343056907118680 [Eh]
	 Opposite-Spin Energy      =      -1.3479425956363271 [Eh]
	 Correlation Energy        =      -1.7822482863481950 [Eh]
	 Total Energy              =    -385.2578942277057195 [Eh]

	 ================> DF-SCS-MP2 Energies <==================
	-----------------------------------------------------------
	 SCS Same-Spin Scale       =       0.3333333333333333 [-]
	 SCS Opposite-Spin Scale   =       1.2000000000000000 [-]
	 SCS Same-Spin Energy      =      -0.1447685635706226 [Eh]
	 SCS Opposite-Spin Energy  =      -1.6175311147635925 [Eh]
	 SCS Correlation Energy    =      -1.7622996783342151 [Eh]
	 SCS Total Energy          =    -385.2379456196917431 [Eh]
	-----------------------------------------------------------

  Dipole Moment: [D]
     X:    -0.0000      Y:    -0.0017      Z:    -0.0019     Total:     0.0026

*** Psi4 exiting successfully. Buy a developer a beer!
