                               Psi4 1.3.2 release

  ==> Input File <==

--------------------------------------------------------------------------
#psi4
#
memory 32 gb

molecule  {
0 1
  C        1.2416220     1.4034370    -0.0000100
  C        2.4325270     0.7073060     0.0000070
  C        2.4325270    -0.7073070    -0.0000060
  C        1.2416220    -1.4034370     0.0000270
  C        0.0000000    -0.7164940    -0.0000890
  C       -1.2416220    -1.4034360     0.0000440
  C       -2.4325280    -0.7073070    -0.0000350
  C       -2.4325270     0.7073060     0.0000360
  C       -1.2416230     1.4034370    -0.0000280
  C        0.0000000     0.7164930     0.0000370
  H        1.2406513     2.4926468    -0.3000150
  H        3.3769820     1.2466390     0.0000290
  H        3.3769830    -1.2466390     0.0000450
  H        1.2406520    -2.4926530    -0.0000080
  H       -1.2406510    -2.4926520    -0.0000430
  H       -3.3769830    -1.2466380     0.0000750
  H       -3.3769830     1.2466370     0.0000000
  H       -1.2406540     2.4926530     0.0000170
units angstrom
no_reorient  #important for SAPT in psi4, default
symmetry c1  #important for SAPT in psi4, default
}

set PROPERTIES_ORIGIN ["COM"]
properties('MP2/aug-cc-pvtz', properties = ['dipole'])
--------------------------------------------------------------------------

    Molecular point group: c1
  Charge       = 0
  Multiplicity = 1
  Basis Set: AUG-CC-PVTZ
    Blend: AUG-CC-PVTZ
  Basis Set: (AUG-CC-PVTZ AUX)
    Blend: AUG-CC-PVTZ-JKFIT

    Orbital Energies [Eh]
    ---------------------

    Doubly Occupied:

       1A    -11.247079     2A    -11.246075     3A    -11.242873
       4A    -11.240656     5A    -11.240119     6A    -11.239730
       7A    -11.239719     8A    -11.238728     9A    -11.238516
      10A    -11.237988    11A     -1.175866    12A     -1.108791
      13A     -1.050009    14A     -1.008853    15A     -0.979720
      16A     -0.854295    17A     -0.836227    18A     -0.809045
      19A     -0.706693    20A     -0.696622    21A     -0.676924
      22A     -0.620793    23A     -0.611706    24A     -0.584205
      25A     -0.580361    26A     -0.563953    27A     -0.535017
      28A     -0.522516    29A     -0.489288    30A     -0.477410
      31A     -0.447571    32A     -0.385613    33A     -0.320498
      34A     -0.288825

  @DF-RHF Final Energy:  -383.47036995280473

   => Energetics <=

    Nuclear Repulsion Energy =            457.1334101920485296
    One-Electron Energy =               -1423.7229901822154261
    Two-Electron Energy =                 583.1192100373621088
    Total Energy =                       -383.4703699528047309
  Basis Set: (AUG-CC-PVTZ AUX)
    Blend: AUG-CC-PVTZ-RI
    Molecular point group: c1

    Geometry (in Angstrom), charge = 0, multiplicity = 1:

       Center              X                  Y                   Z               Mass
    ------------   -----------------  -----------------  -----------------  -----------------
         C            1.241622208657     1.403437236201     0.002351741262    12.000000000000
         C            2.432527208657     0.707306236201     0.002368741262    12.000000000000
         C            2.432527208657    -0.707306763799     0.002355741262    12.000000000000
         C            1.241622208657    -1.403436763799     0.002388741262    12.000000000000
         C            0.000000208657    -0.716493763799     0.002272741262    12.000000000000
         C           -1.241621791343    -1.403435763799     0.002405741262    12.000000000000
         C           -2.432527791343    -0.707306763799     0.002326741262    12.000000000000
         C           -2.432526791343     0.707306236201     0.002397741262    12.000000000000
         C           -1.241622791343     1.403437236201     0.002333741262    12.000000000000
         C            0.000000208657     0.716493236201     0.002398741262    12.000000000000
         H            1.240651508657     2.492647036201    -0.297653258738     1.007825032230
         H            3.376982208657     1.246639236201     0.002390741262     1.007825032230
         H            3.376983208657    -1.246638763799     0.002406741262     1.007825032230
         H            1.240652208657    -2.492652763799     0.002353741262     1.007825032230
         H           -1.240650791343    -2.492651763799     0.002318741262     1.007825032230
         H           -3.376982791343    -1.246637763799     0.002436741262     1.007825032230
         H           -3.376982791343     1.246637236201     0.002361741262     1.007825032230
         H           -1.240653791343     2.492653236201     0.002378741262     1.007825032230

  Basis Set: AUG-CC-PVTZ
    Blend: AUG-CC-PVTZ
  Basis Set: (AUG-CC-PVTZ AUX)
    Blend: AUG-CC-PVTZ-JKFIT
	 Reference Energy          =    -383.4703699528047309 [Eh]
	 Singles Energy            =      -0.0000000000000000 [Eh]
	 Same-Spin Energy          =      -0.4346230075528222 [Eh]
	 Opposite-Spin Energy      =      -1.3488113880146197 [Eh]
	 Correlation Energy        =      -1.7834343955674419 [Eh]
	 Total Energy              =    -385.2538043483721708 [Eh]

	 ================> DF-SCS-MP2 Energies <==================
	-----------------------------------------------------------
	 SCS Same-Spin Scale       =       0.3333333333333333 [-]
	 SCS Opposite-Spin Scale   =       1.2000000000000000 [-]
	 SCS Same-Spin Energy      =      -0.1448743358509407 [Eh]
	 SCS Opposite-Spin Energy  =      -1.6185736656175436 [Eh]
	 SCS Correlation Energy    =      -1.7634480014684843 [Eh]
	 SCS Total Energy          =    -385.2338179542732064 [Eh]
	-----------------------------------------------------------

  Dipole Moment: [D]
     X:    -0.0086      Y:    -0.0703      Z:    -0.1753     Total:     0.1891

*** Psi4 exiting successfully. Buy a developer a beer!
