                               Psi4 1.3.2 release

  ==> Input File <==

--------------------------------------------------------------------------
#psi4
#
memory 32 gb

molecule  {
0 1
  C        1.2416220     1.4034370    -0.0000100
  C        2.4325270     0.7073060     0.0000070
  C        2.4325270    -0.7073070    -0.0000060
  C        1.2416220    -1.4034370     0.0000270
  C        0.0000000    -0.7164940    -0.0000890
  C       -1.2416220    -1.4034360     0.0000440
  C       -2.4325280    -0.7073070    -0.0000350
  C       -2.4325270     0.7073060     0.0000360
  C       -1.2416230     1.4034370    -0.0000280
  C        0.0000000     0.7164930     0.0000370
  H        1.2406525     2.4926489    -0.2000150
  H        3.3769820     1.2466390     0.0000290
  H        3.3769830    -1.2466390     0.0000450
  H        1.2406520    -2.4926530    -0.0000080
  H       -1.2406510    -2.4926520    -0.0000430
  H       -3.3769830    -1.2466380     0.0000750
  H       -3.3769830     1.2466370     0.0000000
  H       -1.2406540     2.4926530     0.0000170
units angstrom
no_reorient  #important for SAPT in psi4, default
symmetry c1  #important for SAPT in psi4, default
}

set PROPERTIES_ORIGIN ["COM"]
properties('MP2/aug-cc-pvtz', properties = ['dipole'])
--------------------------------------------------------------------------

    Molecular point group: c1
  Charge       = 0
  Multiplicity = 1
  Basis Set: AUG-CC-PVTZ
    Blend: AUG-CC-PVTZ
  Basis Set: (AUG-CC-PVTZ AUX)
    Blend: AUG-CC-PVTZ-JKFIT

    Orbital Energies [Eh]
    ---------------------

    Doubly Occupied:

       1A    -11.246879     2A    -11.245877     3A    -11.241138
       4A    -11.240196     5A    -11.240023     6A    -11.239703
       7A    -11.239163     8A    -11.238682     9A    -11.238189
      10A    -11.237916    11A     -1.175759    12A     -1.108654
      13A     -1.050221    14A     -1.008667    15A     -0.979913
      16A     -0.854447    17A     -0.836077    18A     -0.810122
      19A     -0.706764    20A     -0.697612    21A     -0.676867
      22A     -0.622400    23A     -0.611608    24A     -0.584012
      25A     -0.581844    26A     -0.563843    27A     -0.534267
      28A     -0.524033    29A     -0.489111    30A     -0.477873
      31A     -0.448006    32A     -0.386058    33A     -0.320337
      34A     -0.288731

  @DF-RHF Final Energy:  -383.47394961040857

   => Energetics <=

    Nuclear Repulsion Energy =            457.2196877116145970
    One-Electron Energy =               -1423.8972910169602528
    Two-Electron Energy =                 583.2036536949370884
    Total Energy =                       -383.4739496104085674
  Basis Set: (AUG-CC-PVTZ AUX)
    Blend: AUG-CC-PVTZ-RI
    Molecular point group: c1

    Geometry (in Angstrom), charge = 0, multiplicity = 1:

       Center              X                  Y                   Z               Mass
    ------------   -----------------  -----------------  -----------------  -----------------
         C            1.241622199213     1.403437219674     0.001564762839    12.000000000000
         C            2.432527199213     0.707306219674     0.001581762839    12.000000000000
         C            2.432527199213    -0.707306780326     0.001568762839    12.000000000000
         C            1.241622199213    -1.403436780326     0.001601762839    12.000000000000
         C            0.000000199213    -0.716493780326     0.001485762839    12.000000000000
         C           -1.241621800787    -1.403435780326     0.001618762839    12.000000000000
         C           -2.432527800787    -0.707306780326     0.001539762839    12.000000000000
         C           -2.432526800787     0.707306219674     0.001610762839    12.000000000000
         C           -1.241622800787     1.403437219674     0.001546762839    12.000000000000
         C            0.000000199213     0.716493219674     0.001611762839    12.000000000000
         H            1.240652699213     2.492649119674    -0.198440237161     1.007825032230
         H            3.376982199213     1.246639219674     0.001603762839     1.007825032230
         H            3.376983199213    -1.246638780326     0.001619762839     1.007825032230
         H            1.240652199213    -2.492652780326     0.001566762839     1.007825032230
         H           -1.240650800787    -2.492651780326     0.001531762839     1.007825032230
         H           -3.376982800787    -1.246637780326     0.001649762839     1.007825032230
         H           -3.376982800787     1.246637219674     0.001574762839     1.007825032230
         H           -1.240653800787     2.492653219674     0.001591762839     1.007825032230

  Basis Set: AUG-CC-PVTZ
    Blend: AUG-CC-PVTZ
  Basis Set: (AUG-CC-PVTZ AUX)
    Blend: AUG-CC-PVTZ-JKFIT
	 Reference Energy          =    -383.4739496104085674 [Eh]
	 Singles Energy            =      -0.0000000000000000 [Eh]
	 Same-Spin Energy          =      -0.4344327332585886 [Eh]
	 Opposite-Spin Energy      =      -1.3483377202968709 [Eh]
	 Correlation Energy        =      -1.7827704535554596 [Eh]
	 Total Energy              =    -385.2567200639640532 [Eh]

	 ================> DF-SCS-MP2 Energies <==================
	-----------------------------------------------------------
	 SCS Same-Spin Scale       =       0.3333333333333333 [-]
	 SCS Opposite-Spin Scale   =       1.2000000000000000 [-]
	 SCS Same-Spin Energy      =      -0.1448109110861962 [Eh]
	 SCS Opposite-Spin Energy  =      -1.6180052643562450 [Eh]
	 SCS Correlation Energy    =      -1.7628161754424412 [Eh]
	 SCS Total Energy          =    -385.2367657858509915 [Eh]
	-----------------------------------------------------------

  Dipole Moment: [D]
     X:    -0.0039      Y:    -0.0317      Z:    -0.1188     Total:     0.1230

*** Psi4 exiting successfully. Buy a developer a beer!
