                               Psi4 1.3.2 release

  ==> Input File <==

--------------------------------------------------------------------------
#psi4
#
memory 32 gb

molecule  {
0 1
  C        1.2416220     1.4034370    -0.0000100
  C        2.4325270     0.7073060     0.0000070
  C        2.4325270    -0.7073070    -0.0000060
  C        1.2416220    -1.4034370     0.0000270
  C        0.0000000    -0.7164940    -0.0000890
  C       -1.2416220    -1.4034360     0.0000440
  C       -2.4325280    -0.7073070    -0.0000350
  C       -2.4325270     0.7073060     0.0000360
  C       -1.2416230     1.4034370    -0.0000280
  C        0.0000000     0.7164930     0.0000370
  H        1.2406519     2.4926478    -0.2500150
  H        3.3769820     1.2466390     0.0000290
  H        3.3769830    -1.2466390     0.0000450
  H        1.2406520    -2.4926530    -0.0000080
  H       -1.2406510    -2.4926520    -0.0000430
  H       -3.3769830    -1.2466380     0.0000750
  H       -3.3769830     1.2466370     0.0000000
  H       -1.2406540     2.4926530     0.0000170
units angstrom
no_reorient  #important for SAPT in psi4, default
symmetry c1  #important for SAPT in psi4, default
}

set PROPERTIES_ORIGIN ["COM"]
properties('MP2/aug-cc-pvtz', properties = ['dipole'])
--------------------------------------------------------------------------

    Molecular point group: c1
  Charge       = 0
  Multiplicity = 1
  Basis Set: AUG-CC-PVTZ
    Blend: AUG-CC-PVTZ
  Basis Set: (AUG-CC-PVTZ AUX)
    Blend: AUG-CC-PVTZ-JKFIT

    Orbital Energies [Eh]
    ---------------------

    Doubly Occupied:

       1A    -11.246967     2A    -11.245964     3A    -11.241915
       4A    -11.240403     5A    -11.240063     6A    -11.239714
       7A    -11.239419     8A    -11.238704     9A    -11.238343
      10A    -11.237948    11A     -1.175806    12A     -1.108714
      13A     -1.050121    14A     -1.008750    15A     -0.979822
      16A     -0.854373    17A     -0.836144    18A     -0.809621
      19A     -0.706721    20A     -0.697155    21A     -0.676891
      22A     -0.621655    23A     -0.611652    24A     -0.584097
      25A     -0.581182    26A     -0.563892    27A     -0.534627
      28A     -0.523329    29A     -0.489190    30A     -0.477671
      31A     -0.447810    32A     -0.385855    33A     -0.320409
      34A     -0.288772

  @DF-RHF Final Energy:  -383.47238293540863

   => Energetics <=

    Nuclear Repulsion Energy =            457.1803987632275721
    One-Electron Energy =               -1423.8181698784542277
    Two-Electron Energy =                 583.1653881798180237
    Total Energy =                       -383.4723829354086320
  Basis Set: (AUG-CC-PVTZ AUX)
    Blend: AUG-CC-PVTZ-RI
    Molecular point group: c1

    Geometry (in Angstrom), charge = 0, multiplicity = 1:

       Center              X                  Y                   Z               Mass
    ------------   -----------------  -----------------  -----------------  -----------------
         C            1.241622203935     1.403437228331     0.001958252051    12.000000000000
         C            2.432527203935     0.707306228331     0.001975252051    12.000000000000
         C            2.432527203935    -0.707306771669     0.001962252051    12.000000000000
         C            1.241622203935    -1.403436771669     0.001995252051    12.000000000000
         C            0.000000203935    -0.716493771669     0.001879252051    12.000000000000
         C           -1.241621796065    -1.403435771669     0.002012252051    12.000000000000
         C           -2.432527796065    -0.707306771669     0.001933252051    12.000000000000
         C           -2.432526796065     0.707306228331     0.002004252051    12.000000000000
         C           -1.241622796065     1.403437228331     0.001940252051    12.000000000000
         C            0.000000203935     0.716493228331     0.002005252051    12.000000000000
         H            1.240652103935     2.492648028331    -0.248046747949     1.007825032230
         H            3.376982203935     1.246639228331     0.001997252051     1.007825032230
         H            3.376983203935    -1.246638771669     0.002013252051     1.007825032230
         H            1.240652203935    -2.492652771669     0.001960252051     1.007825032230
         H           -1.240650796065    -2.492651771669     0.001925252051     1.007825032230
         H           -3.376982796065    -1.246637771669     0.002043252051     1.007825032230
         H           -3.376982796065     1.246637228331     0.001968252051     1.007825032230
         H           -1.240653796065     2.492653228331     0.001985252051     1.007825032230

  Basis Set: AUG-CC-PVTZ
    Blend: AUG-CC-PVTZ
  Basis Set: (AUG-CC-PVTZ AUX)
    Blend: AUG-CC-PVTZ-JKFIT
	 Reference Energy          =    -383.4723829354086320 [Eh]
	 Singles Energy            =      -0.0000000000000000 [Eh]
	 Same-Spin Energy          =      -0.4345197532416346 [Eh]
	 Opposite-Spin Energy      =      -1.3485500692356229 [Eh]
	 Correlation Energy        =      -1.7830698224772574 [Eh]
	 Total Energy              =    -385.2554527578859052 [Eh]

	 ================> DF-SCS-MP2 Energies <==================
	-----------------------------------------------------------
	 SCS Same-Spin Scale       =       0.3333333333333333 [-]
	 SCS Opposite-Spin Scale   =       1.2000000000000000 [-]
	 SCS Same-Spin Energy      =      -0.1448399177472115 [Eh]
	 SCS Opposite-Spin Energy  =      -1.6182600830827474 [Eh]
	 SCS Correlation Energy    =      -1.7631000008299589 [Eh]
	 SCS Total Energy          =    -385.2354829362386113 [Eh]
	-----------------------------------------------------------

  Dipole Moment: [D]
     X:    -0.0060      Y:    -0.0492      Z:    -0.1474     Total:     0.1555

*** Psi4 exiting successfully. Buy a developer a beer!
