                               Psi4 1.3.2 release

  ==> Input File <==

--------------------------------------------------------------------------
#psi4
#
memory 32 gb

molecule  {
0 1
  C        1.2416220     1.4034370    -0.0000100
  C        2.4325270     0.7073060     0.0000070
  C        2.4325270    -0.7073070    -0.0000060
  C        1.2416220    -1.4034370     0.0000270
  C        0.0000000    -0.7164940    -0.0000890
  C       -1.2416220    -1.4034360     0.0000440
  C       -2.4325280    -0.7073070    -0.0000350
  C       -2.4325270     0.7073060     0.0000360
  C       -1.2416230     1.4034370    -0.0000280
  C        0.0000000     0.7164930     0.0000370
  H        1.2406550     2.4926530    -0.0000150
  H        3.3769782     1.2466372     0.2000290
  H        3.3769830    -1.2466390     0.0000450
  H        1.2406520    -2.4926530    -0.0000080
  H       -1.2406510    -2.4926520    -0.0000430
  H       -3.3769830    -1.2466380     0.0000750
  H       -3.3769830     1.2466370     0.0000000
  H       -1.2406540     2.4926530     0.0000170
units angstrom
no_reorient  #important for SAPT in psi4, default
symmetry c1  #important for SAPT in psi4, default
}

set PROPERTIES_ORIGIN ["COM"]
properties('MP2/aug-cc-pvtz', properties = ['dipole'])
--------------------------------------------------------------------------

    Molecular point group: c1
  Charge       = 0
  Multiplicity = 1
  Basis Set: AUG-CC-PVTZ
    Blend: AUG-CC-PVTZ
  Basis Set: (AUG-CC-PVTZ AUX)
    Blend: AUG-CC-PVTZ-JKFIT

    Orbital Energies [Eh]
    ---------------------

    Doubly Occupied:

       1A    -11.246969     2A    -11.245958     3A    -11.240866
       4A    -11.240177     5A    -11.239925     6A    -11.239840
       7A    -11.239363     8A    -11.238841     9A    -11.238307
      10A    -11.238061    11A     -1.175861    12A     -1.108582
      13A     -1.050574    14A     -1.008374    15A     -0.980102
      16A     -0.854334    17A     -0.835546    18A     -0.811258
      19A     -0.706044    20A     -0.698068    21A     -0.676124
      22A     -0.623877    23A     -0.611109    24A     -0.583755
      25A     -0.583065    26A     -0.562975    27A     -0.533910
      28A     -0.524685    29A     -0.488794    30A     -0.478352
      31A     -0.447474    32A     -0.386529    33A     -0.320191
      34A     -0.288798

  @DF-RHF Final Energy:  -383.47390594329732

   => Energetics <=

    Nuclear Repulsion Energy =            457.2231434296786006
    One-Electron Energy =               -1423.9007215126068786
    Two-Electron Energy =                 583.2036721396309531
    Total Energy =                       -383.4739059432972681
  Basis Set: (AUG-CC-PVTZ AUX)
    Blend: AUG-CC-PVTZ-RI
    Molecular point group: c1

    Geometry (in Angstrom), charge = 0, multiplicity = 1:

       Center              X                  Y                   Z               Mass
    ------------   -----------------  -----------------  -----------------  -----------------
         C            1.241622209444     1.403437201574    -0.001583150854    12.000000000000
         C            2.432527209444     0.707306201574    -0.001566150854    12.000000000000
         C            2.432527209444    -0.707306798426    -0.001579150854    12.000000000000
         C            1.241622209444    -1.403436798426    -0.001546150854    12.000000000000
         C            0.000000209444    -0.716493798426    -0.001662150854    12.000000000000
         C           -1.241621790556    -1.403435798426    -0.001529150854    12.000000000000
         C           -2.432527790556    -0.707306798426    -0.001608150854    12.000000000000
         C           -2.432526790556     0.707306201574    -0.001537150854    12.000000000000
         C           -1.241622790556     1.403437201574    -0.001601150854    12.000000000000
         C            0.000000209444     0.716493201574    -0.001536150854    12.000000000000
         H            1.240655209444     2.492653201574    -0.001588150854     1.007825032230
         H            3.376978409444     1.246637401574     0.198455849146     1.007825032230
         H            3.376983209444    -1.246638798426    -0.001528150854     1.007825032230
         H            1.240652209444    -2.492652798426    -0.001581150854     1.007825032230
         H           -1.240650790556    -2.492651798426    -0.001616150854     1.007825032230
         H           -3.376982790556    -1.246637798426    -0.001498150854     1.007825032230
         H           -3.376982790556     1.246637201574    -0.001573150854     1.007825032230
         H           -1.240653790556     2.492653201574    -0.001556150854     1.007825032230

  Basis Set: AUG-CC-PVTZ
    Blend: AUG-CC-PVTZ
  Basis Set: (AUG-CC-PVTZ AUX)
    Blend: AUG-CC-PVTZ-JKFIT
	 Reference Energy          =    -383.4739059432973249 [Eh]
	 Singles Energy            =      -0.0000000000000000 [Eh]
	 Same-Spin Energy          =      -0.4344106502585324 [Eh]
	 Opposite-Spin Energy      =      -1.3483153184024810 [Eh]
	 Correlation Energy        =      -1.7827259686610133 [Eh]
	 Total Energy              =    -385.2566319119583227 [Eh]

	 ================> DF-SCS-MP2 Energies <==================
	-----------------------------------------------------------
	 SCS Same-Spin Scale       =       0.3333333333333333 [-]
	 SCS Opposite-Spin Scale   =       1.2000000000000000 [-]
	 SCS Same-Spin Energy      =      -0.1448035500861775 [Eh]
	 SCS Opposite-Spin Energy  =      -1.6179783820829772 [Eh]
	 SCS Correlation Energy    =      -1.7627819321691547 [Eh]
	 SCS Total Energy          =    -385.2366878754664867 [Eh]
	-----------------------------------------------------------

  Dipole Moment: [D]
     X:    -0.0374      Y:    -0.0163      Z:     0.1254     Total:     0.1319

*** Psi4 exiting successfully. Buy a developer a beer!
