                               Psi4 1.3.2 release

  ==> Input File <==

--------------------------------------------------------------------------
#psi4
#
memory 32 gb

molecule  {
0 1
  C        1.2416220     1.4034370    -0.0000100
  C        2.4325270     0.7073060     0.0000070
  C        2.4325270    -0.7073070    -0.0000060
  C        1.2416220    -1.4034370     0.0000270
  C        0.0000000    -0.7164940    -0.0000890
  C       -1.2416220    -1.4034360     0.0000440
  C       -2.4325280    -0.7073070    -0.0000350
  C       -2.4325270     0.7073060     0.0000360
  C       -1.2416230     1.4034370    -0.0000280
  C        0.0000000     0.7164930     0.0000370
  H        1.2406550     2.4926530    -0.0000150
  H        3.3769811     1.2466386     0.0500290
  H        3.3769830    -1.2466390     0.0000450
  H        1.2406520    -2.4926530    -0.0000080
  H       -1.2406510    -2.4926520    -0.0000430
  H       -3.3769830    -1.2466380     0.0000750
  H       -3.3769830     1.2466370     0.0000000
  H       -1.2406540     2.4926530     0.0000170
units angstrom
no_reorient  #important for SAPT in psi4, default
symmetry c1  #important for SAPT in psi4, default
}

set PROPERTIES_ORIGIN ["COM"]
properties('MP2/aug-cc-pvtz', properties = ['dipole'])
--------------------------------------------------------------------------

    Molecular point group: c1
  Charge       = 0
  Multiplicity = 1
  Basis Set: AUG-CC-PVTZ
    Blend: AUG-CC-PVTZ
  Basis Set: (AUG-CC-PVTZ AUX)
    Blend: AUG-CC-PVTZ-JKFIT

    Orbital Energies [Eh]
    ---------------------

    Doubly Occupied:

       1A    -11.246758     2A    -11.245754     3A    -11.240032
       4A    -11.239978     5A    -11.239758     6A    -11.239663
       7A    -11.238697     8A    -11.238652     9A    -11.237914
      10A    -11.237877    11A     -1.175701    12A     -1.108560
      13A     -1.050436    14A     -1.008520    15A     -0.980104
      16A     -0.854595    17A     -0.835942    18A     -0.811104
      19A     -0.706848    20A     -0.698451    21A     -0.676793
      22A     -0.623820    23A     -0.611510    24A     -0.583874
      25A     -0.582998    26A     -0.563712    27A     -0.533518
      28A     -0.525373    29A     -0.488971    30A     -0.478222
      31A     -0.448310    32A     -0.386439    33A     -0.320217
      34A     -0.288677

  @DF-RHF Final Energy:  -383.47636313781982

   => Energetics <=

    Nuclear Repulsion Energy =            457.2871637793802506
    One-Electron Energy =               -1424.0314974642471952
    Two-Electron Energy =                 583.2679705470470708
    Total Energy =                       -383.4763631378198170
  Basis Set: (AUG-CC-PVTZ AUX)
    Blend: AUG-CC-PVTZ-RI
    Molecular point group: c1

    Geometry (in Angstrom), charge = 0, multiplicity = 1:

       Center              X                  Y                   Z               Mass
    ------------   -----------------  -----------------  -----------------  -----------------
         C            1.241622186621     1.403437190556    -0.000402683219    12.000000000000
         C            2.432527186621     0.707306190556    -0.000385683219    12.000000000000
         C            2.432527186621    -0.707306809444    -0.000398683219    12.000000000000
         C            1.241622186621    -1.403436809444    -0.000365683219    12.000000000000
         C            0.000000186621    -0.716493809444    -0.000481683219    12.000000000000
         C           -1.241621813379    -1.403435809444    -0.000348683219    12.000000000000
         C           -2.432527813379    -0.707306809444    -0.000427683219    12.000000000000
         C           -2.432526813379     0.707306190556    -0.000356683219    12.000000000000
         C           -1.241622813379     1.403437190556    -0.000420683219    12.000000000000
         C            0.000000186621     0.716493190556    -0.000355683219    12.000000000000
         H            1.240655186621     2.492653190556    -0.000407683219     1.007825032230
         H            3.376981286621     1.246638790556     0.049636316781     1.007825032230
         H            3.376983186621    -1.246638809444    -0.000347683219     1.007825032230
         H            1.240652186621    -2.492652809444    -0.000400683219     1.007825032230
         H           -1.240650813379    -2.492651809444    -0.000435683219     1.007825032230
         H           -3.376982813379    -1.246637809444    -0.000317683219     1.007825032230
         H           -3.376982813379     1.246637190556    -0.000392683219     1.007825032230
         H           -1.240653813379     2.492653190556    -0.000375683219     1.007825032230

  Basis Set: AUG-CC-PVTZ
    Blend: AUG-CC-PVTZ
  Basis Set: (AUG-CC-PVTZ AUX)
    Blend: AUG-CC-PVTZ-JKFIT
	 Reference Energy          =    -383.4763631378198170 [Eh]
	 Singles Energy            =      -0.0000000000000000 [Eh]
	 Same-Spin Energy          =      -0.4342763235522491 [Eh]
	 Opposite-Spin Energy      =      -1.3479826307106022 [Eh]
	 Correlation Energy        =      -1.7822589542628513 [Eh]
	 Total Energy              =    -385.2586220920826463 [Eh]

	 ================> DF-SCS-MP2 Energies <==================
	-----------------------------------------------------------
	 SCS Same-Spin Scale       =       0.3333333333333333 [-]
	 SCS Opposite-Spin Scale   =       1.2000000000000000 [-]
	 SCS Same-Spin Energy      =      -0.1447587745174164 [Eh]
	 SCS Opposite-Spin Energy  =      -1.6175791568527227 [Eh]
	 SCS Correlation Energy    =      -1.7623379313701391 [Eh]
	 SCS Total Energy          =    -385.2387010691899718 [Eh]
	-----------------------------------------------------------

  Dipole Moment: [D]
     X:    -0.0024      Y:    -0.0010      Z:     0.0318     Total:     0.0319

*** Psi4 exiting successfully. Buy a developer a beer!
