                               Psi4 1.3.2 release

  ==> Input File <==

--------------------------------------------------------------------------
#psi4
#
memory 32 gb

molecule  {
0 1
  C        1.2416220     1.4034370    -0.0000100
  C        2.4325270     0.7073060     0.0000070
  C        2.4325270    -0.7073070    -0.0000060
  C        1.2416220    -1.4034370     0.0000270
  C        0.0000000    -0.7164940    -0.0000890
  C       -1.2416220    -1.4034360     0.0000440
  C       -2.4325280    -0.7073070    -0.0000350
  C       -2.4325270     0.7073060     0.0000360
  C       -1.2416230     1.4034370    -0.0000280
  C        0.0000000     0.7164930     0.0000370
  H        1.2406550     2.4926530    -0.0000150
  H        3.3769773     1.2466368     0.2500290
  H        3.3769830    -1.2466390     0.0000450
  H        1.2406520    -2.4926530    -0.0000080
  H       -1.2406510    -2.4926520    -0.0000430
  H       -3.3769830    -1.2466380     0.0000750
  H       -3.3769830     1.2466370     0.0000000
  H       -1.2406540     2.4926530     0.0000170
units angstrom
no_reorient  #important for SAPT in psi4, default
symmetry c1  #important for SAPT in psi4, default
}

set PROPERTIES_ORIGIN ["COM"]
properties('MP2/aug-cc-pvtz', properties = ['dipole'])
--------------------------------------------------------------------------

    Molecular point group: c1
  Charge       = 0
  Multiplicity = 1
  Basis Set: AUG-CC-PVTZ
    Blend: AUG-CC-PVTZ
  Basis Set: (AUG-CC-PVTZ AUX)
    Blend: AUG-CC-PVTZ-JKFIT

    Orbital Energies [Eh]
    ---------------------

    Doubly Occupied:

       1A    -11.247102     2A    -11.246081     3A    -11.241555
       4A    -11.240292     5A    -11.240031     6A    -11.239942
       7A    -11.239701     8A    -11.238950     9A    -11.238433
      10A    -11.238170    11A     -1.175960    12A     -1.108602
      13A     -1.050662    14A     -1.008301    15A     -0.980110
      16A     -0.854206    17A     -0.835325    18A     -0.811353
      19A     -0.705676    20A     -0.697822    21A     -0.675719
      22A     -0.623919    23A     -0.610885    24A     -0.583721
      25A     -0.583085    26A     -0.562519    27A     -0.534124
      28A     -0.524295    29A     -0.488678    30A     -0.478428
      31A     -0.446979    32A     -0.386586    33A     -0.320182
      34A     -0.288874

  @DF-RHF Final Energy:  -383.47231759607683

   => Energetics <=

    Nuclear Repulsion Energy =            457.1857963271734207
    One-Electron Energy =               -1423.8236901398408918
    Two-Electron Energy =                 583.1655762165905799
    Total Energy =                       -383.4723175960768913
  Basis Set: (AUG-CC-PVTZ AUX)
    Blend: AUG-CC-PVTZ-RI
    Molecular point group: c1

    Geometry (in Angstrom), charge = 0, multiplicity = 1:

       Center              X                  Y                   Z               Mass
    ------------   -----------------  -----------------  -----------------  -----------------
         C            1.241622216527     1.403437204722    -0.001976640066    12.000000000000
         C            2.432527216527     0.707306204722    -0.001959640066    12.000000000000
         C            2.432527216527    -0.707306795278    -0.001972640066    12.000000000000
         C            1.241622216527    -1.403436795278    -0.001939640066    12.000000000000
         C            0.000000216527    -0.716493795278    -0.002055640066    12.000000000000
         C           -1.241621783473    -1.403435795278    -0.001922640066    12.000000000000
         C           -2.432527783473    -0.707306795278    -0.002001640066    12.000000000000
         C           -2.432526783473     0.707306204722    -0.001930640066    12.000000000000
         C           -1.241622783473     1.403437204722    -0.001994640066    12.000000000000
         C            0.000000216527     0.716493204722    -0.001929640066    12.000000000000
         H            1.240655216527     2.492653204722    -0.001981640066     1.007825032230
         H            3.376977516527     1.246637004722     0.248062359934     1.007825032230
         H            3.376983216527    -1.246638795278    -0.001921640066     1.007825032230
         H            1.240652216527    -2.492652795278    -0.001974640066     1.007825032230
         H           -1.240650783473    -2.492651795278    -0.002009640066     1.007825032230
         H           -3.376982783473    -1.246637795278    -0.001891640066     1.007825032230
         H           -3.376982783473     1.246637204722    -0.001966640066     1.007825032230
         H           -1.240653783473     2.492653204722    -0.001949640066     1.007825032230

  Basis Set: AUG-CC-PVTZ
    Blend: AUG-CC-PVTZ
  Basis Set: (AUG-CC-PVTZ AUX)
    Blend: AUG-CC-PVTZ-JKFIT
	 Reference Energy          =    -383.4723175960768344 [Eh]
	 Singles Energy            =      -0.0000000000000000 [Eh]
	 Same-Spin Energy          =      -0.4344870483600576 [Eh]
	 Opposite-Spin Energy      =      -1.3485276965575563 [Eh]
	 Correlation Energy        =      -1.7830147449176139 [Eh]
	 Total Energy              =    -385.2553323409944710 [Eh]

	 ================> DF-SCS-MP2 Energies <==================
	-----------------------------------------------------------
	 SCS Same-Spin Scale       =       0.3333333333333333 [-]
	 SCS Opposite-Spin Scale   =       1.2000000000000000 [-]
	 SCS Same-Spin Energy      =      -0.1448290161200192 [Eh]
	 SCS Opposite-Spin Energy  =      -1.6182332358690676 [Eh]
	 SCS Correlation Energy    =      -1.7630622519890868 [Eh]
	 SCS Total Energy          =    -385.2353798480659179 [Eh]
	-----------------------------------------------------------

  Dipole Moment: [D]
     X:    -0.0580      Y:    -0.0253      Z:     0.1557     Total:     0.1681

*** Psi4 exiting successfully. Buy a developer a beer!
