                               Psi4 1.3.2 release

  ==> Input File <==

--------------------------------------------------------------------------
#psi4
#
memory 32 gb

molecule  {
0 1
  O       -2.2580520    -1.6446380    -0.1299340
  O       -2.1922020    -0.0289620     1.4584460
  O        2.5787120    -1.2491670    -0.5482700
  N       -1.4644620     1.9009220    -0.4829880
  N        3.3512580     0.4763250     0.7206820
  C        0.2185599    -0.0214041    -1.0349398
  C       -1.3719240     0.4734550    -0.7783870
  C        0.9633170     0.3705390     0.2368360
  C       -1.9915820    -0.3883620     0.3080910
  C        2.3594900    -0.2078000     0.0693900
  H        0.1535850    -1.0146500    -1.1939440
  H        0.4725780     0.5964070    -1.8456160
  H       -1.9082720     0.2705620    -1.7119190
  H        1.0131360     1.4533500     0.3956850
  H        0.5381800    -0.0660200     1.1504670
  H       -1.3038060     2.0229320     0.5177520
  H       -2.4253970     2.2086760    -0.6320610
  H        3.2135550     1.4259430     1.0332840
  H        4.3010400     0.1654310     0.5620470
  H       -2.5974020    -2.1351830     0.6479870
units angstrom
no_reorient  #important for SAPT in psi4, default
symmetry c1  #important for SAPT in psi4, default
}

set PROPERTIES_ORIGIN ["COM"]
properties('MP2/aug-cc-pvtz', properties = ['dipole'])
--------------------------------------------------------------------------

    Molecular point group: c1
  Charge       = 0
  Multiplicity = 1
  Basis Set: AUG-CC-PVTZ
    Blend: AUG-CC-PVTZ
  Basis Set: (AUG-CC-PVTZ AUX)
    Blend: AUG-CC-PVTZ-JKFIT

    Orbital Energies [Eh]
    ---------------------

    Doubly Occupied:

       1A    -20.623359     2A    -20.559287     3A    -20.522763
       4A    -15.589099     5A    -15.557708     6A    -11.392782
       7A    -11.356002     8A    -11.286657     9A    -11.248560
      10A    -11.239216    11A     -1.467185    12A     -1.377600
      13A     -1.364427    14A     -1.212282    15A     -1.200053
      16A     -1.070001    17A     -0.974039    18A     -0.889482
      19A     -0.799230    20A     -0.782745    21A     -0.728661
      22A     -0.712253    23A     -0.706471    24A     -0.688079
      25A     -0.659873    26A     -0.648937    27A     -0.622600
      28A     -0.601613    29A     -0.591122    30A     -0.579713
      31A     -0.568175    32A     -0.529537    33A     -0.517679
      34A     -0.496803    35A     -0.470380    36A     -0.465832
      37A     -0.429047    38A     -0.418867    39A     -0.404907

  @DF-RHF Final Energy:  -528.87080254209252

   => Energetics <=

    Nuclear Repulsion Energy =            546.9183716723206317
    One-Electron Energy =               -1808.8722934034487935
    Two-Electron Energy =                 733.0831191890355285
    Total Energy =                       -528.8708025420925196
  Basis Set: (AUG-CC-PVTZ AUX)
    Blend: AUG-CC-PVTZ-RI
    Molecular point group: c1

    Geometry (in Angstrom), charge = 0, multiplicity = 1:

       Center              X                  Y                   Z               Mass
    ------------   -----------------  -----------------  -----------------  -----------------
         O           -2.258659383151    -1.605084795100    -0.132230809695    15.994914619570
         O           -2.192809383151     0.010591204900     1.456149190305    15.994914619570
         O            2.578104616849    -1.209613795100    -0.550566809695    15.994914619570
         N           -1.465069383151     1.940475204900    -0.485284809695    14.003074004430
         N            3.350650616849     0.515878204900     0.718385190305    14.003074004430
         C            0.217952516849     0.018149104900    -1.037236609695    12.000000000000
         C           -1.372531383151     0.513008204900    -0.780683809695    12.000000000000
         C            0.962709616849     0.410092204900     0.234539190305    12.000000000000
         C           -1.992189383151    -0.348808795100     0.305794190305    12.000000000000
         C            2.358882616849    -0.168246795100     0.067093190305    12.000000000000
         H            0.152977616849    -0.975096795100    -1.196240809695     1.007825032230
         H            0.471970616849     0.635960204900    -1.847912809695     1.007825032230
         H           -1.908879383151     0.310115204900    -1.714215809695     1.007825032230
         H            1.012528616849     1.492903204900     0.393388190305     1.007825032230
         H            0.537572616849    -0.026466795100     1.148170190305     1.007825032230
         H           -1.304413383151     2.062485204900     0.515455190305     1.007825032230
         H           -2.426004383151     2.248229204900    -0.634357809695     1.007825032230
         H            3.212947616849     1.465496204900     1.030987190305     1.007825032230
         H            4.300432616849     0.204984204900     0.559750190305     1.007825032230
         H           -2.598009383151    -2.095629795100     0.645690190305     1.007825032230

  Basis Set: AUG-CC-PVTZ
    Blend: AUG-CC-PVTZ
  Basis Set: (AUG-CC-PVTZ AUX)
    Blend: AUG-CC-PVTZ-JKFIT
	 Reference Energy          =    -528.8708025420925196 [Eh]
	 Singles Energy            =      -0.0000000000000000 [Eh]
	 Same-Spin Energy          =      -0.5281357118894510 [Eh]
	 Opposite-Spin Energy      =      -1.6366018358151502 [Eh]
	 Correlation Energy        =      -2.1647375477046014 [Eh]
	 Total Energy              =    -531.0355400897971094 [Eh]

	 ================> DF-SCS-MP2 Energies <==================
	-----------------------------------------------------------
	 SCS Same-Spin Scale       =       0.3333333333333333 [-]
	 SCS Opposite-Spin Scale   =       1.2000000000000000 [-]
	 SCS Same-Spin Energy      =      -0.1760452372964836 [Eh]
	 SCS Opposite-Spin Energy  =      -1.9639222029781802 [Eh]
	 SCS Correlation Energy    =      -2.1399674402746638 [Eh]
	 SCS Total Energy          =    -531.0107699823671510 [Eh]
	-----------------------------------------------------------

  Dipole Moment: [D]
     X:    -0.2978      Y:     1.9652      Z:     0.8185     Total:     2.1496

*** Psi4 exiting successfully. Buy a developer a beer!
