                               Psi4 1.4a3.dev225

  ==> Input File <==

--------------------------------------------------------------------------
#psi4
#
memory 32 gb

molecule  {
0 1
  O       -2.2574700    -1.6449290    -0.1296770
  O       -2.1921770    -0.0290210     1.4584970
  O        2.5788390    -1.2486470    -0.5488970
  N       -1.4647530     1.9008340    -0.4830500
  N        3.3509580     0.4760520     0.7213670
  C        0.0918810     0.0546190    -0.9743850
  C       -1.3720140     0.4733420    -0.7784070
  C        0.9632520     0.3707540     0.2365710
  C       -1.9914170    -0.3885060     0.3082000
  C        2.3594470    -0.2075990     0.0692480
  H        0.1537030    -1.0145040    -1.1942090
  H        0.4723450     0.5966220    -1.8458350
  H       -1.9085090     0.2703120    -1.7118280
  H        1.0130710     1.4535820     0.3953090
  H        0.5380840    -0.0656780     1.1502640
  H       -1.3040640     2.0229100     0.5176770
  H       -2.4257360     2.2084470    -0.6320870
  H        3.2104352     1.4443030     1.0406700
  H        4.3007880     0.1652150     0.5629740
  H       -2.5967120    -2.1354700     0.6482930
units angstrom
no_reorient  #important for SAPT in psi4, default
symmetry c1  #important for SAPT in psi4, default
}

set PROPERTIES_ORIGIN ["COM"]
properties('MP2/aug-cc-pvtz', properties = ['dipole'])
--------------------------------------------------------------------------

    Molecular point group: c1
  Charge       = 0
  Multiplicity = 1
  Basis Set: AUG-CC-PVTZ
    Blend: AUG-CC-PVTZ
  Basis Set: (AUG-CC-PVTZ AUX)
    Blend: AUG-CC-PVTZ-JKFIT

    Orbital Energies [Eh]
    ---------------------

    Doubly Occupied:

       1A    -20.625159     2A    -20.562199     3A    -20.522556
       4A    -15.591406     5A    -15.558010     6A    -11.395252
       7A    -11.357523     8A    -11.286188     9A    -11.246507
      10A    -11.237706    11A     -1.469486    12A     -1.376540
      13A     -1.366815    14A     -1.210332    15A     -1.207332
      16A     -1.071255    17A     -0.983710    18A     -0.885224
      19A     -0.802582    20A     -0.776406    21A     -0.729498
      22A     -0.714060    23A     -0.706033    24A     -0.689271
      25A     -0.655736    26A     -0.650821    27A     -0.620495
      28A     -0.603850    29A     -0.590996    30A     -0.585057
      31A     -0.554195    32A     -0.521957    33A     -0.509490
      34A     -0.500620    35A     -0.486393    36A     -0.464296
      37A     -0.428893    38A     -0.419875    39A     -0.416033

  @DF-RHF Final Energy:  -528.89062840318161

   => Energetics <=

    Nuclear Repulsion Energy =            548.2844586460513483
    One-Electron Energy =               -1811.5906586353671628
    Two-Electron Energy =                 734.4155715861340923
    Total Energy =                       -528.8906284031816085
  Basis Set: (AUG-CC-PVTZ AUX)
    Blend: AUG-CC-PVTZ-RI
    Molecular point group: c1

    Geometry (in Angstrom), charge = 0, multiplicity = 1:

       Center              X                  Y                   Z               Mass
    ------------   -----------------  -----------------  -----------------  -----------------
         O           -2.247665192064    -1.611744582781    -0.136999294024    15.994914619570
         O           -2.182372192064     0.004163417219     1.451174705976    15.994914619570
         O            2.588643807936    -1.215462582781    -0.556219294024    15.994914619570
         N           -1.454948192064     1.934018417219    -0.490372294024    14.003074004430
         N            3.360762807936     0.509236417219     0.714044705976    14.003074004430
         C            0.101685807936     0.087803417219    -0.981707294024    12.000000000000
         C           -1.362209192064     0.506526417219    -0.785729294024    12.000000000000
         C            0.973056807936     0.403938417219     0.229248705976    12.000000000000
         C           -1.981612192064    -0.355321582781     0.300877705976    12.000000000000
         C            2.369251807936    -0.174414582781     0.061925705976    12.000000000000
         H            0.163507807936    -0.981319582781    -1.201531294024     1.007825032230
         H            0.482149807936     0.629806417219    -1.853157294024     1.007825032230
         H           -1.898704192064     0.303496417219    -1.719150294024     1.007825032230
         H            1.022875807936     1.486766417219     0.387986705976     1.007825032230
         H            0.547888807936    -0.032493582781     1.142941705976     1.007825032230
         H           -1.294259192064     2.056094417219     0.510354705976     1.007825032230
         H           -2.415931192064     2.241631417219    -0.639409294024     1.007825032230
         H            3.220240007936     1.477487417219     1.033347705976     1.007825032230
         H            4.310592807936     0.198399417219     0.555651705976     1.007825032230
         H           -2.586907192064    -2.102285582781     0.640970705976     1.007825032230

  Basis Set: AUG-CC-PVTZ
    Blend: AUG-CC-PVTZ
  Basis Set: (AUG-CC-PVTZ AUX)
    Blend: AUG-CC-PVTZ-JKFIT
	 Reference Energy          =    -528.8906284031816085 [Eh]
	 Singles Energy            =      -0.0000000000000000 [Eh]
	 Same-Spin Energy          =      -0.5281791929416907 [Eh]
	 Opposite-Spin Energy      =      -1.6362627608614502 [Eh]
	 Correlation Energy        =      -2.1644419538031410 [Eh]
	 Total Energy              =    -531.0550703569847428 [Eh]

	 ================> DF-SCS-MP2 Energies <==================
	-----------------------------------------------------------
	 SCS Same-Spin Scale       =       0.3333333333333333 [-]
	 SCS Opposite-Spin Scale   =       1.2000000000000000 [-]
	 SCS Same-Spin Energy      =      -0.1760597309805635 [Eh]
	 SCS Opposite-Spin Energy  =      -1.9635153130337402 [Eh]
	 SCS Correlation Energy    =      -2.1395750440143035 [Eh]
	 SCS Total Energy          =    -531.0302034471959587 [Eh]
	-----------------------------------------------------------

  Dipole Moment: [D]
     X:    -0.4042      Y:     1.9456      Z:     0.8679     Total:     2.1684

*** Psi4 exiting successfully. Buy a developer a beer!
