                               Psi4 1.3.2 release

  ==> Input File <==

--------------------------------------------------------------------------
#psi4
#
memory 32 gb

molecule  {
0 1
  O       -2.2580520    -1.6446380    -0.1299340
  O       -2.1922020    -0.0289620     1.4584460
  O        2.5787120    -1.2491670    -0.5482700
  N       -1.4644620     1.9009220    -0.4829880
  N        3.3512580     0.4763250     0.7206820
  C        0.0919590     0.0544950    -0.9741750
  C       -1.3719240     0.4734550    -0.7783870
  C        0.9633170     0.3705390     0.2368360
  C       -1.9915820    -0.3883620     0.3080910
  C        2.3594900    -0.2078000     0.0693900
  H        0.1535850    -1.0146500    -1.1939440
  H        0.4725780     0.5964070    -1.8456160
  H       -1.9082720     0.2705620    -1.7119190
  H        1.0131360     1.4533500     0.3956850
  H        0.5381800    -0.0660200     1.1504670
  H       -1.3038060     2.0229320     0.5177520
  H       -2.4253970     2.2086760    -0.6320610
  H        3.1999100     1.5200404     1.0642597
  H        4.3010400     0.1654310     0.5620470
  H       -2.5974020    -2.1351830     0.6479870
units angstrom
no_reorient  #important for SAPT in psi4, default
symmetry c1  #important for SAPT in psi4, default
}

set PROPERTIES_ORIGIN ["COM"]
properties('MP2/aug-cc-pvtz', properties = ['dipole'])
--------------------------------------------------------------------------

    Molecular point group: c1
  Charge       = 0
  Multiplicity = 1
  Basis Set: AUG-CC-PVTZ
    Blend: AUG-CC-PVTZ
  Basis Set: (AUG-CC-PVTZ AUX)
    Blend: AUG-CC-PVTZ-JKFIT

    Orbital Energies [Eh]
    ---------------------

    Doubly Occupied:

       1A    -20.625043     2A    -20.562071     3A    -20.522451
       4A    -15.597922     5A    -15.557933     6A    -11.395128
       7A    -11.357314     8A    -11.286037     9A    -11.246054
      10A    -11.237437    11A     -1.469365    12A     -1.375997
      13A     -1.366691    14A     -1.208000    15A     -1.200475
      16A     -1.070731    17A     -0.983196    18A     -0.884433
      19A     -0.800178    20A     -0.772657    21A     -0.722495
      22A     -0.712947    23A     -0.698643    24A     -0.688051
      25A     -0.655374    26A     -0.649863    27A     -0.620300
      28A     -0.603571    29A     -0.587583    30A     -0.584728
      31A     -0.553752    32A     -0.521539    33A     -0.509169
      34A     -0.500132    35A     -0.486206    36A     -0.464155
      37A     -0.428161    38A     -0.419446    39A     -0.415215

  @DF-RHF Final Energy:  -528.88105026206961

   => Energetics <=

    Nuclear Repulsion Energy =            547.9023772649406965
    One-Electron Energy =               -1810.8859687944279813
    Two-Electron Energy =                 734.1025412674176778
    Total Energy =                       -528.8810502620696070
  Basis Set: (AUG-CC-PVTZ AUX)
    Blend: AUG-CC-PVTZ-RI
    Molecular point group: c1

    Geometry (in Angstrom), charge = 0, multiplicity = 1:

       Center              X                  Y                   Z               Mass
    ------------   -----------------  -----------------  -----------------  -----------------
         O           -2.248164609583    -1.611969362915    -0.137436534015    15.994914619570
         O           -2.182314609583     0.003706637085     1.450943465985    15.994914619570
         O            2.588599390417    -1.216498362915    -0.555772534015    15.994914619570
         N           -1.454574609583     1.933590637085    -0.490490534015    14.003074004430
         N            3.361145390417     0.508993637085     0.713179465985    14.003074004430
         C            0.101846390417     0.087163637085    -0.981677534015    12.000000000000
         C           -1.362036609583     0.506123637085    -0.785889534015    12.000000000000
         C            0.973204390417     0.403207637085     0.229333465985    12.000000000000
         C           -1.981694609583    -0.355693362915     0.300588465985    12.000000000000
         C            2.369377390417    -0.175131362915     0.061887465985    12.000000000000
         H            0.163472390417    -0.981981362915    -1.201446534015     1.007825032230
         H            0.482465390417     0.629075637085    -1.853118534015     1.007825032230
         H           -1.898384609583     0.303230637085    -1.719421534015     1.007825032230
         H            1.023023390417     1.486018637085     0.388182465985     1.007825032230
         H            0.548067390417    -0.033351362915     1.142964465985     1.007825032230
         H           -1.293918609583     2.055600637085     0.510249465985     1.007825032230
         H           -2.415509609583     2.241344637085    -0.639563534015     1.007825032230
         H            3.209797390417     1.552709037085     1.056757165985     1.007825032230
         H            4.310927390417     0.198099637085     0.554544465985     1.007825032230
         H           -2.587514609583    -2.102514362915     0.640484465985     1.007825032230

  Basis Set: AUG-CC-PVTZ
    Blend: AUG-CC-PVTZ
  Basis Set: (AUG-CC-PVTZ AUX)
    Blend: AUG-CC-PVTZ-JKFIT
	 Reference Energy          =    -528.8810502620696070 [Eh]
	 Singles Energy            =      -0.0000000000000000 [Eh]
	 Same-Spin Energy          =      -0.5287117542170601 [Eh]
	 Opposite-Spin Energy      =      -1.6377605195250928 [Eh]
	 Correlation Energy        =      -2.1664722737421531 [Eh]
	 Total Energy              =    -531.0475225358117086 [Eh]

	 ================> DF-SCS-MP2 Energies <==================
	-----------------------------------------------------------
	 SCS Same-Spin Scale       =       0.3333333333333333 [-]
	 SCS Opposite-Spin Scale   =       1.2000000000000000 [-]
	 SCS Same-Spin Energy      =      -0.1762372514056867 [Eh]
	 SCS Opposite-Spin Energy  =      -1.9653126234301113 [Eh]
	 SCS Correlation Energy    =      -2.1415498748357980 [Eh]
	 SCS Total Energy          =    -531.0226001369054529 [Eh]
	-----------------------------------------------------------

  Dipole Moment: [D]
     X:    -0.4047      Y:     2.0084      Z:     0.8881     Total:     2.2330

*** Psi4 exiting successfully. Buy a developer a beer!
