                               Psi4 1.4a3.dev225

  ==> Input File <==

--------------------------------------------------------------------------
#psi4
#
memory 32 gb

molecule  {
0 1
  O       -2.2574700    -1.6449290    -0.1296770
  O       -2.1921770    -0.0290210     1.4584970
  O        2.5788390    -1.2486470    -0.5488970
  N       -1.4647530     1.9008340    -0.4830500
  N        3.3509580     0.4760520     0.7213670
  C        0.0918810     0.0546190    -0.9743850
  C       -1.3720140     0.4733420    -0.7784070
  C        0.9632520     0.3707540     0.2365710
  C       -1.9914170    -0.3885060     0.3082000
  C        2.3956448    -0.1826405     0.0930554
  H        0.1537030    -1.0145040    -1.1942090
  H        0.4723450     0.5966220    -1.8458350
  H       -1.9085090     0.2703120    -1.7118280
  H        1.0130710     1.4535820     0.3953090
  H        0.5380840    -0.0656780     1.1502640
  H       -1.3040640     2.0229100     0.5176770
  H       -2.4257360     2.2084470    -0.6320870
  H        3.2131660     1.4254870     1.0344650
  H        4.3007880     0.1652150     0.5629740
  H       -2.5967120    -2.1354700     0.6482930
units angstrom
no_reorient  #important for SAPT in psi4, default
symmetry c1  #important for SAPT in psi4, default
}

set PROPERTIES_ORIGIN ["COM"]
properties('MP2/aug-cc-pvtz', properties = ['dipole'])
--------------------------------------------------------------------------

    Molecular point group: c1
  Charge       = 0
  Multiplicity = 1
  Basis Set: AUG-CC-PVTZ
    Blend: AUG-CC-PVTZ
  Basis Set: (AUG-CC-PVTZ AUX)
    Blend: AUG-CC-PVTZ-JKFIT

    Orbital Energies [Eh]
    ---------------------

    Doubly Occupied:

       1A    -20.624039     2A    -20.561105     3A    -20.513920
       4A    -15.599455     5A    -15.556935     6A    -11.394171
       7A    -11.355827     8A    -11.285091     9A    -11.246315
      10A    -11.235841    11A     -1.468375    12A     -1.365736
      13A     -1.361428    14A     -1.230354    15A     -1.206684
      16A     -1.067298    17A     -0.980679    18A     -0.884516
      19A     -0.811540    20A     -0.781847    21A     -0.739299
      22A     -0.714631    23A     -0.708938    24A     -0.686924
      25A     -0.654141    26A     -0.646950    27A     -0.619312
      28A     -0.603001    29A     -0.585051    30A     -0.578491
      31A     -0.556055    32A     -0.518475    33A     -0.508867
      34A     -0.499346    35A     -0.485256    36A     -0.463142
      37A     -0.421587    38A     -0.418609    39A     -0.414866

  @DF-RHF Final Energy:  -528.88704847930967

   => Energetics <=

    Nuclear Repulsion Energy =            548.0790010462217197
    One-Electron Energy =               -1811.2239079851804036
    Two-Electron Energy =                 734.2578584596490145
    Total Energy =                       -528.8870484793096693
  Basis Set: (AUG-CC-PVTZ AUX)
    Blend: AUG-CC-PVTZ-RI
    Molecular point group: c1

    Geometry (in Angstrom), charge = 0, multiplicity = 1:

       Center              X                  Y                   Z               Mass
    ------------   -----------------  -----------------  -----------------  -----------------
         O           -2.250657786955    -1.613665171620    -0.138912328095    15.994914619570
         O           -2.185364786955     0.002242828380     1.449261671905    15.994914619570
         O            2.585651213045    -1.217383171620    -0.558132328095    15.994914619570
         N           -1.457940786955     1.932097828380    -0.492285328095    14.003074004430
         N            3.357770213045     0.507315828380     0.712131671905    14.003074004430
         C            0.098693213045     0.085882828380    -0.983620328095    12.000000000000
         C           -1.365201786955     0.504605828380    -0.787642328095    12.000000000000
         C            0.970064213045     0.402017828380     0.227335671905    12.000000000000
         C           -1.984604786955    -0.357242171620     0.298964671905    12.000000000000
         C            2.402457013045    -0.151376671620     0.083820071905    12.000000000000
         H            0.160515213045    -0.983240171620    -1.203444328095     1.007825032230
         H            0.479157213045     0.627885828380    -1.855070328095     1.007825032230
         H           -1.901696786955     0.301575828380    -1.721063328095     1.007825032230
         H            1.019883213045     1.484845828380     0.386073671905     1.007825032230
         H            0.544896213045    -0.034414171620     1.141028671905     1.007825032230
         H           -1.297251786955     2.054173828380     0.508441671905     1.007825032230
         H           -2.418923786955     2.239710828380    -0.641322328095     1.007825032230
         H            3.219978213045     1.456750828380     1.025229671905     1.007825032230
         H            4.307600213045     0.196478828380     0.553738671905     1.007825032230
         H           -2.589899786955    -2.104206171620     0.639057671905     1.007825032230

  Basis Set: AUG-CC-PVTZ
    Blend: AUG-CC-PVTZ
  Basis Set: (AUG-CC-PVTZ AUX)
    Blend: AUG-CC-PVTZ-JKFIT
	 Reference Energy          =    -528.8870484793096693 [Eh]
	 Singles Energy            =      -0.0000000000000000 [Eh]
	 Same-Spin Energy          =      -0.5284381505116882 [Eh]
	 Opposite-Spin Energy      =      -1.6364606586048855 [Eh]
	 Correlation Energy        =      -2.1648988091165737 [Eh]
	 Total Energy              =    -531.0519472884262768 [Eh]

	 ================> DF-SCS-MP2 Energies <==================
	-----------------------------------------------------------
	 SCS Same-Spin Scale       =       0.3333333333333333 [-]
	 SCS Opposite-Spin Scale   =       1.2000000000000000 [-]
	 SCS Same-Spin Energy      =      -0.1761460501705627 [Eh]
	 SCS Opposite-Spin Energy  =      -1.9637527903258625 [Eh]
	 SCS Correlation Energy    =      -2.1398988404964250 [Eh]
	 SCS Total Energy          =    -531.0269473198061405 [Eh]
	-----------------------------------------------------------

  Dipole Moment: [D]
     X:    -0.1119      Y:     2.1764      Z:     1.0742     Total:     2.4296

*** Psi4 exiting successfully. Buy a developer a beer!
