                               Psi4 1.4a3.dev225

  ==> Input File <==

--------------------------------------------------------------------------
#psi4
#
memory 32 gb

molecule  {
0 1
  O       -2.2574700    -1.6449290    -0.1296770
  O       -2.1921770    -0.0290210     1.4584970
  O        2.5788390    -1.2486470    -0.5488970
  N       -1.4647530     1.9008340    -0.4830500
  N        3.3509580     0.4760520     0.7213670
  C        0.0918810     0.0546190    -0.9743850
  C       -1.3720140     0.4733420    -0.7784070
  C        0.9632520     0.3707540     0.2365710
  C       -1.9914170    -0.3885060     0.3082000
  C        2.3683621    -0.2499024     0.0441294
  H        0.1537030    -1.0145040    -1.1942090
  H        0.4723450     0.5966220    -1.8458350
  H       -1.9085090     0.2703120    -1.7118280
  H        1.0130710     1.4535820     0.3953090
  H        0.5380840    -0.0656780     1.1502640
  H       -1.3040640     2.0229100     0.5176770
  H       -2.4257360     2.2084470    -0.6320870
  H        3.2131660     1.4254870     1.0344650
  H        4.3007880     0.1652150     0.5629740
  H       -2.5967120    -2.1354700     0.6482930
units angstrom
no_reorient  #important for SAPT in psi4, default
symmetry c1  #important for SAPT in psi4, default
}

set PROPERTIES_ORIGIN ["COM"]
properties('MP2/aug-cc-pvtz', properties = ['dipole'])
--------------------------------------------------------------------------

    Molecular point group: c1
  Charge       = 0
  Multiplicity = 1
  Basis Set: AUG-CC-PVTZ
    Blend: AUG-CC-PVTZ
  Basis Set: (AUG-CC-PVTZ AUX)
    Blend: AUG-CC-PVTZ-JKFIT

    Orbital Energies [Eh]
    ---------------------

    Doubly Occupied:

       1A    -20.625007     2A    -20.561712     3A    -20.532352
       4A    -15.581709     5A    -15.557388     6A    -11.394797
       7A    -11.355658     8A    -11.285492     9A    -11.244303
      10A    -11.236851    11A     -1.469210    12A     -1.411459
      13A     -1.366429    14A     -1.207673    15A     -1.202634
      16A     -1.068437    17A     -0.979983    18A     -0.881329
      19A     -0.799377    20A     -0.774406    21A     -0.729163
      22A     -0.713476    23A     -0.704923    24A     -0.687230
      25A     -0.658097    26A     -0.654861    27A     -0.621028
      28A     -0.605253    29A     -0.604220    30A     -0.583394
      31A     -0.560231    32A     -0.523978    33A     -0.510968
      34A     -0.499765    35A     -0.486340    36A     -0.463717
      37A     -0.431333    38A     -0.421872    39A     -0.415615

  @DF-RHF Final Energy:  -528.89112949454068

   => Energetics <=

    Nuclear Repulsion Energy =            548.5670349293012578
    One-Electron Energy =               -1812.0929958837057256
    Two-Electron Energy =                 734.6348314598639035
    Total Energy =                       -528.8911294945406780
  Basis Set: (AUG-CC-PVTZ AUX)
    Blend: AUG-CC-PVTZ-RI
    Molecular point group: c1

    Geometry (in Angstrom), charge = 0, multiplicity = 1:

       Center              X                  Y                   Z               Mass
    ------------   -----------------  -----------------  -----------------  -----------------
         O           -2.248416434708    -1.608139413148    -0.134892916526    15.994914619570
         O           -2.183123434708     0.007768586852     1.453281083474    15.994914619570
         O            2.587892565292    -1.211857413148    -0.554112916526    15.994914619570
         N           -1.455699434708     1.937623586852    -0.488265916526    14.003074004430
         N            3.360011565292     0.512841586852     0.716151083474    14.003074004430
         C            0.100934565292     0.091408586852    -0.979600916526    12.000000000000
         C           -1.362960434708     0.510131586852    -0.783622916526    12.000000000000
         C            0.972305565292     0.407543586852     0.231355083474    12.000000000000
         C           -1.982363434708    -0.351716413148     0.302984083474    12.000000000000
         C            2.377415665292    -0.213112813148     0.038913483474    12.000000000000
         H            0.162756565292    -0.977714413148    -1.199424916526     1.007825032230
         H            0.481398565292     0.633411586852    -1.851050916526     1.007825032230
         H           -1.899455434708     0.307101586852    -1.717043916526     1.007825032230
         H            1.022124565292     1.490371586852     0.390093083474     1.007825032230
         H            0.547137565292    -0.028888413148     1.145048083474     1.007825032230
         H           -1.295010434708     2.059699586852     0.512461083474     1.007825032230
         H           -2.416682434708     2.245236586852    -0.637302916526     1.007825032230
         H            3.222219565292     1.462276586852     1.029249083474     1.007825032230
         H            4.309841565292     0.202004586852     0.557758083474     1.007825032230
         H           -2.587658434708    -2.098680413148     0.643077083474     1.007825032230

  Basis Set: AUG-CC-PVTZ
    Blend: AUG-CC-PVTZ
  Basis Set: (AUG-CC-PVTZ AUX)
    Blend: AUG-CC-PVTZ-JKFIT
	 Reference Energy          =    -528.8911294945406780 [Eh]
	 Singles Energy            =      -0.0000000000000000 [Eh]
	 Same-Spin Energy          =      -0.5270365495197391 [Eh]
	 Opposite-Spin Energy      =      -1.6340016763820535 [Eh]
	 Correlation Energy        =      -2.1610382259017928 [Eh]
	 Total Energy              =    -531.0521677204425259 [Eh]

	 ================> DF-SCS-MP2 Energies <==================
	-----------------------------------------------------------
	 SCS Same-Spin Scale       =       0.3333333333333333 [-]
	 SCS Opposite-Spin Scale   =       1.2000000000000000 [-]
	 SCS Same-Spin Energy      =      -0.1756788498399130 [Eh]
	 SCS Opposite-Spin Energy  =      -1.9608020116584641 [Eh]
	 SCS Correlation Energy    =      -2.1364808614983772 [Eh]
	 SCS Total Energy          =    -531.0276103560390766 [Eh]
	-----------------------------------------------------------

  Dipole Moment: [D]
     X:    -0.4162      Y:     1.6299      Z:     0.6617     Total:     1.8077

*** Psi4 exiting successfully. Buy a developer a beer!
