                               Psi4 1.3.2 release

  ==> Input File <==

--------------------------------------------------------------------------
#psi4
#
memory 32 gb

molecule  {
0 1
  O       -2.2580520    -1.6446380    -0.1299340
  O       -2.1922020    -0.0289620     1.4584460
  O        2.6620458    -1.2387399    -0.5303019
  N       -1.4644620     1.9009220    -0.4829880
  N        3.3512580     0.4763250     0.7206820
  C        0.0919590     0.0544950    -0.9741750
  C       -1.3719240     0.4734550    -0.7783870
  C        0.9633170     0.3705390     0.2368360
  C       -1.9915820    -0.3883620     0.3080910
  C        2.3594900    -0.2078000     0.0693900
  H        0.1535850    -1.0146500    -1.1939440
  H        0.4725780     0.5964070    -1.8456160
  H       -1.9082720     0.2705620    -1.7119190
  H        1.0131360     1.4533500     0.3956850
  H        0.5381800    -0.0660200     1.1504670
  H       -1.3038060     2.0229320     0.5177520
  H       -2.4253970     2.2086760    -0.6320610
  H        3.2135550     1.4259430     1.0332840
  H        4.3010400     0.1654310     0.5620470
  H       -2.5974020    -2.1351830     0.6479870
units angstrom
no_reorient  #important for SAPT in psi4, default
symmetry c1  #important for SAPT in psi4, default
}

set PROPERTIES_ORIGIN ["COM"]
properties('MP2/aug-cc-pvtz', properties = ['dipole'])
--------------------------------------------------------------------------

    Molecular point group: c1
  Charge       = 0
  Multiplicity = 1
  Basis Set: AUG-CC-PVTZ
    Blend: AUG-CC-PVTZ
  Basis Set: (AUG-CC-PVTZ AUX)
    Blend: AUG-CC-PVTZ-JKFIT

    Orbital Energies [Eh]
    ---------------------

    Doubly Occupied:

       1A    -20.626536     2A    -20.563674     3A    -20.521195
       4A    -15.584511     5A    -15.559617     6A    -11.396743
       7A    -11.356997     8A    -11.288098     9A    -11.250629
      10A    -11.240621    11A     -1.470904    12A     -1.377217
      13A     -1.368240    14A     -1.210097    15A     -1.205939
      16A     -1.074455    17A     -0.986086    18A     -0.887064
      19A     -0.803162    20A     -0.777927    21A     -0.731299
      22A     -0.715453    23A     -0.707488    24A     -0.689603
      25A     -0.657434    26A     -0.650279    27A     -0.621812
      28A     -0.605088    29A     -0.591730    30A     -0.586595
      31A     -0.555087    32A     -0.524511    33A     -0.511507
      34A     -0.503165    35A     -0.488176    36A     -0.465900
      37A     -0.429484    38A     -0.420452    39A     -0.413161

  @DF-RHF Final Energy:  -528.89055454553034

   => Energetics <=

    Nuclear Repulsion Energy =            547.7068476797253425
    One-Electron Energy =               -1810.3589339447803468
    Two-Electron Energy =                 733.7615317195246689
    Total Energy =                       -528.8905545455303354
  Basis Set: (AUG-CC-PVTZ AUX)
    Blend: AUG-CC-PVTZ-RI
    Molecular point group: c1

    Geometry (in Angstrom), charge = 0, multiplicity = 1:

       Center              X                  Y                   Z               Mass
    ------------   -----------------  -----------------  -----------------  -----------------
         O           -2.257384002319    -1.612461916359    -0.139190361933    15.994914619570
         O           -2.191534002319     0.003214083641     1.449189638067    15.994914619570
         O            2.662713797681    -1.206563816359    -0.539558261933    15.994914619570
         N           -1.463794002319     1.933098083641    -0.492244361933    14.003074004430
         N            3.351925997681     0.508501083641     0.711425638067    14.003074004430
         C            0.092626997681     0.086671083641    -0.983431361933    12.000000000000
         C           -1.371256002319     0.505631083641    -0.787643361933    12.000000000000
         C            0.963984997681     0.402715083641     0.227579638067    12.000000000000
         C           -1.990914002319    -0.356185916359     0.298834638067    12.000000000000
         C            2.360157997681    -0.175623916359     0.060133638067    12.000000000000
         H            0.154252997681    -0.982473916359    -1.203200361933     1.007825032230
         H            0.473245997681     0.628583083641    -1.854872361933     1.007825032230
         H           -1.907604002319     0.302738083641    -1.721175361933     1.007825032230
         H            1.013803997681     1.485526083641     0.386428638067     1.007825032230
         H            0.538847997681    -0.033843916359     1.141210638067     1.007825032230
         H           -1.303138002319     2.055108083641     0.508495638067     1.007825032230
         H           -2.424729002319     2.240852083641    -0.641317361933     1.007825032230
         H            3.214222997681     1.458119083641     1.024027638067     1.007825032230
         H            4.301707997681     0.197607083641     0.552790638067     1.007825032230
         H           -2.596734002319    -2.103006916359     0.638730638067     1.007825032230

  Basis Set: AUG-CC-PVTZ
    Blend: AUG-CC-PVTZ
  Basis Set: (AUG-CC-PVTZ AUX)
    Blend: AUG-CC-PVTZ-JKFIT
	 Reference Energy          =    -528.8905545455303354 [Eh]
	 Singles Energy            =      -0.0000000000000000 [Eh]
	 Same-Spin Energy          =      -0.5279836158976878 [Eh]
	 Opposite-Spin Energy      =      -1.6358521265695993 [Eh]
	 Correlation Energy        =      -2.1638357424672874 [Eh]
	 Total Energy              =    -531.0543902879976486 [Eh]

	 ================> DF-SCS-MP2 Energies <==================
	-----------------------------------------------------------
	 SCS Same-Spin Scale       =       0.3333333333333333 [-]
	 SCS Opposite-Spin Scale   =       1.2000000000000000 [-]
	 SCS Same-Spin Energy      =      -0.1759945386325626 [Eh]
	 SCS Opposite-Spin Energy  =      -1.9630225518835192 [Eh]
	 SCS Correlation Energy    =      -2.1390170905160817 [Eh]
	 SCS Total Energy          =    -531.0295716360463985 [Eh]
	-----------------------------------------------------------

  Dipole Moment: [D]
     X:    -0.6976      Y:     1.9315      Z:     0.8107     Total:     2.2079

*** Psi4 exiting successfully. Buy a developer a beer!
