                               Psi4 1.3.2 release

  ==> Input File <==

--------------------------------------------------------------------------
#psi4
#
memory 32 gb

molecule  {
0 1
  O       -2.2580520    -1.6446380    -0.1299340
  O       -2.1922020    -0.0289620     1.4584460
  O        2.6201266    -1.2460526    -0.5373285
  N       -1.4644620     1.9009220    -0.4829880
  N        3.3512580     0.4763250     0.7206820
  C        0.0919590     0.0544950    -0.9741750
  C       -1.3719240     0.4734550    -0.7783870
  C        0.9633170     0.3705390     0.2368360
  C       -1.9915820    -0.3883620     0.3080910
  C        2.3594900    -0.2078000     0.0693900
  H        0.1535850    -1.0146500    -1.1939440
  H        0.4725780     0.5964070    -1.8456160
  H       -1.9082720     0.2705620    -1.7119190
  H        1.0131360     1.4533500     0.3956850
  H        0.5381800    -0.0660200     1.1504670
  H       -1.3038060     2.0229320     0.5177520
  H       -2.4253970     2.2086760    -0.6320610
  H        3.2135550     1.4259430     1.0332840
  H        4.3010400     0.1654310     0.5620470
  H       -2.5974020    -2.1351830     0.6479870
units angstrom
no_reorient  #important for SAPT in psi4, default
symmetry c1  #important for SAPT in psi4, default
}

set PROPERTIES_ORIGIN ["COM"]
properties('MP2/aug-cc-pvtz', properties = ['dipole'])
--------------------------------------------------------------------------

    Molecular point group: c1
  Charge       = 0
  Multiplicity = 1
  Basis Set: AUG-CC-PVTZ
    Blend: AUG-CC-PVTZ
  Basis Set: (AUG-CC-PVTZ AUX)
    Blend: AUG-CC-PVTZ-JKFIT

    Orbital Energies [Eh]
    ---------------------

    Doubly Occupied:

       1A    -20.625865     2A    -20.562956     3A    -20.521918
       4A    -15.587101     5A    -15.558839     6A    -11.396019
       7A    -11.357272     8A    -11.287180     9A    -11.248628
      10A    -11.239236    11A     -1.470213    12A     -1.376885
      13A     -1.367545    14A     -1.210382    15A     -1.207880
      16A     -1.072948    17A     -0.984984    18A     -0.886260
      19A     -0.803291    20A     -0.777796    21A     -0.731602
      22A     -0.714898    23A     -0.707320    24A     -0.689561
      25A     -0.656624    26A     -0.650662    27A     -0.621170
      28A     -0.604499    29A     -0.591689    30A     -0.585898
      31A     -0.554726    32A     -0.523311    33A     -0.510544
      34A     -0.501981    35A     -0.487317    36A     -0.465123
      37A     -0.429355    38A     -0.420042    39A     -0.414999

  @DF-RHF Final Energy:  -528.89148022132645

   => Energetics <=

    Nuclear Repulsion Energy =            548.0300742460099173
    One-Electron Energy =               -1811.0340713950761256
    Two-Electron Energy =                 734.1125169277397617
    Total Energy =                       -528.8914802213264466
  Basis Set: (AUG-CC-PVTZ AUX)
    Blend: AUG-CC-PVTZ-RI
    Molecular point group: c1

    Geometry (in Angstrom), charge = 0, multiplicity = 1:

       Center              X                  Y                   Z               Mass
    ------------   -----------------  -----------------  -----------------  -----------------
         O           -2.252793751326    -1.611661158510    -0.138420932707    15.994914619570
         O           -2.186943751326     0.004014841490     1.449959067293    15.994914619570
         O            2.625384848674    -1.213075758510    -0.545815432707    15.994914619570
         N           -1.459203751326     1.933898841490    -0.491474932707    14.003074004430
         N            3.356516248674     0.509301841490     0.712195067293    14.003074004430
         C            0.097217248674     0.087471841490    -0.982661932707    12.000000000000
         C           -1.366665751326     0.506431841490    -0.786873932707    12.000000000000
         C            0.968575248674     0.403515841490     0.228349067293    12.000000000000
         C           -1.986323751326    -0.355385158510     0.299604067293    12.000000000000
         C            2.364748248674    -0.174823158510     0.060903067293    12.000000000000
         H            0.158843248674    -0.981673158510    -1.202430932707     1.007825032230
         H            0.477836248674     0.629383841490    -1.854102932707     1.007825032230
         H           -1.903013751326     0.303538841490    -1.720405932707     1.007825032230
         H            1.018394248674     1.486326841490     0.387198067293     1.007825032230
         H            0.543438248674    -0.033043158510     1.141980067293     1.007825032230
         H           -1.298547751326     2.055908841490     0.509265067293     1.007825032230
         H           -2.420138751326     2.241652841490    -0.640547932707     1.007825032230
         H            3.218813248674     1.458919841490     1.024797067293     1.007825032230
         H            4.306298248674     0.198407841490     0.553560067293     1.007825032230
         H           -2.592143751326    -2.102206158510     0.639500067293     1.007825032230

  Basis Set: AUG-CC-PVTZ
    Blend: AUG-CC-PVTZ
  Basis Set: (AUG-CC-PVTZ AUX)
    Blend: AUG-CC-PVTZ-JKFIT
	 Reference Energy          =    -528.8914802213264466 [Eh]
	 Singles Energy            =      -0.0000000000000000 [Eh]
	 Same-Spin Energy          =      -0.5280031987112979 [Eh]
	 Opposite-Spin Energy      =      -1.6358604500045106 [Eh]
	 Correlation Energy        =      -2.1638636487158083 [Eh]
	 Total Energy              =    -531.0553438700422930 [Eh]

	 ================> DF-SCS-MP2 Energies <==================
	-----------------------------------------------------------
	 SCS Same-Spin Scale       =       0.3333333333333333 [-]
	 SCS Opposite-Spin Scale   =       1.2000000000000000 [-]
	 SCS Same-Spin Energy      =      -0.1760010662370993 [Eh]
	 SCS Opposite-Spin Energy  =      -1.9630325400054127 [Eh]
	 SCS Correlation Energy    =      -2.1390336062425122 [Eh]
	 SCS Total Energy          =    -531.0305138275689387 [Eh]
	-----------------------------------------------------------

  Dipole Moment: [D]
     X:    -0.5508      Y:     1.9360      Z:     0.8327     Total:     2.1783

*** Psi4 exiting successfully. Buy a developer a beer!
