                               Psi4 1.3.2 release

  ==> Input File <==

--------------------------------------------------------------------------
#psi4
#
memory 32 gb

molecule  {
0 1
  O       -2.2580520    -1.6446380    -0.1299340
  O       -2.1922020    -0.0289620     1.4584460
  O        2.5787120    -1.2491670    -0.5482700
  N       -1.4644620     1.9009220    -0.4829880
  N        3.3512580     0.4763250     0.7206820
  C        0.0919590     0.0544950    -0.9741750
  C       -1.3719240     0.4734550    -0.7783870
  C        0.9633170     0.3705390     0.2368360
  C       -1.9915820    -0.3883620     0.3080910
  C        2.2870772    -0.2577506     0.0218367
  H        0.1535850    -1.0146500    -1.1939440
  H        0.4725780     0.5964070    -1.8456160
  H       -1.9082720     0.2705620    -1.7119190
  H        1.0131360     1.4533500     0.3956850
  H        0.5381800    -0.0660200     1.1504670
  H       -1.3038060     2.0229320     0.5177520
  H       -2.4253970     2.2086760    -0.6320610
  H        3.2135550     1.4259430     1.0332840
  H        4.3010400     0.1654310     0.5620470
  H       -2.5974020    -2.1351830     0.6479870
units angstrom
no_reorient  #important for SAPT in psi4, default
symmetry c1  #important for SAPT in psi4, default
}

set PROPERTIES_ORIGIN ["COM"]
properties('MP2/aug-cc-pvtz', properties = ['dipole'])
--------------------------------------------------------------------------

    Molecular point group: c1
  Charge       = 0
  Multiplicity = 1
  Basis Set: AUG-CC-PVTZ
    Blend: AUG-CC-PVTZ
  Basis Set: (AUG-CC-PVTZ AUX)
    Blend: AUG-CC-PVTZ-JKFIT

    Orbital Energies [Eh]
    ---------------------

    Doubly Occupied:

       1A    -20.627695     2A    -20.564707     3A    -20.539349
       4A    -15.568606     5A    -15.560463     6A    -11.397736
       7A    -11.360743     8A    -11.288800     9A    -11.248753
      10A    -11.242166    11A     -1.472014    12A     -1.415066
      13A     -1.369294    14A     -1.210801    15A     -1.174363
      16A     -1.080274    17A     -0.990291    18A     -0.888476
      19A     -0.798535    20A     -0.767810    21A     -0.724194
      22A     -0.715472    23A     -0.705267    24A     -0.684491
      25A     -0.660201    26A     -0.657058    27A     -0.624476
      28A     -0.615283    29A     -0.607648    30A     -0.585618
      31A     -0.557837    32A     -0.528684    33A     -0.513794
      34A     -0.504849    35A     -0.489351    36A     -0.467016
      37A     -0.437170    38A     -0.421298    39A     -0.409681

  @DF-RHF Final Energy:  -528.88214393249018

   => Energetics <=

    Nuclear Repulsion Energy =            549.0996500866315273
    One-Electron Energy =               -1813.0129289271283142
    Two-Electron Energy =                 735.0311349080066066
    Total Energy =                       -528.8821439324901803
  Basis Set: (AUG-CC-PVTZ AUX)
    Blend: AUG-CC-PVTZ-RI
    Molecular point group: c1

    Geometry (in Angstrom), charge = 0, multiplicity = 1:

       Center              X                  Y                   Z               Mass
    ------------   -----------------  -----------------  -----------------  -----------------
         O           -2.242309835504    -1.607216538980    -0.133316172405    15.994914619570
         O           -2.176459835504     0.008459461020     1.455063827595    15.994914619570
         O            2.594454164496    -1.211745538980    -0.551652172405    15.994914619570
         N           -1.448719835504     1.938343461020    -0.486370172405    14.003074004430
         N            3.367000164496     0.513746461020     0.717299827595    14.003074004430
         C            0.107701164496     0.091916461020    -0.977557172405    12.000000000000
         C           -1.356181835504     0.510876461020    -0.781769172405    12.000000000000
         C            0.979059164496     0.407960461020     0.233453827595    12.000000000000
         C           -1.975839835504    -0.350940538980     0.304708827595    12.000000000000
         C            2.302819364496    -0.220329138980     0.018454527595    12.000000000000
         H            0.169327164496    -0.977228538980    -1.197326172405     1.007825032230
         H            0.488320164496     0.633828461020    -1.848998172405     1.007825032230
         H           -1.892529835504     0.307983461020    -1.715301172405     1.007825032230
         H            1.028878164496     1.490771461020     0.392302827595     1.007825032230
         H            0.553922164496    -0.028598538980     1.147084827595     1.007825032230
         H           -1.288063835504     2.060353461020     0.514369827595     1.007825032230
         H           -2.409654835504     2.246097461020    -0.635443172405     1.007825032230
         H            3.229297164496     1.463364461020     1.029901827595     1.007825032230
         H            4.316782164496     0.202852461020     0.558664827595     1.007825032230
         H           -2.581659835504    -2.097761538980     0.644604827595     1.007825032230

  Basis Set: AUG-CC-PVTZ
    Blend: AUG-CC-PVTZ
  Basis Set: (AUG-CC-PVTZ AUX)
    Blend: AUG-CC-PVTZ-JKFIT
	 Reference Energy          =    -528.8821439324901803 [Eh]
	 Singles Energy            =      -0.0000000000000000 [Eh]
	 Same-Spin Energy          =      -0.5276358025746473 [Eh]
	 Opposite-Spin Energy      =      -1.6354897054893622 [Eh]
	 Correlation Energy        =      -2.1631255080640095 [Eh]
	 Total Energy              =    -531.0452694405541934 [Eh]

	 ================> DF-SCS-MP2 Energies <==================
	-----------------------------------------------------------
	 SCS Same-Spin Scale       =       0.3333333333333333 [-]
	 SCS Opposite-Spin Scale   =       1.2000000000000000 [-]
	 SCS Same-Spin Energy      =      -0.1758786008582157 [Eh]
	 SCS Opposite-Spin Energy  =      -1.9625876465872345 [Eh]
	 SCS Correlation Energy    =      -2.1384662474454501 [Eh]
	 SCS Total Energy          =    -531.0206101799356020 [Eh]
	-----------------------------------------------------------

  Dipole Moment: [D]
     X:    -1.0592      Y:     1.4359      Z:     0.4232     Total:     1.8338

*** Psi4 exiting successfully. Buy a developer a beer!
