                               Psi4 1.3.2 release

  ==> Input File <==

--------------------------------------------------------------------------
#psi4
#
memory 32 gb

molecule  {
0 1
  O       -2.2580520    -1.6446380    -0.1299340
  O       -2.1922020    -0.0289620     1.4584460
  O        2.5787120    -1.2491670    -0.5482700
  N       -1.4644620     1.9009220    -0.4829880
  N        3.3512580     0.4763250     0.7206820
  C        0.0919590     0.0544950    -0.9741750
  C       -1.3719240     0.4734550    -0.7783870
  C        0.9633170     0.3705390     0.2368360
  C       -1.9915820    -0.3883620     0.3080910
  C        2.5043156    -0.1078988     0.1644967
  H        0.1535850    -1.0146500    -1.1939440
  H        0.4725780     0.5964070    -1.8456160
  H       -1.9082720     0.2705620    -1.7119190
  H        1.0131360     1.4533500     0.3956850
  H        0.5381800    -0.0660200     1.1504670
  H       -1.3038060     2.0229320     0.5177520
  H       -2.4253970     2.2086760    -0.6320610
  H        3.2135550     1.4259430     1.0332840
  H        4.3010400     0.1654310     0.5620470
  H       -2.5974020    -2.1351830     0.6479870
units angstrom
no_reorient  #important for SAPT in psi4, default
symmetry c1  #important for SAPT in psi4, default
}

set PROPERTIES_ORIGIN ["COM"]
properties('MP2/aug-cc-pvtz', properties = ['dipole'])
--------------------------------------------------------------------------

    Molecular point group: c1
  Charge       = 0
  Multiplicity = 1
  Basis Set: AUG-CC-PVTZ
    Blend: AUG-CC-PVTZ
  Basis Set: (AUG-CC-PVTZ AUX)
    Blend: AUG-CC-PVTZ-JKFIT

    Orbital Energies [Eh]
    ---------------------

    Doubly Occupied:

       1A    -20.620940     2A    -20.558124     3A    -20.486777
       4A    -15.626461     5A    -15.554054     6A    -11.391220
       7A    -11.346376     8A    -11.282146     9A    -11.247701
      10A    -11.230830    11A     -1.465316    12A     -1.375241
      13A     -1.362754    14A     -1.236918    15A     -1.203484
      16A     -1.056972    17A     -0.971886    18A     -0.888993
      19A     -0.848828    20A     -0.791072    21A     -0.768662
      22A     -0.714988    23A     -0.707924    24A     -0.676865
      25A     -0.651544    26A     -0.630536    27A     -0.621588
      28A     -0.607358    29A     -0.585109    30A     -0.572574
      31A     -0.542708    32A     -0.510933    33A     -0.499760
      34A     -0.493352    35A     -0.479272    36A     -0.459941
      37A     -0.414468    38A     -0.398228    39A     -0.389536

  @DF-RHF Final Energy:  -528.82172810401585

   => Energetics <=

    Nuclear Repulsion Energy =            547.4811849740268599
    One-Electron Energy =               -1810.0629469417342534
    Two-Electron Energy =                 733.7600338636914330
    Total Energy =                       -528.8217281040158468
  Basis Set: (AUG-CC-PVTZ AUX)
    Blend: AUG-CC-PVTZ-RI
    Molecular point group: c1

    Geometry (in Angstrom), charge = 0, multiplicity = 1:

       Center              X                  Y                   Z               Mass
    ------------   -----------------  -----------------  -----------------  -----------------
         O           -2.260156594654    -1.619527295195    -0.145036101573    15.994914619570
         O           -2.194306594654    -0.003851295195     1.443343898427    15.994914619570
         O            2.576607405346    -1.224056295195    -0.563372101573    15.994914619570
         N           -1.466566594654     1.926032704805    -0.498090101573    14.003074004430
         N            3.349153405346     0.501435704805     0.705579898427    14.003074004430
         C            0.089854405346     0.079605704805    -0.989277101573    12.000000000000
         C           -1.374028594654     0.498565704805    -0.793489101573    12.000000000000
         C            0.961212405346     0.395649704805     0.221733898427    12.000000000000
         C           -1.993686594654    -0.363251295195     0.292988898427    12.000000000000
         C            2.502211005346    -0.082788095195     0.149394598427    12.000000000000
         H            0.151480405346    -0.989539295195    -1.209046101573     1.007825032230
         H            0.470473405346     0.621517704805    -1.860718101573     1.007825032230
         H           -1.910376594654     0.295672704805    -1.727021101573     1.007825032230
         H            1.011031405346     1.478460704805     0.380582898427     1.007825032230
         H            0.536075405346    -0.040909295195     1.135364898427     1.007825032230
         H           -1.305910594654     2.048042704805     0.502649898427     1.007825032230
         H           -2.427501594654     2.233786704805    -0.647163101573     1.007825032230
         H            3.211450405346     1.451053704805     1.018181898427     1.007825032230
         H            4.298935405346     0.190541704805     0.546944898427     1.007825032230
         H           -2.599506594654    -2.110072295195     0.632884898427     1.007825032230

  Basis Set: AUG-CC-PVTZ
    Blend: AUG-CC-PVTZ
  Basis Set: (AUG-CC-PVTZ AUX)
    Blend: AUG-CC-PVTZ-JKFIT
	 Reference Energy          =    -528.8217281040158468 [Eh]
	 Singles Energy            =      -0.0000000000000000 [Eh]
	 Same-Spin Energy          =      -0.5298344121036487 [Eh]
	 Opposite-Spin Energy      =      -1.6384814580242932 [Eh]
	 Correlation Energy        =      -2.1683158701279419 [Eh]
	 Total Energy              =    -530.9900439741437594 [Eh]

	 ================> DF-SCS-MP2 Energies <==================
	-----------------------------------------------------------
	 SCS Same-Spin Scale       =       0.3333333333333333 [-]
	 SCS Opposite-Spin Scale   =       1.2000000000000000 [-]
	 SCS Same-Spin Energy      =      -0.1766114707012162 [Eh]
	 SCS Opposite-Spin Energy  =      -1.9661777496291517 [Eh]
	 SCS Correlation Energy    =      -2.1427892203303678 [Eh]
	 SCS Total Energy          =    -530.9645173243461613 [Eh]
	-----------------------------------------------------------

  Dipole Moment: [D]
     X:     0.6217      Y:     2.9500      Z:     1.7063     Total:     3.4641

*** Psi4 exiting successfully. Buy a developer a beer!
