                               Psi4 1.3.2 release

  ==> Input File <==

--------------------------------------------------------------------------
#psi4
#
memory 32 gb

molecule  {
0 1
  O       -2.2580520    -1.6446380    -0.1299340
  O       -2.1922020    -0.0289620     1.4584460
  O        2.5787120    -1.2491670    -0.5482700
  N       -1.4644620     1.9009220    -0.4829880
  N        3.3512580     0.4763250     0.7206820
  C        0.0919590     0.0544950    -0.9741750
  C       -1.3719240     0.4734550    -0.7783870
  C        0.9633170     0.3705390     0.2368360
  C       -1.9915820    -0.3883620     0.3080910
  C        2.2146644    -0.3077012    -0.0257167
  H        0.1535850    -1.0146500    -1.1939440
  H        0.4725780     0.5964070    -1.8456160
  H       -1.9082720     0.2705620    -1.7119190
  H        1.0131360     1.4533500     0.3956850
  H        0.5381800    -0.0660200     1.1504670
  H       -1.3038060     2.0229320     0.5177520
  H       -2.4253970     2.2086760    -0.6320610
  H        3.2135550     1.4259430     1.0332840
  H        4.3010400     0.1654310     0.5620470
  H       -2.5974020    -2.1351830     0.6479870
units angstrom
no_reorient  #important for SAPT in psi4, default
symmetry c1  #important for SAPT in psi4, default
}

set PROPERTIES_ORIGIN ["COM"]
properties('MP2/aug-cc-pvtz', properties = ['dipole'])
--------------------------------------------------------------------------

    Molecular point group: c1
  Charge       = 0
  Multiplicity = 1
  Basis Set: AUG-CC-PVTZ
    Blend: AUG-CC-PVTZ
  Basis Set: (AUG-CC-PVTZ AUX)
    Blend: AUG-CC-PVTZ-JKFIT

    Orbital Energies [Eh]
    ---------------------

    Doubly Occupied:

       1A    -20.630575     2A    -20.567598     3A    -20.556375
       4A    -15.563310     5A    -15.545082     6A    -11.400606
       7A    -11.365320     8A    -11.291949     9A    -11.253389
      10A    -11.247487    11A     -1.474902    12A     -1.455691
      13A     -1.372137    14A     -1.214093    15A     -1.142081
      16A     -1.088089    17A     -0.996677    18A     -0.892353
      19A     -0.799563    20A     -0.766619    21A     -0.723626
      22A     -0.718240    23A     -0.708225    24A     -0.675337
      25A     -0.664495    26A     -0.659619    27A     -0.634993
      28A     -0.626495    29A     -0.613251    30A     -0.586383
      31A     -0.567991    32A     -0.535256    33A     -0.521131
      34A     -0.511049    35A     -0.493042    36A     -0.470330
      37A     -0.433273    38A     -0.422907    39A     -0.391664

  @DF-RHF Final Energy:  -528.85290686921849

   => Energetics <=

    Nuclear Repulsion Energy =            549.8938317582121726
    One-Electron Energy =               -1814.3310684289463097
    Two-Electron Energy =                 735.5843298015156506
    Total Energy =                       -528.8529068692184865
  Basis Set: (AUG-CC-PVTZ AUX)
    Blend: AUG-CC-PVTZ-RI
    Molecular point group: c1

    Geometry (in Angstrom), charge = 0, multiplicity = 1:

       Center              X                  Y                   Z               Mass
    ------------   -----------------  -----------------  -----------------  -----------------
         O           -2.236360915787    -1.603112953575    -0.129409523873    15.994914619570
         O           -2.170510915787     0.012563046425     1.458970476127    15.994914619570
         O            2.600403084213    -1.207641953575    -0.547745523873    15.994914619570
         N           -1.442770915787     1.942447046425    -0.482463523873    14.003074004430
         N            3.372949084213     0.517850046425     0.721206476127    14.003074004430
         C            0.113650084213     0.096020046425    -0.973650523873    12.000000000000
         C           -1.350232915787     0.514980046425    -0.777862523873    12.000000000000
         C            0.985008084213     0.412064046425     0.237360476127    12.000000000000
         C           -1.969890915787    -0.346836953575     0.308615476127    12.000000000000
         C            2.236355484213    -0.266176153575    -0.025192223873    12.000000000000
         H            0.175276084213    -0.973124953575    -1.193419523873     1.007825032230
         H            0.494269084213     0.637932046425    -1.845091523873     1.007825032230
         H           -1.886580915787     0.312087046425    -1.711394523873     1.007825032230
         H            1.034827084213     1.494875046425     0.396209476127     1.007825032230
         H            0.559871084213    -0.024494953575     1.150991476127     1.007825032230
         H           -1.282114915787     2.064457046425     0.518276476127     1.007825032230
         H           -2.403705915787     2.250201046425    -0.631536523873     1.007825032230
         H            3.235246084213     1.467468046425     1.033808476127     1.007825032230
         H            4.322731084213     0.206956046425     0.562571476127     1.007825032230
         H           -2.575710915787    -2.093657953575     0.648511476127     1.007825032230

  Basis Set: AUG-CC-PVTZ
    Blend: AUG-CC-PVTZ
  Basis Set: (AUG-CC-PVTZ AUX)
    Blend: AUG-CC-PVTZ-JKFIT
	 Reference Energy          =    -528.8529068692184865 [Eh]
	 Singles Energy            =      -0.0000000000000000 [Eh]
	 Same-Spin Energy          =      -0.5278617250096946 [Eh]
	 Opposite-Spin Energy      =      -1.6361921317381647 [Eh]
	 Correlation Energy        =      -2.1640538567478593 [Eh]
	 Total Energy              =    -531.0169607259663280 [Eh]

	 ================> DF-SCS-MP2 Energies <==================
	-----------------------------------------------------------
	 SCS Same-Spin Scale       =       0.3333333333333333 [-]
	 SCS Opposite-Spin Scale   =       1.2000000000000000 [-]
	 SCS Same-Spin Energy      =      -0.1759539083365649 [Eh]
	 SCS Opposite-Spin Energy  =      -1.9634305580857976 [Eh]
	 SCS Correlation Energy    =      -2.1393844664223627 [Eh]
	 SCS Total Energy          =    -530.9922913356408571 [Eh]
	-----------------------------------------------------------

  Dipole Moment: [D]
     X:    -1.8076      Y:     0.9220      Z:    -0.0402     Total:     2.0296

*** Psi4 exiting successfully. Buy a developer a beer!
