                               Psi4 1.4a3.dev225

  ==> Input File <==

--------------------------------------------------------------------------
#psi4
#
memory 32 gb

molecule  {
0 1
  O       -2.2574700    -1.6449290    -0.1296770
  O       -2.1921770    -0.0290210     1.4584970
  O        2.5788390    -1.2486470    -0.5488970
  N       -1.4647530     1.9008340    -0.4830500
  N        3.3509580     0.4760520     0.7213670
  C        0.0918810     0.0546190    -0.9743850
  C       -1.3720140     0.4733420    -0.7784070
  C        0.9632520     0.3707540     0.2365710
  C       -1.9914170    -0.3885060     0.3082000
  C        2.3739261    -0.1976156     0.0787709
  H        0.1537030    -1.0145040    -1.1942090
  H        0.4723450     0.5966220    -1.8458350
  H       -1.9085090     0.2703120    -1.7118280
  H        1.0130710     1.4535820     0.3953090
  H        0.5380840    -0.0656780     1.1502640
  H       -1.3040640     2.0229100     0.5176770
  H       -2.4257360     2.2084470    -0.6320870
  H        3.2131660     1.4254870     1.0344650
  H        4.3007880     0.1652150     0.5629740
  H       -2.5967120    -2.1354700     0.6482930
units angstrom
no_reorient  #important for SAPT in psi4, default
symmetry c1  #important for SAPT in psi4, default
}

set PROPERTIES_ORIGIN ["COM"]
properties('MP2/aug-cc-pvtz', properties = ['dipole'])
--------------------------------------------------------------------------

    Molecular point group: c1
  Charge       = 0
  Multiplicity = 1
  Basis Set: AUG-CC-PVTZ
    Blend: AUG-CC-PVTZ
  Basis Set: (AUG-CC-PVTZ AUX)
    Blend: AUG-CC-PVTZ-JKFIT

    Orbital Energies [Eh]
    ---------------------

    Doubly Occupied:

       1A    -20.624722     2A    -20.561772     3A    -20.519163
       4A    -15.593598     5A    -15.557584     6A    -11.394830
       7A    -11.356928     8A    -11.285762     9A    -11.246443
      10A    -11.236985    11A     -1.469053    12A     -1.370052
      13A     -1.366388    14A     -1.219973    15A     -1.207353
      16A     -1.069719    17A     -0.982576    18A     -0.885018
      19A     -0.806157    20A     -0.779530    21A     -0.734568
      22A     -0.714380    23A     -0.708039    24A     -0.688639
      25A     -0.655120    26A     -0.649472    27A     -0.620005
      28A     -0.603462    29A     -0.586757    30A     -0.584789
      31A     -0.554716    32A     -0.520657    33A     -0.509223
      34A     -0.500147    35A     -0.485958    36A     -0.463847
      37A     -0.426271    38A     -0.419611    39A     -0.415985

  @DF-RHF Final Energy:  -528.89067179566382

   => Energetics <=

    Nuclear Repulsion Energy =            548.2579635890136842
    One-Electron Energy =               -1811.5467654208912336
    Two-Electron Energy =                 734.3981300362138427
    Total Energy =                       -528.8906717956638204
  Basis Set: (AUG-CC-PVTZ AUX)
    Blend: AUG-CC-PVTZ-RI
    Molecular point group: c1

    Geometry (in Angstrom), charge = 0, multiplicity = 1:

       Center              X                  Y                   Z               Mass
    ------------   -----------------  -----------------  -----------------  -----------------
         O           -2.248873533305    -1.612434924099    -0.137738815350    15.994914619570
         O           -2.183580533305     0.003473075901     1.450435184650    15.994914619570
         O            2.587435466695    -1.216152924099    -0.556958815350    15.994914619570
         N           -1.456156533305     1.933328075901    -0.491111815350    14.003074004430
         N            3.359554466695     0.508546075901     0.713305184650    14.003074004430
         C            0.100477466695     0.087113075901    -0.982446815350    12.000000000000
         C           -1.363417533305     0.505836075901    -0.786468815350    12.000000000000
         C            0.971848466695     0.403248075901     0.228509184650    12.000000000000
         C           -1.982820533305    -0.356011924099     0.300138184650    12.000000000000
         C            2.382522566695    -0.165121524099     0.070709084650    12.000000000000
         H            0.162299466695    -0.982009924099    -1.202270815350     1.007825032230
         H            0.480941466695     0.629116075901    -1.853896815350     1.007825032230
         H           -1.899912533305     0.302806075901    -1.719889815350     1.007825032230
         H            1.021667466695     1.486076075901     0.387247184650     1.007825032230
         H            0.546680466695    -0.033183924099     1.142202184650     1.007825032230
         H           -1.295467533305     2.055404075901     0.509615184650     1.007825032230
         H           -2.417139533305     2.240941075901    -0.640148815350     1.007825032230
         H            3.221762466695     1.457981075901     1.026403184650     1.007825032230
         H            4.309384466695     0.197709075901     0.554912184650     1.007825032230
         H           -2.588115533305    -2.102975924099     0.640231184650     1.007825032230

  Basis Set: AUG-CC-PVTZ
    Blend: AUG-CC-PVTZ
  Basis Set: (AUG-CC-PVTZ AUX)
    Blend: AUG-CC-PVTZ-JKFIT
	 Reference Energy          =    -528.8906717956638204 [Eh]
	 Singles Energy            =      -0.0000000000000000 [Eh]
	 Same-Spin Energy          =      -0.5281945409580043 [Eh]
	 Opposite-Spin Energy      =      -1.6361167422341878 [Eh]
	 Correlation Energy        =      -2.1643112831921920 [Eh]
	 Total Energy              =    -531.0549830788560257 [Eh]

	 ================> DF-SCS-MP2 Energies <==================
	-----------------------------------------------------------
	 SCS Same-Spin Scale       =       0.3333333333333333 [-]
	 SCS Opposite-Spin Scale   =       1.2000000000000000 [-]
	 SCS Same-Spin Energy      =      -0.1760648469860014 [Eh]
	 SCS Opposite-Spin Energy  =      -1.9633400906810252 [Eh]
	 SCS Correlation Energy    =      -2.1394049376670266 [Eh]
	 SCS Total Energy          =    -531.0300767333308158 [Eh]
	-----------------------------------------------------------

  Dipole Moment: [D]
     X:    -0.2846      Y:     2.0283      Z:     0.9471     Total:     2.2566

*** Psi4 exiting successfully. Buy a developer a beer!
