                               Psi4 1.3.2 release

  ==> Input File <==

--------------------------------------------------------------------------
#psi4
#
memory 32 gb

molecule  {
0 1
  O       -2.2580520    -1.6446380    -0.1299340
  O       -2.1922020    -0.0289620     1.4584460
  O        2.5787120    -1.2491670    -0.5482700
  N       -1.4644620     1.9009220    -0.4829880
  N        3.3512580     0.4763250     0.7206820
  C        0.0919590     0.0544950    -0.9741750
  C       -1.3719240     0.4734550    -0.7783870
  C        0.9633170     0.3705390     0.2368360
  C       -1.9915820    -0.3883620     0.3080910
  C        2.3594900    -0.2078000     0.0693900
  H        0.1535850    -1.0146500    -1.1939440
  H        0.4725780     0.5964070    -1.8456160
  H       -1.9082720     0.2705620    -1.7119190
  H        1.0131360     1.4533500     0.3956850
  H        0.5381800    -0.0660200     1.1504670
  H       -1.3038060     2.0229320     0.5177520
  H       -2.4253970     2.2086760    -0.6320610
  H        3.3186249     1.4363583     1.0300809
  H        4.3010400     0.1654310     0.5620470
  H       -2.5974020    -2.1351830     0.6479870
units angstrom
no_reorient  #important for SAPT in psi4, default
symmetry c1  #important for SAPT in psi4, default
}

set PROPERTIES_ORIGIN ["COM"]
properties('MP2/aug-cc-pvtz', properties = ['dipole'])
--------------------------------------------------------------------------

    Molecular point group: c1
  Charge       = 0
  Multiplicity = 1
  Basis Set: AUG-CC-PVTZ
    Blend: AUG-CC-PVTZ
  Basis Set: (AUG-CC-PVTZ AUX)
    Blend: AUG-CC-PVTZ-JKFIT

    Orbital Energies [Eh]
    ---------------------

    Doubly Occupied:

       1A    -20.624959     2A    -20.561945     3A    -20.523798
       4A    -15.589270     5A    -15.557699     6A    -11.395004
       7A    -11.359762     8A    -11.285919     9A    -11.245893
      10A    -11.237363    11A     -1.469266    12A     -1.377439
      13A     -1.366575    14A     -1.211967    15A     -1.207313
      16A     -1.071099    17A     -0.983780    18A     -0.886093
      19A     -0.807212    20A     -0.779544    21A     -0.728937
      22A     -0.713479    23A     -0.703769    24A     -0.687181
      25A     -0.655283    26A     -0.652109    27A     -0.620282
      28A     -0.603587    29A     -0.590882    30A     -0.584578
      31A     -0.554306    32A     -0.521740    33A     -0.509234
      34A     -0.500033    35A     -0.486123    36A     -0.464039
      37A     -0.430481    38A     -0.419977    39A     -0.416318

  @DF-RHF Final Energy:  -528.89010691098269

   => Energetics <=

    Nuclear Repulsion Energy =            548.1974284672588738
    One-Electron Energy =               -1811.4065975574385448
    Two-Electron Energy =                 734.3190621791970898
    Total Energy =                       -528.8901069109826949
  Basis Set: (AUG-CC-PVTZ AUX)
    Blend: AUG-CC-PVTZ-RI
    Molecular point group: c1

    Geometry (in Angstrom), charge = 0, multiplicity = 1:

       Center              X                  Y                   Z               Mass
    ------------   -----------------  -----------------  -----------------  -----------------
         O           -2.248983700091    -1.611391986244    -0.137200712474    15.994914619570
         O           -2.183133700091     0.004284013756     1.451179287526    15.994914619570
         O            2.587780299909    -1.215920986244    -0.555536712474    15.994914619570
         N           -1.455393700091     1.934168013756    -0.490254712474    14.003074004430
         N            3.360326299909     0.509571013756     0.713415287526    14.003074004430
         C            0.101027299909     0.087741013756    -0.981441712474    12.000000000000
         C           -1.362855700091     0.506701013756    -0.785653712474    12.000000000000
         C            0.972385299909     0.403785013756     0.229569287526    12.000000000000
         C           -1.982513700091    -0.355115986244     0.300824287526    12.000000000000
         C            2.368558299909    -0.174553986244     0.062123287526    12.000000000000
         H            0.162653299909    -0.981403986244    -1.201210712474     1.007825032230
         H            0.481646299909     0.629653013756    -1.852882712474     1.007825032230
         H           -1.899203700091     0.303808013756    -1.719185712474     1.007825032230
         H            1.022204299909     1.486596013756     0.388418287526     1.007825032230
         H            0.547248299909    -0.032773986244     1.143200287526     1.007825032230
         H           -1.294737700091     2.056178013756     0.510485287526     1.007825032230
         H           -2.416328700091     2.241922013756    -0.639327712474     1.007825032230
         H            3.327693199909     1.469604313756     1.022814187526     1.007825032230
         H            4.310108299909     0.198677013756     0.554780287526     1.007825032230
         H           -2.588333700091    -2.101936986244     0.640720287526     1.007825032230

  Basis Set: AUG-CC-PVTZ
    Blend: AUG-CC-PVTZ
  Basis Set: (AUG-CC-PVTZ AUX)
    Blend: AUG-CC-PVTZ-JKFIT
	 Reference Energy          =    -528.8901069109826949 [Eh]
	 Singles Energy            =      -0.0000000000000000 [Eh]
	 Same-Spin Energy          =      -0.5280540457546425 [Eh]
	 Opposite-Spin Energy      =      -1.6360284099307814 [Eh]
	 Correlation Energy        =      -2.1640824556854241 [Eh]
	 Total Energy              =    -531.0541893666680835 [Eh]

	 ================> DF-SCS-MP2 Energies <==================
	-----------------------------------------------------------
	 SCS Same-Spin Scale       =       0.3333333333333333 [-]
	 SCS Opposite-Spin Scale   =       1.2000000000000000 [-]
	 SCS Same-Spin Energy      =      -0.1760180152515475 [Eh]
	 SCS Opposite-Spin Energy  =      -1.9632340919169375 [Eh]
	 SCS Correlation Energy    =      -2.1392521071684851 [Eh]
	 SCS Total Energy          =    -531.0293590181511263 [Eh]
	-----------------------------------------------------------

  Dipole Moment: [D]
     X:    -0.3226      Y:     1.9492      Z:     0.8418     Total:     2.1476

*** Psi4 exiting successfully. Buy a developer a beer!
