                               Psi4 1.3.2 release

  ==> Input File <==

--------------------------------------------------------------------------
#psi4
#
memory 32 gb

molecule  {
0 1
  O       -2.2580520    -1.6446380    -0.1299340
  O       -2.1922020    -0.0289620     1.4584460
  O        2.5787120    -1.2491670    -0.5482700
  N       -1.4644620     1.9009220    -0.4829880
  N        3.3512580     0.4763250     0.7206820
  C        0.0919590     0.0544950    -0.9741750
  C       -1.3719240     0.4734550    -0.7783870
  C        0.9633170     0.3705390     0.2368360
  C       -1.9915820    -0.3883620     0.3080910
  C        2.2792131    -0.0898709     0.0835368
  H        0.1535850    -1.0146500    -1.1939440
  H        0.4725780     0.5964070    -1.8456160
  H       -1.9082720     0.2705620    -1.7119190
  H        1.0131360     1.4533500     0.3956850
  H        0.5381800    -0.0660200     1.1504670
  H       -1.3038060     2.0229320     0.5177520
  H       -2.4253970     2.2086760    -0.6320610
  H        3.2135550     1.4259430     1.0332840
  H        4.3010400     0.1654310     0.5620470
  H       -2.5974020    -2.1351830     0.6479870
units angstrom
no_reorient  #important for SAPT in psi4, default
symmetry c1  #important for SAPT in psi4, default
}

set PROPERTIES_ORIGIN ["COM"]
properties('MP2/aug-cc-pvtz', properties = ['dipole'])
--------------------------------------------------------------------------

    Molecular point group: c1
  Charge       = 0
  Multiplicity = 1
  Basis Set: AUG-CC-PVTZ
    Blend: AUG-CC-PVTZ
  Basis Set: (AUG-CC-PVTZ AUX)
    Blend: AUG-CC-PVTZ-JKFIT

    Orbital Energies [Eh]
    ---------------------

    Doubly Occupied:

       1A    -20.627497     2A    -20.565576     3A    -20.505478
       4A    -15.600218     5A    -15.561512     6A    -11.398461
       7A    -11.366201     8A    -11.290050     9A    -11.251780
      10A    -11.243908    11A     -1.472209    12A     -1.369847
      13A     -1.317736    14A     -1.211804    15A     -1.199057
      16A     -1.091300    17A     -1.001743    18A     -0.899063
      19A     -0.807950    20A     -0.779329    21A     -0.732071
      22A     -0.717997    23A     -0.712404    24A     -0.699256
      25A     -0.664576    26A     -0.649701    27A     -0.625367
      28A     -0.608583    29A     -0.595096    30A     -0.558911
      31A     -0.544697    32A     -0.525268    33A     -0.506132
      34A     -0.502270    35A     -0.487760    36A     -0.467877
      37A     -0.423023    38A     -0.416956    39A     -0.396095

  @DF-RHF Final Energy:  -528.85257423840221

   => Energetics <=

    Nuclear Repulsion Energy =            548.5319511151387815
    One-Electron Energy =               -1811.9795286823646165
    Two-Electron Energy =                 734.5950033288236227
    Total Energy =                       -528.8525742384022124
  Basis Set: (AUG-CC-PVTZ AUX)
    Blend: AUG-CC-PVTZ-RI
    Molecular point group: c1

    Geometry (in Angstrom), charge = 0, multiplicity = 1:

       Center              X                  Y                   Z               Mass
    ------------   -----------------  -----------------  -----------------  -----------------
         O           -2.241663777078    -1.621008339013    -0.138385013017    15.994914619570
         O           -2.175813777078    -0.005332339013     1.449994986983    15.994914619570
         O            2.595100222922    -1.225537339013    -0.556721013017    15.994914619570
         N           -1.448073777078     1.924551660987    -0.491439013017    14.003074004430
         N            3.367646222922     0.499954660987     0.712230986983    14.003074004430
         C            0.108347222922     0.078124660987    -0.982626013017    12.000000000000
         C           -1.355535777078     0.497084660987    -0.786838013017    12.000000000000
         C            0.979705222922     0.394168660987     0.228384986983    12.000000000000
         C           -1.975193777078    -0.364732339013     0.299639986983    12.000000000000
         C            2.295601322922    -0.066241239013     0.075085786983    12.000000000000
         H            0.169973222922    -0.991020339013    -1.202395013017     1.007825032230
         H            0.488966222922     0.620036660987    -1.854067013017     1.007825032230
         H           -1.891883777078     0.294191660987    -1.720370013017     1.007825032230
         H            1.029524222922     1.476979660987     0.387233986983     1.007825032230
         H            0.554568222922    -0.042390339013     1.142015986983     1.007825032230
         H           -1.287417777078     2.046561660987     0.509300986983     1.007825032230
         H           -2.409008777078     2.232305660987    -0.640512013017     1.007825032230
         H            3.229943222922     1.449572660987     1.024832986983     1.007825032230
         H            4.317428222922     0.189060660987     0.553595986983     1.007825032230
         H           -2.581013777078    -2.111553339013     0.639535986983     1.007825032230

  Basis Set: AUG-CC-PVTZ
    Blend: AUG-CC-PVTZ
  Basis Set: (AUG-CC-PVTZ AUX)
    Blend: AUG-CC-PVTZ-JKFIT
	 Reference Energy          =    -528.8525742384022124 [Eh]
	 Singles Energy            =      -0.0000000000000000 [Eh]
	 Same-Spin Energy          =      -0.5317964092293408 [Eh]
	 Opposite-Spin Energy      =      -1.6433297757862264 [Eh]
	 Correlation Energy        =      -2.1751261850155670 [Eh]
	 Total Energy              =    -531.0277004234177411 [Eh]

	 ================> DF-SCS-MP2 Energies <==================
	-----------------------------------------------------------
	 SCS Same-Spin Scale       =       0.3333333333333333 [-]
	 SCS Opposite-Spin Scale   =       1.2000000000000000 [-]
	 SCS Same-Spin Energy      =      -0.1772654697431136 [Eh]
	 SCS Opposite-Spin Energy  =      -1.9719957309434717 [Eh]
	 SCS Correlation Energy    =      -2.1492612006865852 [Eh]
	 SCS Total Energy          =    -531.0018354390888362 [Eh]
	-----------------------------------------------------------

  Dipole Moment: [D]
     X:    -0.7937      Y:     2.3978      Z:     1.0957     Total:     2.7532

*** Psi4 exiting successfully. Buy a developer a beer!
