                               Psi4 1.4a3.dev225

  ==> Input File <==

--------------------------------------------------------------------------
#psi4
#
memory 32 gb

molecule  {
0 1
  O       -2.2574700    -1.6449290    -0.1296770
  O       -2.1921770    -0.0290210     1.4584970
  O        2.5788390    -1.2486470    -0.5488970
  N       -1.4647530     1.9008340    -0.4830500
  N        3.3509580     0.4760520     0.7213670
  C        0.0918810     0.0546190    -0.9743850
  C       -1.3720140     0.4733420    -0.7784070
  C        0.9632520     0.3707540     0.2365710
  C       -1.9914170    -0.3885060     0.3082000
  C        2.3232492    -0.2325575     0.0454406
  H        0.1537030    -1.0145040    -1.1942090
  H        0.4723450     0.5966220    -1.8458350
  H       -1.9085090     0.2703120    -1.7118280
  H        1.0130710     1.4535820     0.3953090
  H        0.5380840    -0.0656780     1.1502640
  H       -1.3040640     2.0229100     0.5176770
  H       -2.4257360     2.2084470    -0.6320870
  H        3.2131660     1.4254870     1.0344650
  H        4.3007880     0.1652150     0.5629740
  H       -2.5967120    -2.1354700     0.6482930
units angstrom
no_reorient  #important for SAPT in psi4, default
symmetry c1  #important for SAPT in psi4, default
}

set PROPERTIES_ORIGIN ["COM"]
properties('MP2/aug-cc-pvtz', properties = ['dipole'])
--------------------------------------------------------------------------

    Molecular point group: c1
  Charge       = 0
  Multiplicity = 1
  Basis Set: AUG-CC-PVTZ
    Blend: AUG-CC-PVTZ
  Basis Set: (AUG-CC-PVTZ AUX)
    Blend: AUG-CC-PVTZ-JKFIT

    Orbital Energies [Eh]
    ---------------------

    Doubly Occupied:

       1A    -20.626403     2A    -20.563427     3A    -20.531041
       4A    -15.579363     5A    -15.559202     6A    -11.396466
       7A    -11.359126     8A    -11.287455     9A    -11.247408
      10A    -11.239869    11A     -1.470725    12A     -1.395224
      13A     -1.368031    14A     -1.209406    15A     -1.193045
      16A     -1.075757    17A     -0.987065    18A     -0.886830
      19A     -0.799684    20A     -0.772133    21A     -0.727121
      22A     -0.714736    23A     -0.705047    24A     -0.689051
      25A     -0.657798    26A     -0.654436    27A     -0.622176
      28A     -0.605522    29A     -0.604228    30A     -0.585382
      31A     -0.555021    32A     -0.525415    33A     -0.511148
      34A     -0.502507    35A     -0.487777    36A     -0.465610
      37A     -0.434529    38A     -0.420513    39A     -0.414776

  @DF-RHF Final Energy:  -528.88976423899305

   => Energetics <=

    Nuclear Repulsion Energy =            548.7304937977611416
    One-Electron Energy =               -1812.3796058192597229
    Two-Electron Energy =                 734.7593477825056425
    Total Energy =                       -528.8897642389930525
  Basis Set: (AUG-CC-PVTZ AUX)
    Blend: AUG-CC-PVTZ-RI
    Molecular point group: c1

    Geometry (in Angstrom), charge = 0, multiplicity = 1:

       Center              X                  Y                   Z               Mass
    ------------   -----------------  -----------------  -----------------  -----------------
         O           -2.244710280267    -1.609564346552    -0.135000635376    15.994914619570
         O           -2.179417280267     0.006343653448     1.453173364624    15.994914619570
         O            2.591598719733    -1.213282346552    -0.554220635376    15.994914619570
         N           -1.451993280267     1.936198653448    -0.488373635376    14.003074004430
         N            3.363717719733     0.511416653448     0.716043364624    14.003074004430
         C            0.104640719733     0.089983653448    -0.979708635376    12.000000000000
         C           -1.359254280267     0.508706653448    -0.783730635376    12.000000000000
         C            0.976011719733     0.406118653448     0.231247364624    12.000000000000
         C           -1.978657280267    -0.353141346552     0.302876364624    12.000000000000
         C            2.336008919733    -0.197192846552     0.040116964624    12.000000000000
         H            0.166462719733    -0.979139346552    -1.199532635376     1.007825032230
         H            0.485104719733     0.631986653448    -1.851158635376     1.007825032230
         H           -1.895749280267     0.305676653448    -1.717151635376     1.007825032230
         H            1.025830719733     1.488946653448     0.389985364624     1.007825032230
         H            0.550843719733    -0.030313346552     1.144940364624     1.007825032230
         H           -1.291304280267     2.058274653448     0.512353364624     1.007825032230
         H           -2.412976280267     2.243811653448    -0.637410635376     1.007825032230
         H            3.225925719733     1.460851653448     1.029141364624     1.007825032230
         H            4.313547719733     0.200579653448     0.557650364624     1.007825032230
         H           -2.583952280267    -2.100105346552     0.642969364624     1.007825032230

  Basis Set: AUG-CC-PVTZ
    Blend: AUG-CC-PVTZ
  Basis Set: (AUG-CC-PVTZ AUX)
    Blend: AUG-CC-PVTZ-JKFIT
	 Reference Energy          =    -528.8897642389930525 [Eh]
	 Singles Energy            =      -0.0000000000000000 [Eh]
	 Same-Spin Energy          =      -0.5277713407592862 [Eh]
	 Opposite-Spin Energy      =      -1.6355753978379846 [Eh]
	 Correlation Energy        =      -2.1633467385972707 [Eh]
	 Total Energy              =    -531.0531109775903360 [Eh]

	 ================> DF-SCS-MP2 Energies <==================
	-----------------------------------------------------------
	 SCS Same-Spin Scale       =       0.3333333333333333 [-]
	 SCS Opposite-Spin Scale   =       1.2000000000000000 [-]
	 SCS Same-Spin Energy      =      -0.1759237802530954 [Eh]
	 SCS Opposite-Spin Energy  =      -1.9626904774055813 [Eh]
	 SCS Correlation Energy    =      -2.1386142576586766 [Eh]
	 SCS Total Energy          =    -531.0283784966517260 [Eh]
	-----------------------------------------------------------

  Dipole Moment: [D]
     X:    -0.7201      Y:     1.6838      Z:     0.6460     Total:     1.9419

*** Psi4 exiting successfully. Buy a developer a beer!
