                               Psi4 1.3.2 release

  ==> Input File <==

--------------------------------------------------------------------------
#psi4
#
memory 32 gb

molecule  {
0 1
  O       -2.2580520    -1.6446380    -0.1299340
  O       -2.1922020    -0.0289620     1.4584460
  O        2.4530690    -1.2508902    -0.5765305
  N       -1.4644620     1.9009220    -0.4829880
  N        3.3512580     0.4763250     0.7206820
  C        0.0919590     0.0544950    -0.9741750
  C       -1.3719240     0.4734550    -0.7783870
  C        0.9633170     0.3705390     0.2368360
  C       -1.9915820    -0.3883620     0.3080910
  C        2.3594900    -0.2078000     0.0693900
  H        0.1535850    -1.0146500    -1.1939440
  H        0.4725780     0.5964070    -1.8456160
  H       -1.9082720     0.2705620    -1.7119190
  H        1.0131360     1.4533500     0.3956850
  H        0.5381800    -0.0660200     1.1504670
  H       -1.3038060     2.0229320     0.5177520
  H       -2.4253970     2.2086760    -0.6320610
  H        3.2135550     1.4259430     1.0332840
  H        4.3010400     0.1654310     0.5620470
  H       -2.5974020    -2.1351830     0.6479870
units angstrom
no_reorient  #important for SAPT in psi4, default
symmetry c1  #important for SAPT in psi4, default
}

set PROPERTIES_ORIGIN ["COM"]
properties('MP2/aug-cc-pvtz', properties = ['dipole'])
--------------------------------------------------------------------------

    Molecular point group: c1
  Charge       = 0
  Multiplicity = 1
  Basis Set: AUG-CC-PVTZ
    Blend: AUG-CC-PVTZ
  Basis Set: (AUG-CC-PVTZ AUX)
    Blend: AUG-CC-PVTZ-JKFIT

    Orbital Energies [Eh]
    ---------------------

    Doubly Occupied:

       1A    -20.623129     2A    -20.559968     3A    -20.524247
       4A    -15.596910     5A    -15.555498     6A    -11.392999
       7A    -11.358716     8A    -11.283223     9A    -11.240549
      10A    -11.233227    11A     -1.467377    12A     -1.377044
      13A     -1.364672    14A     -1.220737    15A     -1.205115
      16A     -1.066476    17A     -0.980303    18A     -0.883126
      19A     -0.804382    20A     -0.776619    21A     -0.733261
      22A     -0.712751    23A     -0.706194    24A     -0.688716
      25A     -0.653725    26A     -0.651793    27A     -0.618696
      28A     -0.602228    29A     -0.592233    30A     -0.582507
      31A     -0.553099    32A     -0.518068    33A     -0.506509
      34A     -0.496767    35A     -0.483618    36A     -0.461917
      37A     -0.428330    38A     -0.421937    39A     -0.415498

  @DF-RHF Final Energy:  -528.88793165287166

   => Energetics <=

    Nuclear Repulsion Energy =            549.6018640352808688
    One-Electron Energy =               -1814.2952595299877885
    Two-Electron Energy =                 735.8054638418352624
    Total Energy =                       -528.8879316528716572
  Basis Set: (AUG-CC-PVTZ AUX)
    Blend: AUG-CC-PVTZ-RI
    Molecular point group: c1

    Geometry (in Angstrom), charge = 0, multiplicity = 1:

       Center              X                  Y                   Z               Mass
    ------------   -----------------  -----------------  -----------------  -----------------
         O           -2.234500551212    -1.611131429932    -0.134128221505    15.994914619570
         O           -2.168650551212     0.004544570068     1.454251778495    15.994914619570
         O            2.476620448788    -1.217383629932    -0.580724721505    15.994914619570
         N           -1.440910551212     1.934428570068    -0.487182221505    14.003074004430
         N            3.374809448788     0.509831570068     0.716487778495    14.003074004430
         C            0.115510448788     0.088001570068    -0.978369221505    12.000000000000
         C           -1.348372551212     0.506961570068    -0.782581221505    12.000000000000
         C            0.986868448788     0.404045570068     0.232641778495    12.000000000000
         C           -1.968030551212    -0.354855429932     0.303896778495    12.000000000000
         C            2.383041448788    -0.174293429932     0.065195778495    12.000000000000
         H            0.177136448788    -0.981143429932    -1.198138221505     1.007825032230
         H            0.496129448788     0.629913570068    -1.849810221505     1.007825032230
         H           -1.884720551212     0.304068570068    -1.716113221505     1.007825032230
         H            1.036687448788     1.486856570068     0.391490778495     1.007825032230
         H            0.561731448788    -0.032513429932     1.146272778495     1.007825032230
         H           -1.280254551212     2.056438570068     0.513557778495     1.007825032230
         H           -2.401845551212     2.242182570068    -0.636255221505     1.007825032230
         H            3.237106448788     1.459449570068     1.029089778495     1.007825032230
         H            4.324591448788     0.198937570068     0.557852778495     1.007825032230
         H           -2.573850551212    -2.101676429932     0.643792778495     1.007825032230

  Basis Set: AUG-CC-PVTZ
    Blend: AUG-CC-PVTZ
  Basis Set: (AUG-CC-PVTZ AUX)
    Blend: AUG-CC-PVTZ-JKFIT
	 Reference Energy          =    -528.8879316528716572 [Eh]
	 Singles Energy            =      -0.0000000000000000 [Eh]
	 Same-Spin Energy          =      -0.5283579441912507 [Eh]
	 Opposite-Spin Energy      =      -1.6364297611771348 [Eh]
	 Correlation Energy        =      -2.1647877053683855 [Eh]
	 Total Energy              =    -531.0527193582400969 [Eh]

	 ================> DF-SCS-MP2 Energies <==================
	-----------------------------------------------------------
	 SCS Same-Spin Scale       =       0.3333333333333333 [-]
	 SCS Opposite-Spin Scale   =       1.2000000000000000 [-]
	 SCS Same-Spin Energy      =      -0.1761193147304169 [Eh]
	 SCS Opposite-Spin Energy  =      -1.9637157134125616 [Eh]
	 SCS Correlation Energy    =      -2.1398350281429783 [Eh]
	 SCS Total Energy          =    -531.0277666810146684 [Eh]
	-----------------------------------------------------------

  Dipole Moment: [D]
     X:     0.0396      Y:     1.8910      Z:     0.9269     Total:     2.1063

*** Psi4 exiting successfully. Buy a developer a beer!
