                               Psi4 1.3.2 release

  ==> Input File <==

--------------------------------------------------------------------------
#psi4
#
memory 32 gb

molecule  {
0 1
  O       -2.2580520    -1.6446380    -0.1299340
  O       -2.1922020    -0.0289620     1.4584460
  O        2.6612237    -1.2416733    -0.5256479
  N       -1.4644620     1.9009220    -0.4829880
  N        3.3512580     0.4763250     0.7206820
  C        0.0919590     0.0544950    -0.9741750
  C       -1.3719240     0.4734550    -0.7783870
  C        0.9633170     0.3705390     0.2368360
  C       -1.9915820    -0.3883620     0.3080910
  C        2.3594900    -0.2078000     0.0693900
  H        0.1535850    -1.0146500    -1.1939440
  H        0.4725780     0.5964070    -1.8456160
  H       -1.9082720     0.2705620    -1.7119190
  H        1.0131360     1.4533500     0.3956850
  H        0.5381800    -0.0660200     1.1504670
  H       -1.3038060     2.0229320     0.5177520
  H       -2.4253970     2.2086760    -0.6320610
  H        3.2135550     1.4259430     1.0332840
  H        4.3010400     0.1654310     0.5620470
  H       -2.5974020    -2.1351830     0.6479870
units angstrom
no_reorient  #important for SAPT in psi4, default
symmetry c1  #important for SAPT in psi4, default
}

set PROPERTIES_ORIGIN ["COM"]
properties('MP2/aug-cc-pvtz', properties = ['dipole'])
--------------------------------------------------------------------------

    Molecular point group: c1
  Charge       = 0
  Multiplicity = 1
  Basis Set: AUG-CC-PVTZ
    Blend: AUG-CC-PVTZ
  Basis Set: (AUG-CC-PVTZ AUX)
    Blend: AUG-CC-PVTZ-JKFIT

    Orbital Energies [Eh]
    ---------------------

    Doubly Occupied:

       1A    -20.626529     2A    -20.563672     3A    -20.521169
       4A    -15.584540     5A    -15.559623     6A    -11.396743
       7A    -11.356984     8A    -11.288109     9A    -11.250626
      10A    -11.240647    11A     -1.470899    12A     -1.377203
      13A     -1.368236    14A     -1.210105    15A     -1.205946
      16A     -1.074464    17A     -0.986087    18A     -0.887066
      19A     -0.803160    20A     -0.777946    21A     -0.731300
      22A     -0.715449    23A     -0.707491    24A     -0.689607
      25A     -0.657435    26A     -0.650272    27A     -0.621798
      28A     -0.605085    29A     -0.591698    30A     -0.586608
      31A     -0.555135    32A     -0.524523    33A     -0.511499
      34A     -0.503172    35A     -0.488174    36A     -0.465900
      37A     -0.429441    38A     -0.420455    39A     -0.413181

  @DF-RHF Final Energy:  -528.89054730501664

   => Energetics <=

    Nuclear Repulsion Energy =            547.7058481287898530
    One-Electron Energy =               -1810.3568344183220233
    Two-Electron Energy =                 733.7604389845156447
    Total Energy =                       -528.8905473050166393
  Basis Set: (AUG-CC-PVTZ AUX)
    Blend: AUG-CC-PVTZ-RI
    Molecular point group: c1

    Geometry (in Angstrom), charge = 0, multiplicity = 1:

       Center              X                  Y                   Z               Mass
    ------------   -----------------  -----------------  -----------------  -----------------
         O           -2.257293980435    -1.612140702160    -0.139699985879    15.994914619570
         O           -2.191443980435     0.003535297840     1.448680014121    15.994914619570
         O            2.661981719565    -1.209176002160    -0.535413885879    15.994914619570
         N           -1.463703980435     1.933419297840    -0.492753985879    14.003074004430
         N            3.352016019565     0.508822297840     0.710916014121    14.003074004430
         C            0.092717019565     0.086992297840    -0.983940985879    12.000000000000
         C           -1.371165980435     0.505952297840    -0.788152985879    12.000000000000
         C            0.964075019565     0.403036297840     0.227070014121    12.000000000000
         C           -1.990823980435    -0.355864702160     0.298325014121    12.000000000000
         C            2.360248019565    -0.175302702160     0.059624014121    12.000000000000
         H            0.154343019565    -0.982152702160    -1.203709985879     1.007825032230
         H            0.473336019565     0.628904297840    -1.855381985879     1.007825032230
         H           -1.907513980435     0.303059297840    -1.721684985879     1.007825032230
         H            1.013894019565     1.485847297840     0.385919014121     1.007825032230
         H            0.538938019565    -0.033522702160     1.140701014121     1.007825032230
         H           -1.303047980435     2.055429297840     0.507986014121     1.007825032230
         H           -2.424638980435     2.241173297840    -0.641826985879     1.007825032230
         H            3.214313019565     1.458440297840     1.023518014121     1.007825032230
         H            4.301798019565     0.197928297840     0.552281014121     1.007825032230
         H           -2.596643980435    -2.102685702160     0.638221014121     1.007825032230

  Basis Set: AUG-CC-PVTZ
    Blend: AUG-CC-PVTZ
  Basis Set: (AUG-CC-PVTZ AUX)
    Blend: AUG-CC-PVTZ-JKFIT
	 Reference Energy          =    -528.8905473050166393 [Eh]
	 Singles Energy            =      -0.0000000000000000 [Eh]
	 Same-Spin Energy          =      -0.5279837738597716 [Eh]
	 Opposite-Spin Energy      =      -1.6358564399419502 [Eh]
	 Correlation Energy        =      -2.1638402138017216 [Eh]
	 Total Energy              =    -531.0543875188183165 [Eh]

	 ================> DF-SCS-MP2 Energies <==================
	-----------------------------------------------------------
	 SCS Same-Spin Scale       =       0.3333333333333333 [-]
	 SCS Opposite-Spin Scale   =       1.2000000000000000 [-]
	 SCS Same-Spin Energy      =      -0.1759945912865905 [Eh]
	 SCS Opposite-Spin Energy  =      -1.9630277279303401 [Eh]
	 SCS Correlation Energy    =      -2.1390223192169304 [Eh]
	 SCS Total Energy          =    -531.0295696242335453 [Eh]
	-----------------------------------------------------------

  Dipole Moment: [D]
     X:    -0.6961      Y:     1.9367      Z:     0.8035     Total:     2.2093

*** Psi4 exiting successfully. Buy a developer a beer!
