                               Psi4 1.3.2 release

  ==> Input File <==

--------------------------------------------------------------------------
#psi4
#
memory 32 gb

molecule  {
0 1
  O       -2.2580520    -1.6446380    -0.1299340
  O       -2.1922020    -0.0289620     1.4584460
  O        2.5787120    -1.2491670    -0.5482700
  N       -1.4644620     1.9009220    -0.4829880
  N        3.3512580     0.4763250     0.7206820
  C        0.0919590     0.0544950    -0.9741750
  C       -1.3719240     0.4734550    -0.7783870
  C        0.9633170     0.3705390     0.2368360
  C       -1.9915820    -0.3883620     0.3080910
  C        2.4141143    -0.0595273     0.0883664
  H        0.1535850    -1.0146500    -1.1939440
  H        0.4725780     0.5964070    -1.8456160
  H       -1.9082720     0.2705620    -1.7119190
  H        1.0131360     1.4533500     0.3956850
  H        0.5381800    -0.0660200     1.1504670
  H       -1.3038060     2.0229320     0.5177520
  H       -2.4253970     2.2086760    -0.6320610
  H        3.2135550     1.4259430     1.0332840
  H        4.3010400     0.1654310     0.5620470
  H       -2.5974020    -2.1351830     0.6479870
units angstrom
no_reorient  #important for SAPT in psi4, default
symmetry c1  #important for SAPT in psi4, default
}

set PROPERTIES_ORIGIN ["COM"]
properties('MP2/aug-cc-pvtz', properties = ['dipole'])
--------------------------------------------------------------------------

    Molecular point group: c1
  Charge       = 0
  Multiplicity = 1
  Basis Set: AUG-CC-PVTZ
    Blend: AUG-CC-PVTZ
  Basis Set: (AUG-CC-PVTZ AUX)
    Blend: AUG-CC-PVTZ-JKFIT

    Orbital Energies [Eh]
    ---------------------

    Doubly Occupied:

       1A    -20.623596     2A    -20.561254     3A    -20.493593
       4A    -15.617730     5A    -15.557048     6A    -11.394223
       7A    -11.355515     8A    -11.285199     9A    -11.251135
      10A    -11.235778    11A     -1.468150    12A     -1.365712
      13A     -1.341755    14A     -1.223973    15A     -1.206730
      16A     -1.068984    17A     -0.984334    18A     -0.890287
      19A     -0.828176    20A     -0.786082    21A     -0.755364
      22A     -0.718120    23A     -0.710965    24A     -0.685561
      25A     -0.656676    26A     -0.639251    27A     -0.620512
      28A     -0.604525    29A     -0.588749    30A     -0.563189
      31A     -0.544150    32A     -0.516720    33A     -0.507825
      34A     -0.497017    35A     -0.483408    36A     -0.463305
      37A     -0.417925    38A     -0.403808    39A     -0.395897

  @DF-RHF Final Energy:  -528.85079252355092

   => Energetics <=

    Nuclear Repulsion Energy =            547.7408047829648012
    One-Electron Energy =               -1810.5587573797326968
    Two-Electron Energy =                 733.9671600732170873
    Total Energy =                       -528.8507925235509219
  Basis Set: (AUG-CC-PVTZ AUX)
    Blend: AUG-CC-PVTZ-RI
    Molecular point group: c1

    Geometry (in Angstrom), charge = 0, multiplicity = 1:

       Center              X                  Y                   Z               Mass
    ------------   -----------------  -----------------  -----------------  -----------------
         O           -2.252746298518    -1.623501152995    -0.138781778542    15.994914619570
         O           -2.186896298518    -0.007825152995     1.449598221458    15.994914619570
         O            2.584017701482    -1.228030152995    -0.557117778542    15.994914619570
         N           -1.459156298518     1.922058847005    -0.491835778542    14.003074004430
         N            3.356563701482     0.497461847005     0.711834221458    14.003074004430
         C            0.097264701482     0.075631847005    -0.983022778542    12.000000000000
         C           -1.366618298518     0.494591847005    -0.787234778542    12.000000000000
         C            0.968622701482     0.391675847005     0.227988221458    12.000000000000
         C           -1.986276298518    -0.367225152995     0.299243221458    12.000000000000
         C            2.419420001482    -0.038390452995     0.079518621458    12.000000000000
         H            0.158890701482    -0.993513152995    -1.202791778542     1.007825032230
         H            0.477883701482     0.617543847005    -1.854463778542     1.007825032230
         H           -1.902966298518     0.291698847005    -1.720766778542     1.007825032230
         H            1.018441701482     1.474486847005     0.386837221458     1.007825032230
         H            0.543485701482    -0.044883152995     1.141619221458     1.007825032230
         H           -1.298500298518     2.044068847005     0.508904221458     1.007825032230
         H           -2.420091298518     2.229812847005    -0.640908778542     1.007825032230
         H            3.218860701482     1.447079847005     1.024436221458     1.007825032230
         H            4.306345701482     0.186567847005     0.553199221458     1.007825032230
         H           -2.592096298518    -2.114046152995     0.639139221458     1.007825032230

  Basis Set: AUG-CC-PVTZ
    Blend: AUG-CC-PVTZ
  Basis Set: (AUG-CC-PVTZ AUX)
    Blend: AUG-CC-PVTZ-JKFIT
	 Reference Energy          =    -528.8507925235509219 [Eh]
	 Singles Energy            =      -0.0000000000000000 [Eh]
	 Same-Spin Energy          =      -0.5304922810927573 [Eh]
	 Opposite-Spin Energy      =      -1.6405324985231455 [Eh]
	 Correlation Energy        =      -2.1710247796159026 [Eh]
	 Total Energy              =    -531.0218173031668130 [Eh]

	 ================> DF-SCS-MP2 Energies <==================
	-----------------------------------------------------------
	 SCS Same-Spin Scale       =       0.3333333333333333 [-]
	 SCS Opposite-Spin Scale   =       1.2000000000000000 [-]
	 SCS Same-Spin Energy      =      -0.1768307603642524 [Eh]
	 SCS Opposite-Spin Energy  =      -1.9686389982277746 [Eh]
	 SCS Correlation Energy    =      -2.1454697585920268 [Eh]
	 SCS Total Energy          =    -530.9962622821429932 [Eh]
	-----------------------------------------------------------

  Dipole Moment: [D]
     X:     0.0693      Y:     2.7494      Z:     1.4522     Total:     3.1101

*** Psi4 exiting successfully. Buy a developer a beer!
