                               Psi4 1.3.2 release

  ==> Input File <==

--------------------------------------------------------------------------
#psi4
#
memory 32 gb

molecule  {
0 1
  O       -2.2580520    -1.6446380    -0.1299340
  O       -2.1922020    -0.0289620     1.4584460
  O        2.5787120    -1.2491670    -0.5482700
  N       -1.4644620     1.9009220    -0.4829880
  N        3.3349597     0.4918191     0.7287868
  C        0.0919590     0.0544950    -0.9741750
  C       -1.3719240     0.4734550    -0.7783870
  C        0.9633170     0.3705390     0.2368360
  C       -1.9915820    -0.3883620     0.3080910
  C        2.3594900    -0.2078000     0.0693900
  H        0.1535850    -1.0146500    -1.1939440
  H        0.4725780     0.5964070    -1.8456160
  H       -1.9082720     0.2705620    -1.7119190
  H        1.0131360     1.4533500     0.3956850
  H        0.5381800    -0.0660200     1.1504670
  H       -1.3038060     2.0229320     0.5177520
  H       -2.4253970     2.2086760    -0.6320610
  H        3.2135550     1.4259430     1.0332840
  H        4.3010400     0.1654310     0.5620470
  H       -2.5974020    -2.1351830     0.6479870
units angstrom
no_reorient  #important for SAPT in psi4, default
symmetry c1  #important for SAPT in psi4, default
}

set PROPERTIES_ORIGIN ["COM"]
properties('MP2/aug-cc-pvtz', properties = ['dipole'])
--------------------------------------------------------------------------

    Molecular point group: c1
  Charge       = 0
  Multiplicity = 1
  Basis Set: AUG-CC-PVTZ
    Blend: AUG-CC-PVTZ
  Basis Set: (AUG-CC-PVTZ AUX)
    Blend: AUG-CC-PVTZ-JKFIT

    Orbital Energies [Eh]
    ---------------------

    Doubly Occupied:

       1A    -20.625015     2A    -20.562008     3A    -20.523974
       4A    -15.590277     5A    -15.557799     6A    -11.395062
       7A    -11.358197     8A    -11.285915     9A    -11.245621
      10A    -11.237336    11A     -1.469325    12A     -1.377013
      13A     -1.366638    14A     -1.214274    15A     -1.207437
      16A     -1.070790    17A     -0.983325    18A     -0.884960
      19A     -0.804253    20A     -0.779225    21A     -0.733008
      22A     -0.713982    23A     -0.705925    24A     -0.687325
      25A     -0.655427    26A     -0.651194    27A     -0.620364
      28A     -0.603755    29A     -0.592367    30A     -0.584405
      31A     -0.554398    32A     -0.521796    33A     -0.509236
      34A     -0.500074    35A     -0.486175    36A     -0.464068
      37A     -0.429653    38A     -0.420477    39A     -0.416565

  @DF-RHF Final Energy:  -528.89049061927960

   => Energetics <=

    Nuclear Repulsion Energy =            548.4682678615985196
    One-Electron Energy =               -1811.9402436344796570
    Two-Electron Energy =                 734.5814851536016477
    Total Energy =                       -528.8904906192796034
  Basis Set: (AUG-CC-PVTZ AUX)
    Blend: AUG-CC-PVTZ-RI
    Molecular point group: c1

    Geometry (in Angstrom), charge = 0, multiplicity = 1:

       Center              X                  Y                   Z               Mass
    ------------   -----------------  -----------------  -----------------  -----------------
         O           -2.246696301319    -1.612805482796    -0.137999788013    15.994914619570
         O           -2.180846301319     0.002870517204     1.450380211987    15.994914619570
         O            2.590067698681    -1.217334482796    -0.556335788013    15.994914619570
         N           -1.453106301319     1.932754517204    -0.491053788013    14.003074004430
         N            3.346315398681     0.523651617204     0.720721011987    14.003074004430
         C            0.103314698681     0.086327517204    -0.982240788013    12.000000000000
         C           -1.360568301319     0.505287517204    -0.786452788013    12.000000000000
         C            0.974672698681     0.402371517204     0.228770211987    12.000000000000
         C           -1.980226301319    -0.356529482796     0.300025211987    12.000000000000
         C            2.370845698681    -0.175967482796     0.061324211987    12.000000000000
         H            0.164940698681    -0.982817482796    -1.202009788013     1.007825032230
         H            0.483933698681     0.628239517204    -1.853681788013     1.007825032230
         H           -1.896916301319     0.302394517204    -1.719984788013     1.007825032230
         H            1.024491698681     1.485182517204     0.387619211987     1.007825032230
         H            0.549535698681    -0.034187482796     1.142401211987     1.007825032230
         H           -1.292450301319     2.054764517204     0.509686211987     1.007825032230
         H           -2.414041301319     2.240508517204    -0.640126788013     1.007825032230
         H            3.224910698681     1.457775517204     1.025218211987     1.007825032230
         H            4.312395698681     0.197263517204     0.553981211987     1.007825032230
         H           -2.586046301319    -2.103350482796     0.639921211987     1.007825032230

  Basis Set: AUG-CC-PVTZ
    Blend: AUG-CC-PVTZ
  Basis Set: (AUG-CC-PVTZ AUX)
    Blend: AUG-CC-PVTZ-JKFIT
	 Reference Energy          =    -528.8904906192796034 [Eh]
	 Singles Energy            =      -0.0000000000000000 [Eh]
	 Same-Spin Energy          =      -0.5281423541912396 [Eh]
	 Opposite-Spin Energy      =      -1.6361083051948806 [Eh]
	 Correlation Energy        =      -2.1642506593861199 [Eh]
	 Total Energy              =    -531.0547412786656878 [Eh]

	 ================> DF-SCS-MP2 Energies <==================
	-----------------------------------------------------------
	 SCS Same-Spin Scale       =       0.3333333333333333 [-]
	 SCS Opposite-Spin Scale   =       1.2000000000000000 [-]
	 SCS Same-Spin Energy      =      -0.1760474513970798 [Eh]
	 SCS Opposite-Spin Energy  =      -1.9633299662338566 [Eh]
	 SCS Correlation Energy    =      -2.1393774176309366 [Eh]
	 SCS Total Energy          =    -531.0298680369105568 [Eh]
	-----------------------------------------------------------

  Dipole Moment: [D]
     X:    -0.3670      Y:     1.9151      Z:     0.8514     Total:     2.1277

*** Psi4 exiting successfully. Buy a developer a beer!
