                               Psi4 1.4a3.dev225

  ==> Input File <==

--------------------------------------------------------------------------
#psi4
#
memory 32 gb

molecule  {
0 1
  O       -2.2574700    -1.6449290    -0.1296770
  O       -2.1921770    -0.0290210     1.4584970
  O        2.5788390    -1.2486470    -0.5488970
  N       -1.4647530     1.9008340    -0.4830500
  N        3.3509580     0.4760520     0.7213670
  C        0.0918810     0.0546190    -0.9743850
  C       -1.3720140     0.4733420    -0.7784070
  C        0.9632520     0.3707540     0.2365710
  C       -1.9914170    -0.3885060     0.3082000
  C        2.3410818    -0.1999915     0.0714489
  H        0.1537030    -1.0145040    -1.1942090
  H        0.4723450     0.5966220    -1.8458350
  H       -1.9085090     0.2703120    -1.7118280
  H        1.0130710     1.4535820     0.3953090
  H        0.5380840    -0.0656780     1.1502640
  H       -1.3040640     2.0229100     0.5176770
  H       -2.4257360     2.2084470    -0.6320870
  H        3.2131660     1.4254870     1.0344650
  H        4.3007880     0.1652150     0.5629740
  H       -2.5967120    -2.1354700     0.6482930
units angstrom
no_reorient  #important for SAPT in psi4, default
symmetry c1  #important for SAPT in psi4, default
}

set PROPERTIES_ORIGIN ["COM"]
properties('MP2/aug-cc-pvtz', properties = ['dipole'])
--------------------------------------------------------------------------

    Molecular point group: c1
  Charge       = 0
  Multiplicity = 1
  Basis Set: AUG-CC-PVTZ
    Blend: AUG-CC-PVTZ
  Basis Set: (AUG-CC-PVTZ AUX)
    Blend: AUG-CC-PVTZ-JKFIT

    Orbital Energies [Eh]
    ---------------------

    Doubly Occupied:

       1A    -20.625732     2A    -20.562903     3A    -20.521849
       4A    -15.589001     5A    -15.558742     6A    -11.395936
       7A    -11.359034     8A    -11.287000     9A    -11.247688
      10A    -11.238983    11A     -1.470108    12A     -1.370128
      13A     -1.367466    14A     -1.209680    15A     -1.207273
      16A     -1.074469    17A     -0.986832    18A     -0.887696
      19A     -0.803191    20A     -0.776819    21A     -0.730963
      22A     -0.714821    23A     -0.707197    24A     -0.690886
      25A     -0.657068    26A     -0.650368    27A     -0.621196
      28A     -0.604546    29A     -0.591224    30A     -0.585351
      31A     -0.552412    32A     -0.522711    33A     -0.509375
      34A     -0.501839    35A     -0.487001    36A     -0.465078
      37A     -0.429867    38A     -0.419957    39A     -0.414874

  @DF-RHF Final Energy:  -528.88997258978350

   => Energetics <=

    Nuclear Repulsion Energy =            548.4534899102559393
    One-Electron Energy =               -1811.8923998554100763
    Two-Electron Energy =                 734.5489373553706400
    Total Energy =                       -528.8899725897834969
  Basis Set: (AUG-CC-PVTZ AUX)
    Blend: AUG-CC-PVTZ-RI
    Molecular point group: c1

    Geometry (in Angstrom), charge = 0, multiplicity = 1:

       Center              X                  Y                   Z               Mass
    ------------   -----------------  -----------------  -----------------  -----------------
         O           -2.246175279628    -1.612239737083    -0.137137291998    15.994914619570
         O           -2.180882279628     0.003668262917     1.451036708002    15.994914619570
         O            2.590133720372    -1.215957737083    -0.556357291998    15.994914619570
         N           -1.453458279628     1.933523262917    -0.490510291998    14.003074004430
         N            3.362252720372     0.508741262917     0.713906708002    14.003074004430
         C            0.103175720372     0.087308262917    -0.981845291998    12.000000000000
         C           -1.360719279628     0.506031262917    -0.785867291998    12.000000000000
         C            0.974546720372     0.403443262917     0.229110708002    12.000000000000
         C           -1.980122279628    -0.355816737083     0.300739708002    12.000000000000
         C            2.352376520372    -0.167302237083     0.063988608002    12.000000000000
         H            0.164997720372    -0.981814737083    -1.201669291998     1.007825032230
         H            0.483639720372     0.629311262917    -1.853295291998     1.007825032230
         H           -1.897214279628     0.303001262917    -1.719288291998     1.007825032230
         H            1.024365720372     1.486271262917     0.387848708002     1.007825032230
         H            0.549378720372    -0.032988737083     1.142803708002     1.007825032230
         H           -1.292769279628     2.055599262917     0.510216708002     1.007825032230
         H           -2.414441279628     2.241136262917    -0.639547291998     1.007825032230
         H            3.224460720372     1.458176262917     1.027004708002     1.007825032230
         H            4.312082720372     0.197904262917     0.555513708002     1.007825032230
         H           -2.585417279628    -2.102780737083     0.640832708002     1.007825032230

  Basis Set: AUG-CC-PVTZ
    Blend: AUG-CC-PVTZ
  Basis Set: (AUG-CC-PVTZ AUX)
    Blend: AUG-CC-PVTZ-JKFIT
	 Reference Energy          =    -528.8899725897834969 [Eh]
	 Singles Energy            =      -0.0000000000000000 [Eh]
	 Same-Spin Energy          =      -0.5283916168053507 [Eh]
	 Opposite-Spin Energy      =      -1.6366316034457133 [Eh]
	 Correlation Energy        =      -2.1650232202510642 [Eh]
	 Total Energy              =    -531.0549958100345975 [Eh]

	 ================> DF-SCS-MP2 Energies <==================
	-----------------------------------------------------------
	 SCS Same-Spin Scale       =       0.3333333333333333 [-]
	 SCS Opposite-Spin Scale   =       1.2000000000000000 [-]
	 SCS Same-Spin Energy      =      -0.1761305389351169 [Eh]
	 SCS Opposite-Spin Energy  =      -1.9639579241348559 [Eh]
	 SCS Correlation Energy    =      -2.1400884630699730 [Eh]
	 SCS Total Energy          =    -531.0300610528535117 [Eh]
	-----------------------------------------------------------

  Dipole Moment: [D]
     X:    -0.5196      Y:     1.9543      Z:     0.8598     Total:     2.1974

*** Psi4 exiting successfully. Buy a developer a beer!
