                               Psi4 1.3.2 release

  ==> Input File <==

--------------------------------------------------------------------------
#psi4
#
memory 32 gb

molecule  {
0 1
  O       -2.2580520    -1.6446380    -0.1299340
  O       -2.1922020    -0.0289620     1.4584460
  O        2.5787120    -1.2491670    -0.5482700
  N       -1.4644620     1.9009220    -0.4829880
  N        3.3183642     0.5071001     0.7366907
  C        0.0919590     0.0544950    -0.9741750
  C       -1.3719240     0.4734550    -0.7783870
  C        0.9633170     0.3705390     0.2368360
  C       -1.9915820    -0.3883620     0.3080910
  C        2.3594900    -0.2078000     0.0693900
  H        0.1535850    -1.0146500    -1.1939440
  H        0.4725780     0.5964070    -1.8456160
  H       -1.9082720     0.2705620    -1.7119190
  H        1.0131360     1.4533500     0.3956850
  H        0.5381800    -0.0660200     1.1504670
  H       -1.3038060     2.0229320     0.5177520
  H       -2.4253970     2.2086760    -0.6320610
  H        3.2135550     1.4259430     1.0332840
  H        4.3010400     0.1654310     0.5620470
  H       -2.5974020    -2.1351830     0.6479870
units angstrom
no_reorient  #important for SAPT in psi4, default
symmetry c1  #important for SAPT in psi4, default
}

set PROPERTIES_ORIGIN ["COM"]
properties('MP2/aug-cc-pvtz', properties = ['dipole'])
--------------------------------------------------------------------------

    Molecular point group: c1
  Charge       = 0
  Multiplicity = 1
  Basis Set: AUG-CC-PVTZ
    Blend: AUG-CC-PVTZ
  Basis Set: (AUG-CC-PVTZ AUX)
    Blend: AUG-CC-PVTZ-JKFIT

    Orbital Energies [Eh]
    ---------------------

    Doubly Occupied:

       1A    -20.624850     2A    -20.561802     3A    -20.525405
       4A    -15.590934     5A    -15.557575     6A    -11.394852
       7A    -11.358947     8A    -11.285616     9A    -11.244664
      10A    -11.236903    11A     -1.469143    12A     -1.377400
      13A     -1.366446    14A     -1.216104    15A     -1.207214
      16A     -1.070231    17A     -0.982859    18A     -0.884653
      19A     -0.806199    20A     -0.781136    21A     -0.733224
      22A     -0.713628    23A     -0.704722    24A     -0.684832
      25A     -0.655065    26A     -0.651390    27A     -0.620221
      28A     -0.603626    29A     -0.592808    30A     -0.583490
      31A     -0.554510    32A     -0.521545    33A     -0.508929
      34A     -0.499398    35A     -0.485928    36A     -0.463812
      37A     -0.430228    38A     -0.421183    39A     -0.416678

  @DF-RHF Final Energy:  -528.88751930396302

   => Energetics <=

    Nuclear Repulsion Energy =            548.5635376892356589
    One-Electron Energy =               -1812.1258105519630135
    Two-Electron Energy =                 734.6747535587642233
    Total Energy =                       -528.8875193039630176
  Basis Set: (AUG-CC-PVTZ AUX)
    Blend: AUG-CC-PVTZ-RI
    Molecular point group: c1

    Geometry (in Angstrom), charge = 0, multiplicity = 1:

       Center              X                  Y                   Z               Mass
    ------------   -----------------  -----------------  -----------------  -----------------
         O           -2.245105356024    -1.614270412148    -0.138757503811    15.994914619570
         O           -2.179255356024     0.001405587852     1.449622496189    15.994914619570
         O            2.591658643976    -1.218799412148    -0.557093503811    15.994914619570
         N           -1.451515356024     1.931289587852    -0.491811503811    14.003074004430
         N            3.331310843976     0.537467687852     0.727867196189    14.003074004430
         C            0.104905643976     0.084862587852    -0.982998503811    12.000000000000
         C           -1.358977356024     0.503822587852    -0.787210503811    12.000000000000
         C            0.976263643976     0.400906587852     0.228012496189    12.000000000000
         C           -1.978635356024    -0.357994412148     0.299267496189    12.000000000000
         C            2.372436643976    -0.177432412148     0.060566496189    12.000000000000
         H            0.166531643976    -0.984282412148    -1.202767503811     1.007825032230
         H            0.485524643976     0.626774587852    -1.854439503811     1.007825032230
         H           -1.895325356024     0.300929587852    -1.720742503811     1.007825032230
         H            1.026082643976     1.483717587852     0.386861496189     1.007825032230
         H            0.551126643976    -0.035652412148     1.141643496189     1.007825032230
         H           -1.290859356024     2.053299587852     0.508928496189     1.007825032230
         H           -2.412450356024     2.239043587852    -0.640884503811     1.007825032230
         H            3.226501643976     1.456310587852     1.024460496189     1.007825032230
         H            4.313986643976     0.195798587852     0.553223496189     1.007825032230
         H           -2.584455356024    -2.104815412148     0.639163496189     1.007825032230

  Basis Set: AUG-CC-PVTZ
    Blend: AUG-CC-PVTZ
  Basis Set: (AUG-CC-PVTZ AUX)
    Blend: AUG-CC-PVTZ-JKFIT
	 Reference Energy          =    -528.8875193039630176 [Eh]
	 Singles Energy            =      -0.0000000000000000 [Eh]
	 Same-Spin Energy          =      -0.5282597248354354 [Eh]
	 Opposite-Spin Energy      =      -1.6363814041224671 [Eh]
	 Correlation Energy        =      -2.1646411289579026 [Eh]
	 Total Energy              =    -531.0521604329209140 [Eh]

	 ================> DF-SCS-MP2 Energies <==================
	-----------------------------------------------------------
	 SCS Same-Spin Scale       =       0.3333333333333333 [-]
	 SCS Opposite-Spin Scale   =       1.2000000000000000 [-]
	 SCS Same-Spin Energy      =      -0.1760865749451451 [Eh]
	 SCS Opposite-Spin Energy  =      -1.9636576849469605 [Eh]
	 SCS Correlation Energy    =      -2.1397442598921055 [Eh]
	 SCS Total Energy          =    -531.0272635638551719 [Eh]
	-----------------------------------------------------------

  Dipole Moment: [D]
     X:    -0.3323      Y:     1.8978      Z:     0.8417     Total:     2.1025

*** Psi4 exiting successfully. Buy a developer a beer!
