                               Psi4 1.4a3.dev225

  ==> Input File <==

--------------------------------------------------------------------------
#psi4
#
memory 32 gb

molecule  {
0 1
  O       -2.2574700    -1.6449290    -0.1296770
  O       -2.1921770    -0.0290210     1.4584970
  O        2.5788390    -1.2486470    -0.5488970
  N       -1.4647530     1.9008340    -0.4830500
  N        3.3509580     0.4760520     0.7213670
  C        0.0918810     0.0546190    -0.9743850
  C       -1.3720140     0.4733420    -0.7784070
  C        0.9632520     0.3707540     0.2365710
  C       -1.9914170    -0.3885060     0.3082000
  C        2.3135339    -0.1885802     0.0747503
  H        0.1537030    -1.0145040    -1.1942090
  H        0.4723450     0.5966220    -1.8458350
  H       -1.9085090     0.2703120    -1.7118280
  H        1.0130710     1.4535820     0.3953090
  H        0.5380840    -0.0656780     1.1502640
  H       -1.3040640     2.0229100     0.5176770
  H       -2.4257360     2.2084470    -0.6320870
  H        3.2131660     1.4254870     1.0344650
  H        4.3007880     0.1652150     0.5629740
  H       -2.5967120    -2.1354700     0.6482930
units angstrom
no_reorient  #important for SAPT in psi4, default
symmetry c1  #important for SAPT in psi4, default
}

set PROPERTIES_ORIGIN ["COM"]
properties('MP2/aug-cc-pvtz', properties = ['dipole'])
--------------------------------------------------------------------------

    Molecular point group: c1
  Charge       = 0
  Multiplicity = 1
  Basis Set: AUG-CC-PVTZ
    Blend: AUG-CC-PVTZ
  Basis Set: (AUG-CC-PVTZ AUX)
    Blend: AUG-CC-PVTZ-JKFIT

    Orbital Energies [Eh]
    ---------------------

    Doubly Occupied:

       1A    -20.626548     2A    -20.563916     3A    -20.520783
       4A    -15.588128     5A    -15.559804     6A    -11.396918
       7A    -11.361369     8A    -11.288159     9A    -11.249042
      10A    -11.240828    11A     -1.470997    12A     -1.368420
      13A     -1.360342    14A     -1.210097    15A     -1.201848
      16A     -1.079473    17A     -0.991384    18A     -0.891035
      19A     -0.803074    20A     -0.775628    21A     -0.729486
      22A     -0.715514    23A     -0.707099    24A     -0.693166
      25A     -0.659052    26A     -0.649961    27A     -0.622291
      28A     -0.605704    29A     -0.591779    30A     -0.583875
      31A     -0.550043    32A     -0.523858    33A     -0.508539
      34A     -0.503382    35A     -0.487747    36A     -0.466176
      37A     -0.430429    38A     -0.420813    39A     -0.411607

  @DF-RHF Final Energy:  -528.88529712099125

   => Energetics <=

    Nuclear Repulsion Energy =            548.5631883874384584
    One-Electron Energy =               -1812.0803396412206894
    Two-Electron Energy =                 734.6318541327909770
    Total Energy =                       -528.8852971209912539
  Basis Set: (AUG-CC-PVTZ AUX)
    Blend: AUG-CC-PVTZ-RI
    Molecular point group: c1

    Geometry (in Angstrom), charge = 0, multiplicity = 1:

       Center              X                  Y                   Z               Mass
    ------------   -----------------  -----------------  -----------------  -----------------
         O           -2.243912140439    -1.613177208187    -0.137408511500    15.994914619570
         O           -2.178619140439     0.002730791813     1.450765488500    15.994914619570
         O            2.592396859561    -1.216895208187    -0.556628511500    15.994914619570
         N           -1.451195140439     1.932585791813    -0.490781511500    14.003074004430
         N            3.364515859561     0.507803791813     0.713635488500    14.003074004430
         C            0.105438859561     0.086370791813    -0.982116511500    12.000000000000
         C           -1.358456140439     0.505093791813    -0.786138511500    12.000000000000
         C            0.976809859561     0.402505791813     0.228839488500    12.000000000000
         C           -1.977859140439    -0.356754208187     0.300468488500    12.000000000000
         C            2.327091759561    -0.156828408187     0.067018788500    12.000000000000
         H            0.167260859561    -0.982752208187    -1.201940511500     1.007825032230
         H            0.485902859561     0.628373791813    -1.853566511500     1.007825032230
         H           -1.894951140439     0.302063791813    -1.719559511500     1.007825032230
         H            1.026628859561     1.485333791813     0.387577488500     1.007825032230
         H            0.551641859561    -0.033926208187     1.142532488500     1.007825032230
         H           -1.290506140439     2.054661791813     0.509945488500     1.007825032230
         H           -2.412178140439     2.240198791813    -0.639818511500     1.007825032230
         H            3.226723859561     1.457238791813     1.026733488500     1.007825032230
         H            4.314345859561     0.196966791813     0.555242488500     1.007825032230
         H           -2.583154140439    -2.103718208187     0.640561488500     1.007825032230

  Basis Set: AUG-CC-PVTZ
    Blend: AUG-CC-PVTZ
  Basis Set: (AUG-CC-PVTZ AUX)
    Blend: AUG-CC-PVTZ-JKFIT
	 Reference Energy          =    -528.8852971209912539 [Eh]
	 Singles Energy            =      -0.0000000000000000 [Eh]
	 Same-Spin Energy          =      -0.5289931272771751 [Eh]
	 Opposite-Spin Energy      =      -1.6378617656657082 [Eh]
	 Correlation Energy        =      -2.1668548929428830 [Eh]
	 Total Energy              =    -531.0521520139341192 [Eh]

	 ================> DF-SCS-MP2 Energies <==================
	-----------------------------------------------------------
	 SCS Same-Spin Scale       =       0.3333333333333333 [-]
	 SCS Opposite-Spin Scale   =       1.2000000000000000 [-]
	 SCS Same-Spin Energy      =      -0.1763310424257250 [Eh]
	 SCS Opposite-Spin Energy  =      -1.9654341187988498 [Eh]
	 SCS Correlation Energy    =      -2.1417651612245749 [Eh]
	 SCS Total Energy          =    -531.0270622822158657 [Eh]
	-----------------------------------------------------------

  Dipole Moment: [D]
     X:    -0.6908      Y:     1.9876      Z:     0.8553     Total:     2.2713

*** Psi4 exiting successfully. Buy a developer a beer!
