                               Psi4 1.3.2 release

  ==> Input File <==

--------------------------------------------------------------------------
#psi4
#
memory 32 gb

molecule  {
0 1
  O       -2.2580520    -1.6446380    -0.1299340
  O       -2.1922020    -0.0289620     1.4584460
  O        2.5787120    -1.2491670    -0.5482700
  N       -1.4644620     1.9009220    -0.4829880
  N        3.4425367     0.3791538     0.6679777
  C        0.0919590     0.0544950    -0.9741750
  C       -1.3719240     0.4734550    -0.7783870
  C        0.9633170     0.3705390     0.2368360
  C       -1.9915820    -0.3883620     0.3080910
  C        2.3594900    -0.2078000     0.0693900
  H        0.1535850    -1.0146500    -1.1939440
  H        0.4725780     0.5964070    -1.8456160
  H       -1.9082720     0.2705620    -1.7119190
  H        1.0131360     1.4533500     0.3956850
  H        0.5381800    -0.0660200     1.1504670
  H       -1.3038060     2.0229320     0.5177520
  H       -2.4253970     2.2086760    -0.6320610
  H        3.2135550     1.4259430     1.0332840
  H        4.3010400     0.1654310     0.5620470
  H       -2.5974020    -2.1351830     0.6479870
units angstrom
no_reorient  #important for SAPT in psi4, default
symmetry c1  #important for SAPT in psi4, default
}

set PROPERTIES_ORIGIN ["COM"]
properties('MP2/aug-cc-pvtz', properties = ['dipole'])
--------------------------------------------------------------------------

    Molecular point group: c1
  Charge       = 0
  Multiplicity = 1
  Basis Set: AUG-CC-PVTZ
    Blend: AUG-CC-PVTZ
  Basis Set: (AUG-CC-PVTZ AUX)
    Blend: AUG-CC-PVTZ-JKFIT

    Orbital Energies [Eh]
    ---------------------

    Doubly Occupied:

       1A    -20.626458     2A    -20.563756     3A    -20.515754
       4A    -15.585783     5A    -15.559660     6A    -11.396830
       7A    -11.357082     8A    -11.288386     9A    -11.253301
      10A    -11.240846    11A     -1.470888    12A     -1.376951
      13A     -1.368278    14A     -1.209983    15A     -1.207767
      16A     -1.075713    17A     -0.988062    18A     -0.891796
      19A     -0.816309    20A     -0.782403    21A     -0.723302
      22A     -0.714062    23A     -0.698953    24A     -0.695202
      25A     -0.658557    26A     -0.650805    27A     -0.622169
      28A     -0.605380    29A     -0.590305    30A     -0.580104
      31A     -0.554675    32A     -0.523731    33A     -0.512129
      34A     -0.504663    35A     -0.488270    36A     -0.466141
      37A     -0.425383    38A     -0.420675    39A     -0.411694

  @DF-RHF Final Energy:  -528.85999704247718

   => Energetics <=

    Nuclear Repulsion Energy =            548.0457625720143824
    One-Electron Energy =               -1810.9671087408034964
    Two-Electron Energy =                 734.0613491263119386
    Total Energy =                       -528.8599970424771755
  Basis Set: (AUG-CC-PVTZ AUX)
    Blend: AUG-CC-PVTZ-RI
    Molecular point group: c1

    Geometry (in Angstrom), charge = 0, multiplicity = 1:

       Center              X                  Y                   Z               Mass
    ------------   -----------------  -----------------  -----------------  -----------------
         O           -2.257009285086    -1.602004703727    -0.132170258828    15.994914619570
         O           -2.191159285086     0.013671296273     1.456209741172    15.994914619570
         O            2.579754714914    -1.206533703727    -0.550506258828    15.994914619570
         N           -1.463419285086     1.943555296273    -0.485224258828    14.003074004430
         N            3.443579414914     0.421787096273     0.665741441172    14.003074004430
         C            0.093001714914     0.097128296273    -0.976411258828    12.000000000000
         C           -1.370881285086     0.516088296273    -0.780623258828    12.000000000000
         C            0.964359714914     0.413172296273     0.234599741172    12.000000000000
         C           -1.990539285086    -0.345728703727     0.305854741172    12.000000000000
         C            2.360532714914    -0.165166703727     0.067153741172    12.000000000000
         H            0.154627714914    -0.972016703727    -1.196180258828     1.007825032230
         H            0.473620714914     0.639040296273    -1.847852258828     1.007825032230
         H           -1.907229285086     0.313195296273    -1.714155258828     1.007825032230
         H            1.014178714914     1.495983296273     0.393448741172     1.007825032230
         H            0.539222714914    -0.023386703727     1.148230741172     1.007825032230
         H           -1.302763285086     2.065565296273     0.515515741172     1.007825032230
         H           -2.424354285086     2.251309296273    -0.634297258828     1.007825032230
         H            3.214597714914     1.468576296273     1.031047741172     1.007825032230
         H            4.302082714914     0.208064296273     0.559810741172     1.007825032230
         H           -2.596359285086    -2.092549703727     0.645750741172     1.007825032230

  Basis Set: AUG-CC-PVTZ
    Blend: AUG-CC-PVTZ
  Basis Set: (AUG-CC-PVTZ AUX)
    Blend: AUG-CC-PVTZ-JKFIT
	 Reference Energy          =    -528.8599970424771755 [Eh]
	 Singles Energy            =      -0.0000000000000000 [Eh]
	 Same-Spin Energy          =      -0.5280120728333788 [Eh]
	 Opposite-Spin Energy      =      -1.6365865142694687 [Eh]
	 Correlation Energy        =      -2.1645985871028475 [Eh]
	 Total Energy              =    -531.0245956295800625 [Eh]

	 ================> DF-SCS-MP2 Energies <==================
	-----------------------------------------------------------
	 SCS Same-Spin Scale       =       0.3333333333333333 [-]
	 SCS Opposite-Spin Scale   =       1.2000000000000000 [-]
	 SCS Same-Spin Energy      =      -0.1760040242777929 [Eh]
	 SCS Opposite-Spin Energy  =      -1.9639038171233623 [Eh]
	 SCS Correlation Energy    =      -2.1399078414011550 [Eh]
	 SCS Total Energy          =    -530.9999048838783438 [Eh]
	-----------------------------------------------------------

  Dipole Moment: [D]
     X:    -0.6790      Y:     1.9868      Z:     0.8770     Total:     2.2754

*** Psi4 exiting successfully. Buy a developer a beer!
