                               Psi4 1.3.2 release

  ==> Input File <==

--------------------------------------------------------------------------
#psi4
#
memory 32 gb

molecule  {
0 1
  O       -2.2580520    -1.6446380    -0.1299340
  O       -2.1922020    -0.0289620     1.4584460
  O        2.7031850    -1.2316387    -0.5202162
  N       -1.4644620     1.9009220    -0.4829880
  N        3.3512580     0.4763250     0.7206820
  C        0.0919590     0.0544950    -0.9741750
  C       -1.3719240     0.4734550    -0.7783870
  C        0.9633170     0.3705390     0.2368360
  C       -1.9915820    -0.3883620     0.3080910
  C        2.3594900    -0.2078000     0.0693900
  H        0.1535850    -1.0146500    -1.1939440
  H        0.4725780     0.5964070    -1.8456160
  H       -1.9082720     0.2705620    -1.7119190
  H        1.0131360     1.4533500     0.3956850
  H        0.5381800    -0.0660200     1.1504670
  H       -1.3038060     2.0229320     0.5177520
  H       -2.4253970     2.2086760    -0.6320610
  H        3.2135550     1.4259430     1.0332840
  H        4.3010400     0.1654310     0.5620470
  H       -2.5974020    -2.1351830     0.6479870
units angstrom
no_reorient  #important for SAPT in psi4, default
symmetry c1  #important for SAPT in psi4, default
}

set PROPERTIES_ORIGIN ["COM"]
properties('MP2/aug-cc-pvtz', properties = ['dipole'])
--------------------------------------------------------------------------

    Molecular point group: c1
  Charge       = 0
  Multiplicity = 1
  Basis Set: AUG-CC-PVTZ
    Blend: AUG-CC-PVTZ
  Basis Set: (AUG-CC-PVTZ AUX)
    Blend: AUG-CC-PVTZ-JKFIT

    Orbital Energies [Eh]
    ---------------------

    Doubly Occupied:

       1A    -20.627195     2A    -20.564378     3A    -20.520393
       4A    -15.581891     5A    -15.560378     6A    -11.397453
       7A    -11.356748     8A    -11.288998     9A    -11.252615
      10A    -11.241984    11A     -1.471582    12A     -1.377693
      13A     -1.368922    14A     -1.210734    15A     -1.202952
      16A     -1.075924    17A     -0.987162    18A     -0.887872
      19A     -0.803093    20A     -0.778013    21A     -0.731041
      22A     -0.716011    23A     -0.707630    24A     -0.689577
      25A     -0.658243    26A     -0.649863    27A     -0.622442
      28A     -0.605679    29A     -0.591825    30A     -0.587226
      31A     -0.555482    32A     -0.525681    33A     -0.512447
      34A     -0.504303    35A     -0.489011    36A     -0.466665
      37A     -0.429378    38A     -0.420980    39A     -0.411038

  @DF-RHF Final Energy:  -528.88889206315889

   => Energetics <=

    Nuclear Repulsion Energy =            547.4102450087846137
    One-Electron Energy =               -1809.7372676961954312
    Two-Electron Energy =                 733.4381306242519258
    Total Energy =                       -528.8888920631588917
  Basis Set: (AUG-CC-PVTZ AUX)
    Blend: AUG-CC-PVTZ-RI
    Molecular point group: c1

    Geometry (in Angstrom), charge = 0, multiplicity = 1:

       Center              X                  Y                   Z               Mass
    ------------   -----------------  -----------------  -----------------  -----------------
         O           -2.261888841477    -1.613239514461    -0.140294769804    15.994914619570
         O           -2.196038841477     0.002436485539     1.448085230196    15.994914619570
         O            2.699348158523    -1.200240214461    -0.530576969804    15.994914619570
         N           -1.468298841477     1.932320485539    -0.493348769804    14.003074004430
         N            3.347421158523     0.507723485539     0.710321230196    14.003074004430
         C            0.088122158523     0.085893485539    -0.984535769804    12.000000000000
         C           -1.375760841477     0.504853485539    -0.788747769804    12.000000000000
         C            0.959480158523     0.401937485539     0.226475230196    12.000000000000
         C           -1.995418841477    -0.356963514461     0.297730230196    12.000000000000
         C            2.355653158523    -0.176401514461     0.059029230196    12.000000000000
         H            0.149748158523    -0.983251514461    -1.204304769804     1.007825032230
         H            0.468741158523     0.627805485539    -1.855976769804     1.007825032230
         H           -1.912108841477     0.301960485539    -1.722279769804     1.007825032230
         H            1.009299158523     1.484748485539     0.385324230196     1.007825032230
         H            0.534343158523    -0.034621514461     1.140106230196     1.007825032230
         H           -1.307642841477     2.054330485539     0.507391230196     1.007825032230
         H           -2.429233841477     2.240074485539    -0.642421769804     1.007825032230
         H            3.209718158523     1.457341485539     1.022923230196     1.007825032230
         H            4.297203158523     0.196829485539     0.551686230196     1.007825032230
         H           -2.601238841477    -2.103784514461     0.637626230196     1.007825032230

  Basis Set: AUG-CC-PVTZ
    Blend: AUG-CC-PVTZ
  Basis Set: (AUG-CC-PVTZ AUX)
    Blend: AUG-CC-PVTZ-JKFIT
	 Reference Energy          =    -528.8888920631588917 [Eh]
	 Singles Energy            =      -0.0000000000000000 [Eh]
	 Same-Spin Energy          =      -0.5279908391291779 [Eh]
	 Opposite-Spin Energy      =      -1.6359005798876955 [Eh]
	 Correlation Energy        =      -2.1638914190168732 [Eh]
	 Total Energy              =    -531.0527834821757551 [Eh]

	 ================> DF-SCS-MP2 Energies <==================
	-----------------------------------------------------------
	 SCS Same-Spin Scale       =       0.3333333333333333 [-]
	 SCS Opposite-Spin Scale   =       1.2000000000000000 [-]
	 SCS Same-Spin Energy      =      -0.1759969463763926 [Eh]
	 SCS Opposite-Spin Energy  =      -1.9630806958652345 [Eh]
	 SCS Correlation Energy    =      -2.1390776422416273 [Eh]
	 SCS Total Energy          =    -531.0279697054005510 [Eh]
	-----------------------------------------------------------

  Dipole Moment: [D]
     X:    -0.8424      Y:     1.9253      Z:     0.7828     Total:     2.2426

*** Psi4 exiting successfully. Buy a developer a beer!
