                               Psi4 1.3.2 release

  ==> Input File <==

--------------------------------------------------------------------------
#psi4
#
memory 32 gb

molecule  {
0 1
  O       -2.2580520    -1.6446380    -0.1299340
  O       -2.1922020    -0.0289620     1.4584460
  O        2.5787120    -1.2491670    -0.5482700
  N       -1.4644620     1.9009220    -0.4829880
  N        3.3512580     0.4763250     0.7206820
  C        0.0919590     0.0544950    -0.9741750
  C       -1.3719240     0.4734550    -0.7783870
  C        0.9633170     0.3705390     0.2368360
  C       -1.9915820    -0.3883620     0.3080910
  C        2.3594900    -0.2078000     0.0693900
  H        0.1535850    -1.0146500    -1.1939440
  H        0.4725780     0.5964070    -1.8456160
  H       -1.9082720     0.2705620    -1.7119190
  H        1.0131360     1.4533500     0.3956850
  H        0.5381800    -0.0660200     1.1504670
  H       -1.3038060     2.0229320     0.5177520
  H       -2.4253970     2.2086760    -0.6320610
  H        3.2484673     1.4305788     1.0325959
  H        4.3010400     0.1654310     0.5620470
  H       -2.5974020    -2.1351830     0.6479870
units angstrom
no_reorient  #important for SAPT in psi4, default
symmetry c1  #important for SAPT in psi4, default
}

set PROPERTIES_ORIGIN ["COM"]
properties('MP2/aug-cc-pvtz', properties = ['dipole'])
--------------------------------------------------------------------------

    Molecular point group: c1
  Charge       = 0
  Multiplicity = 1
  Basis Set: AUG-CC-PVTZ
    Blend: AUG-CC-PVTZ
  Basis Set: (AUG-CC-PVTZ AUX)
    Blend: AUG-CC-PVTZ-JKFIT

    Orbital Energies [Eh]
    ---------------------

    Doubly Occupied:

       1A    -20.625110     2A    -20.562128     3A    -20.523004
       4A    -15.589524     5A    -15.557918     6A    -11.395185
       7A    -11.358299     8A    -11.286119     9A    -11.246358
      10A    -11.237636    11A     -1.469429    12A     -1.376951
      13A     -1.366748    14A     -1.212405    15A     -1.207535
      16A     -1.071280    17A     -0.983813    18A     -0.885632
      19A     -0.804633    20A     -0.778331    21A     -0.730825
      22A     -0.714022    23A     -0.706039    24A     -0.688854
      25A     -0.655636    26A     -0.651394    27A     -0.620447
      28A     -0.603799    29A     -0.591524    30A     -0.584950
      31A     -0.554313    32A     -0.521951    33A     -0.509451
      34A     -0.500495    35A     -0.486325    36A     -0.464231
      37A     -0.429546    38A     -0.419994    39A     -0.416270

  @DF-RHF Final Energy:  -528.89145615094878

   => Energetics <=

    Nuclear Repulsion Energy =            548.3178537715704124
    One-Electron Energy =               -1811.6424070755490447
    Two-Electron Energy =                 734.4330971530297347
    Total Energy =                       -528.8914561509487839
  Basis Set: (AUG-CC-PVTZ AUX)
    Blend: AUG-CC-PVTZ-RI
    Molecular point group: c1

    Geometry (in Angstrom), charge = 0, multiplicity = 1:

       Center              X                  Y                   Z               Mass
    ------------   -----------------  -----------------  -----------------  -----------------
         O           -2.248499637650    -1.611352109753    -0.137218065078    15.994914619570
         O           -2.182649637650     0.004323890247     1.451161934922    15.994914619570
         O            2.588264362350    -1.215881109753    -0.555554065078    15.994914619570
         N           -1.454909637650     1.934207890247    -0.490272065078    14.003074004430
         N            3.360810362350     0.509610890247     0.713397934922    14.003074004430
         C            0.101511362350     0.087780890247    -0.981459065078    12.000000000000
         C           -1.362371637650     0.506740890247    -0.785671065078    12.000000000000
         C            0.972869362350     0.403824890247     0.229551934922    12.000000000000
         C           -1.982029637650    -0.355076109753     0.300806934922    12.000000000000
         C            2.369042362350    -0.174514109753     0.062105934922    12.000000000000
         H            0.163137362350    -0.981364109753    -1.201228065078     1.007825032230
         H            0.482130362350     0.629692890247    -1.852900065078     1.007825032230
         H           -1.898719637650     0.303847890247    -1.719203065078     1.007825032230
         H            1.022688362350     1.486635890247     0.388400934922     1.007825032230
         H            0.547732362350    -0.032734109753     1.143182934922     1.007825032230
         H           -1.294253637650     2.056217890247     0.510467934922     1.007825032230
         H           -2.415844637650     2.241961890247    -0.639345065078     1.007825032230
         H            3.258019662350     1.463864690247     1.025311834922     1.007825032230
         H            4.310592362350     0.198716890247     0.554762934922     1.007825032230
         H           -2.587849637650    -2.101897109753     0.640702934922     1.007825032230

  Basis Set: AUG-CC-PVTZ
    Blend: AUG-CC-PVTZ
  Basis Set: (AUG-CC-PVTZ AUX)
    Blend: AUG-CC-PVTZ-JKFIT
	 Reference Energy          =    -528.8914561509487839 [Eh]
	 Singles Energy            =      -0.0000000000000000 [Eh]
	 Same-Spin Energy          =      -0.5280362413666664 [Eh]
	 Opposite-Spin Energy      =      -1.6359313200181491 [Eh]
	 Correlation Energy        =      -2.1639675613848155 [Eh]
	 Total Energy              =    -531.0554237123335497 [Eh]

	 ================> DF-SCS-MP2 Energies <==================
	-----------------------------------------------------------
	 SCS Same-Spin Scale       =       0.3333333333333333 [-]
	 SCS Opposite-Spin Scale   =       1.2000000000000000 [-]
	 SCS Same-Spin Energy      =      -0.1760120804555554 [Eh]
	 SCS Opposite-Spin Energy  =      -1.9631175840217789 [Eh]
	 SCS Correlation Energy    =      -2.1391296644773345 [Eh]
	 SCS Total Energy          =    -531.0305858154260932 [Eh]
	-----------------------------------------------------------

  Dipole Moment: [D]
     X:    -0.3772      Y:     1.9386      Z:     0.8544     Total:     2.1518

*** Psi4 exiting successfully. Buy a developer a beer!
