                               Psi4 1.3.2 release

  ==> Input File <==

--------------------------------------------------------------------------
#psi4
#
memory 32 gb

molecule  {
0 1
  O       -2.2580520    -1.6446380    -0.1299340
  O       -2.1922020    -0.0289620     1.4584460
  O        2.5787120    -1.2491670    -0.5482700
  N       -1.4644620     1.9009220    -0.4829880
  N        3.3512580     0.4763250     0.7206820
  C        0.0919590     0.0544950    -0.9741750
  C       -1.3719240     0.4734550    -0.7783870
  C        0.9633170     0.3705390     0.2368360
  C       -1.9915820    -0.3883620     0.3080910
  C        2.3488801    -0.2319390     0.0664003
  H        0.1535850    -1.0146500    -1.1939440
  H        0.4725780     0.5964070    -1.8456160
  H       -1.9082720     0.2705620    -1.7119190
  H        1.0131360     1.4533500     0.3956850
  H        0.5381800    -0.0660200     1.1504670
  H       -1.3038060     2.0229320     0.5177520
  H       -2.4253970     2.2086760    -0.6320610
  H        3.2135550     1.4259430     1.0332840
  H        4.3010400     0.1654310     0.5620470
  H       -2.5974020    -2.1351830     0.6479870
units angstrom
no_reorient  #important for SAPT in psi4, default
symmetry c1  #important for SAPT in psi4, default
}

set PROPERTIES_ORIGIN ["COM"]
properties('MP2/aug-cc-pvtz', properties = ['dipole'])
--------------------------------------------------------------------------

    Molecular point group: c1
  Charge       = 0
  Multiplicity = 1
  Basis Set: AUG-CC-PVTZ
    Blend: AUG-CC-PVTZ
  Basis Set: (AUG-CC-PVTZ AUX)
    Blend: AUG-CC-PVTZ-JKFIT

    Orbital Energies [Eh]
    ---------------------

    Doubly Occupied:

       1A    -20.625524     2A    -20.562458     3A    -20.527365
       4A    -15.584549     5A    -15.558258     6A    -11.395526
       7A    -11.357638     8A    -11.286473     9A    -11.246299
      10A    -11.238246    11A     -1.469813    12A     -1.390077
      13A     -1.367099    14A     -1.208640    15A     -1.203984
      16A     -1.071916    17A     -0.983947    18A     -0.885041
      19A     -0.801121    20A     -0.775218    21A     -0.729594
      22A     -0.714202    23A     -0.705769    24A     -0.689181
      25A     -0.656126    26A     -0.653583    27A     -0.621046
      28A     -0.604449    29A     -0.598761    30A     -0.584901
      31A     -0.555608    32A     -0.523305    33A     -0.510430
      34A     -0.501010    35A     -0.486878    36A     -0.464591
      37A     -0.431663    38A     -0.420438    39A     -0.416193

  @DF-RHF Final Energy:  -528.89213572075710

   => Energetics <=

    Nuclear Repulsion Energy =            548.5208261278869486
    One-Electron Energy =               -1812.0120870410303269
    Two-Electron Energy =                 734.5991251923862819
    Total Energy =                       -528.8921357207570964
  Basis Set: (AUG-CC-PVTZ AUX)
    Blend: AUG-CC-PVTZ-RI
    Molecular point group: c1

    Geometry (in Angstrom), charge = 0, multiplicity = 1:

       Center              X                  Y                   Z               Mass
    ------------   -----------------  -----------------  -----------------  -----------------
         O           -2.247387121431    -1.609337036132    -0.136977200272    15.994914619570
         O           -2.181537121431     0.006338963868     1.451402799728    15.994914619570
         O            2.589376878569    -1.213866036132    -0.555313200272    15.994914619570
         N           -1.453797121431     1.936222963868    -0.490031200272    14.003074004430
         N            3.361922878569     0.511625963868     0.713638799728    14.003074004430
         C            0.102623878569     0.089795963868    -0.981218200272    12.000000000000
         C           -1.361259121431     0.508755963868    -0.785430200272    12.000000000000
         C            0.973981878569     0.405839963868     0.229792799728    12.000000000000
         C           -1.980917121431    -0.353061036132     0.301047799728    12.000000000000
         C            2.359544978569    -0.196638036132     0.059357099728    12.000000000000
         H            0.164249878569    -0.979349036132    -1.200987200272     1.007825032230
         H            0.483242878569     0.631707963868    -1.852659200272     1.007825032230
         H           -1.897607121431     0.305862963868    -1.718962200272     1.007825032230
         H            1.023800878569     1.488650963868     0.388641799728     1.007825032230
         H            0.548844878569    -0.030719036132     1.143423799728     1.007825032230
         H           -1.293141121431     2.058232963868     0.510708799728     1.007825032230
         H           -2.414732121431     2.243976963868    -0.639104200272     1.007825032230
         H            3.224219878569     1.461243963868     1.026240799728     1.007825032230
         H            4.311704878569     0.200731963868     0.555003799728     1.007825032230
         H           -2.586737121431    -2.099882036132     0.640943799728     1.007825032230

  Basis Set: AUG-CC-PVTZ
    Blend: AUG-CC-PVTZ
  Basis Set: (AUG-CC-PVTZ AUX)
    Blend: AUG-CC-PVTZ-JKFIT
	 Reference Energy          =    -528.8921357207570964 [Eh]
	 Singles Energy            =      -0.0000000000000000 [Eh]
	 Same-Spin Energy          =      -0.5276966747451148 [Eh]
	 Opposite-Spin Energy      =      -1.6352733547030045 [Eh]
	 Correlation Energy        =      -2.1629700294481191 [Eh]
	 Total Energy              =    -531.0551057502052572 [Eh]

	 ================> DF-SCS-MP2 Energies <==================
	-----------------------------------------------------------
	 SCS Same-Spin Scale       =       0.3333333333333333 [-]
	 SCS Opposite-Spin Scale   =       1.2000000000000000 [-]
	 SCS Same-Spin Energy      =      -0.1758988915817049 [Eh]
	 SCS Opposite-Spin Energy  =      -1.9623280256436053 [Eh]
	 SCS Correlation Energy    =      -2.1382269172253103 [Eh]
	 SCS Total Energy          =    -531.0303626379824209 [Eh]
	-----------------------------------------------------------

  Dipole Moment: [D]
     X:    -0.5067      Y:     1.7835      Z:     0.7561     Total:     2.0023

*** Psi4 exiting successfully. Buy a developer a beer!
