                               Psi4 1.3.2 release

  ==> Input File <==

--------------------------------------------------------------------------
#psi4
#
memory 32 gb

molecule  {
0 1
  O       -2.2580520    -1.6446380    -0.1299340
  O       -2.1922020    -0.0289620     1.4584460
  O        2.5787120    -1.2491670    -0.5482700
  N       -1.4644620     1.9009220    -0.4829880
  N        3.3512580     0.4763250     0.7206820
  C        0.0919590     0.0544950    -0.9741750
  C       -1.3719240     0.4734550    -0.7783870
  C        0.9633170     0.3705390     0.2368360
  C       -1.9915820    -0.3883620     0.3080910
  C        2.4506329    -0.3182337     0.0623788
  H        0.1535850    -1.0146500    -1.1939440
  H        0.4725780     0.5964070    -1.8456160
  H       -1.9082720     0.2705620    -1.7119190
  H        1.0131360     1.4533500     0.3956850
  H        0.5381800    -0.0660200     1.1504670
  H       -1.3038060     2.0229320     0.5177520
  H       -2.4253970     2.2086760    -0.6320610
  H        3.2135550     1.4259430     1.0332840
  H        4.3010400     0.1654310     0.5620470
  H       -2.5974020    -2.1351830     0.6479870
units angstrom
no_reorient  #important for SAPT in psi4, default
symmetry c1  #important for SAPT in psi4, default
}

set PROPERTIES_ORIGIN ["COM"]
properties('MP2/aug-cc-pvtz', properties = ['dipole'])
--------------------------------------------------------------------------

    Molecular point group: c1
  Charge       = 0
  Multiplicity = 1
  Basis Set: AUG-CC-PVTZ
    Blend: AUG-CC-PVTZ
  Basis Set: (AUG-CC-PVTZ AUX)
    Blend: AUG-CC-PVTZ-JKFIT

    Orbital Energies [Eh]
    ---------------------

    Doubly Occupied:

       1A    -20.622162     2A    -20.558030     3A    -20.540544
       4A    -15.584039     5A    -15.553480     6A    -11.391230
       7A    -11.351969     8A    -11.281363     9A    -11.234129
      10A    -11.230953    11A     -1.466057    12A     -1.457813
      13A     -1.363019    14A     -1.217740    15A     -1.202806
      16A     -1.055933    17A     -0.966332    18A     -0.869798
      19A     -0.800696    20A     -0.777167    21A     -0.731314
      22A     -0.710523    23A     -0.703006    24A     -0.687966
      25A     -0.669158    26A     -0.650279    27A     -0.622347
      28A     -0.611411    29A     -0.607034    30A     -0.578318
      31A     -0.570073    32A     -0.522966    33A     -0.508063
      34A     -0.493399    35A     -0.483168    36A     -0.459648
      37A     -0.435841    38A     -0.417429    39A     -0.401992

  @DF-RHF Final Energy:  -528.87036049949290

   => Energetics <=

    Nuclear Repulsion Energy =            548.3780276120087365
    One-Electron Energy =               -1811.7183869803966445
    Two-Electron Energy =                 734.4699988688950043
    Total Energy =                       -528.8703604994929037
  Basis Set: (AUG-CC-PVTZ AUX)
    Blend: AUG-CC-PVTZ-RI
    Molecular point group: c1

    Geometry (in Angstrom), charge = 0, multiplicity = 1:

       Center              X                  Y                   Z               Mass
    ------------   -----------------  -----------------  -----------------  -----------------
         O           -2.255746406504    -1.602247678418    -0.136646822484    15.994914619570
         O           -2.189896406504     0.013428321582     1.451733177516    15.994914619570
         O            2.581017593496    -1.206776678418    -0.554982822484    15.994914619570
         N           -1.462156406504     1.943312321582    -0.489700822484    14.003074004430
         N            3.353563593496     0.518715321582     0.713969177516    14.003074004430
         C            0.094264593496     0.096885321582    -0.980887822484    12.000000000000
         C           -1.369618406504     0.515845321582    -0.785099822484    12.000000000000
         C            0.965622593496     0.412929321582     0.230123177516    12.000000000000
         C           -1.989276406504    -0.345971678418     0.301378177516    12.000000000000
         C            2.452938493496    -0.275843378418     0.055665977516    12.000000000000
         H            0.155890593496    -0.972259678418    -1.200656822484     1.007825032230
         H            0.474883593496     0.638797321582    -1.852328822484     1.007825032230
         H           -1.905966406504     0.312952321582    -1.718631822484     1.007825032230
         H            1.015441593496     1.495740321582     0.388972177516     1.007825032230
         H            0.540485593496    -0.023629678418     1.143754177516     1.007825032230
         H           -1.301500406504     2.065322321582     0.511039177516     1.007825032230
         H           -2.423091406504     2.251066321582    -0.638773822484     1.007825032230
         H            3.215860593496     1.468333321582     1.026571177516     1.007825032230
         H            4.303345593496     0.207821321582     0.555334177516     1.007825032230
         H           -2.595096406504    -2.092792678418     0.641274177516     1.007825032230

  Basis Set: AUG-CC-PVTZ
    Blend: AUG-CC-PVTZ
  Basis Set: (AUG-CC-PVTZ AUX)
    Blend: AUG-CC-PVTZ-JKFIT
	 Reference Energy          =    -528.8703604994929037 [Eh]
	 Singles Energy            =      -0.0000000000000000 [Eh]
	 Same-Spin Energy          =      -0.5261737872251098 [Eh]
	 Opposite-Spin Energy      =      -1.6319330552955331 [Eh]
	 Correlation Energy        =      -2.1581068425206427 [Eh]
	 Total Energy              =    -531.0284673420135277 [Eh]

	 ================> DF-SCS-MP2 Energies <==================
	-----------------------------------------------------------
	 SCS Same-Spin Scale       =       0.3333333333333333 [-]
	 SCS Opposite-Spin Scale   =       1.2000000000000000 [-]
	 SCS Same-Spin Energy      =      -0.1753912624083699 [Eh]
	 SCS Opposite-Spin Energy  =      -1.9583196663546396 [Eh]
	 SCS Correlation Energy    =      -2.1337109287630094 [Eh]
	 SCS Total Energy          =    -531.0040714282558838 [Eh]
	-----------------------------------------------------------

  Dipole Moment: [D]
     X:     0.1871      Y:     1.3465      Z:     0.6231     Total:     1.4954

*** Psi4 exiting successfully. Buy a developer a beer!
