                               Psi4 1.3.2 release

  ==> Input File <==

--------------------------------------------------------------------------
#psi4
#
memory 32 gb

molecule  {
0 1
  O       -2.2580520    -1.6446380    -0.1299340
  O       -2.1922020    -0.0289620     1.4584460
  O        2.5787120    -1.2491670    -0.5482700
  N       -1.4644620     1.9009220    -0.4829880
  N        3.3512580     0.4763250     0.7206820
  C        0.0919590     0.0544950    -0.9741750
  C       -1.3719240     0.4734550    -0.7783870
  C        0.9633170     0.3705390     0.2368360
  C       -1.9915820    -0.3883620     0.3080910
  C        2.2895689    -0.3497363     0.0522482
  H        0.1535850    -1.0146500    -1.1939440
  H        0.4725780     0.5964070    -1.8456160
  H       -1.9082720     0.2705620    -1.7119190
  H        1.0131360     1.4533500     0.3956850
  H        0.5381800    -0.0660200     1.1504670
  H       -1.3038060     2.0229320     0.5177520
  H       -2.4253970     2.2086760    -0.6320610
  H        3.2135550     1.4259430     1.0332840
  H        4.3010400     0.1654310     0.5620470
  H       -2.5974020    -2.1351830     0.6479870
units angstrom
no_reorient  #important for SAPT in psi4, default
symmetry c1  #important for SAPT in psi4, default
}

set PROPERTIES_ORIGIN ["COM"]
properties('MP2/aug-cc-pvtz', properties = ['dipole'])
--------------------------------------------------------------------------

    Molecular point group: c1
  Charge       = 0
  Multiplicity = 1
  Basis Set: AUG-CC-PVTZ
    Blend: AUG-CC-PVTZ
  Basis Set: (AUG-CC-PVTZ AUX)
    Blend: AUG-CC-PVTZ-JKFIT

    Orbital Energies [Eh]
    ---------------------

    Doubly Occupied:

       1A    -20.627614     2A    -20.564080     3A    -20.550976
       4A    -15.559829     5A    -15.556844     6A    -11.397202
       7A    -11.358194     8A    -11.288248     9A    -11.247535
      10A    -11.241366    11A     -1.471740    12A     -1.465007
      13A     -1.368827    14A     -1.210054    15A     -1.160484
      16A     -1.075222    17A     -0.985369    18A     -0.884418
      19A     -0.796511    20A     -0.764734    21A     -0.724356
      22A     -0.714935    23A     -0.707928    24A     -0.676647
      25A     -0.669027    26A     -0.659365    27A     -0.630977
      28A     -0.621824    29A     -0.611111    30A     -0.584466
      31A     -0.570780    32A     -0.529647    33A     -0.517652
      34A     -0.505432    35A     -0.489917    36A     -0.466458
      37A     -0.432922    38A     -0.419675    39A     -0.403254

  @DF-RHF Final Energy:  -528.86632573194095

   => Energetics <=

    Nuclear Repulsion Energy =            549.3298223053926677
    One-Electron Energy =               -1813.3710369557486501
    Two-Electron Energy =                 735.1748889184149220
    Total Energy =                       -528.8663257319409468
  Basis Set: (AUG-CC-PVTZ AUX)
    Blend: AUG-CC-PVTZ-RI
    Molecular point group: c1

    Geometry (in Angstrom), charge = 0, multiplicity = 1:

       Center              X                  Y                   Z               Mass
    ------------   -----------------  -----------------  -----------------  -----------------
         O           -2.242514535823    -1.599659649253    -0.135814564568    15.994914619570
         O           -2.176664535823     0.016016350747     1.452565435432    15.994914619570
         O            2.594249464177    -1.204188649253    -0.554150564568    15.994914619570
         N           -1.448924535823     1.945900350747    -0.488868564568    14.003074004430
         N            3.366795464177     0.521303350747     0.714801435432    14.003074004430
         C            0.107496464177     0.099473350747    -0.980055564568    12.000000000000
         C           -1.356386535823     0.518433350747    -0.784267564568    12.000000000000
         C            0.978854464177     0.415517350747     0.230955435432    12.000000000000
         C           -1.976044535823    -0.343383649253     0.302210435432    12.000000000000
         C            2.305106364177    -0.304757949253     0.046367635432    12.000000000000
         H            0.169122464177    -0.969671649253    -1.199824564568     1.007825032230
         H            0.488115464177     0.641385350747    -1.851496564568     1.007825032230
         H           -1.892734535823     0.315540350747    -1.717799564568     1.007825032230
         H            1.028673464177     1.498328350747     0.389804435432     1.007825032230
         H            0.553717464177    -0.021041649253     1.144586435432     1.007825032230
         H           -1.288268535823     2.067910350747     0.511871435432     1.007825032230
         H           -2.409859535823     2.253654350747    -0.637941564568     1.007825032230
         H            3.229092464177     1.470921350747     1.027403435432     1.007825032230
         H            4.316577464177     0.210409350747     0.556166435432     1.007825032230
         H           -2.581864535823    -2.090204649253     0.642106435432     1.007825032230

  Basis Set: AUG-CC-PVTZ
    Blend: AUG-CC-PVTZ
  Basis Set: (AUG-CC-PVTZ AUX)
    Blend: AUG-CC-PVTZ-JKFIT
	 Reference Energy          =    -528.8663257319409468 [Eh]
	 Singles Energy            =      -0.0000000000000000 [Eh]
	 Same-Spin Energy          =      -0.5264588179601100 [Eh]
	 Opposite-Spin Energy      =      -1.6331389736220288 [Eh]
	 Correlation Energy        =      -2.1595977915821387 [Eh]
	 Total Energy              =    -531.0259235235230335 [Eh]

	 ================> DF-SCS-MP2 Energies <==================
	-----------------------------------------------------------
	 SCS Same-Spin Scale       =       0.3333333333333333 [-]
	 SCS Opposite-Spin Scale   =       1.2000000000000000 [-]
	 SCS Same-Spin Energy      =      -0.1754862726533700 [Eh]
	 SCS Opposite-Spin Energy  =      -1.9597667683464344 [Eh]
	 SCS Correlation Energy    =      -2.1352530409998045 [Eh]
	 SCS Total Energy          =    -531.0015787729407748 [Eh]
	-----------------------------------------------------------

  Dipole Moment: [D]
     X:    -1.1341      Y:     0.9953      Z:     0.2117     Total:     1.5237

*** Psi4 exiting successfully. Buy a developer a beer!
