                               Psi4 1.4a3.dev225

  ==> Input File <==

--------------------------------------------------------------------------
#psi4
#
memory 32 gb

molecule  {
0 1
  O       -2.2574700    -1.6449290    -0.1296770
  O       -2.1921770    -0.0290210     1.4584970
  O        2.5788390    -1.2486470    -0.5488970
  N       -1.4647530     1.9008340    -0.4830500
  N        3.3509580     0.4760520     0.7213670
  C        0.0918810     0.0546190    -0.9743850
  C       -1.3720140     0.4733420    -0.7784070
  C        0.9632520     0.3707540     0.2365710
  C       -1.9914170    -0.3885060     0.3082000
  C        2.3594470    -0.2075990     0.0692480
  H        0.1537030    -1.0145040    -1.1942090
  H        0.4723450     0.5966220    -1.8458350
  H       -1.9085090     0.2703120    -1.7118280
  H        1.0130710     1.4535820     0.3953090
  H        0.5380840    -0.0656780     1.1502640
  H       -1.3040640     2.0229100     0.5176770
  H       -2.4257360     2.2084470    -0.6320870
  H        3.2063391     1.4725269     1.0499775
  H        4.3007880     0.1652150     0.5629740
  H       -2.5967120    -2.1354700     0.6482930
units angstrom
no_reorient  #important for SAPT in psi4, default
symmetry c1  #important for SAPT in psi4, default
}

set PROPERTIES_ORIGIN ["COM"]
properties('MP2/aug-cc-pvtz', properties = ['dipole'])
--------------------------------------------------------------------------

    Molecular point group: c1
  Charge       = 0
  Multiplicity = 1
  Basis Set: AUG-CC-PVTZ
    Blend: AUG-CC-PVTZ
  Basis Set: (AUG-CC-PVTZ AUX)
    Blend: AUG-CC-PVTZ-JKFIT

    Orbital Energies [Eh]
    ---------------------

    Doubly Occupied:

       1A    -20.625114     2A    -20.562152     3A    -20.522502
       4A    -15.593969     5A    -15.557980     6A    -11.395205
       7A    -11.357434     8A    -11.286130     9A    -11.246339
      10A    -11.237600    11A     -1.469440    12A     -1.376310
      13A     -1.366770    14A     -1.208460    15A     -1.205484
      16A     -1.071053    17A     -0.983507    18A     -0.884902
      19A     -0.801494    20A     -0.774821    21A     -0.726266
      22A     -0.713615    23A     -0.703825    24A     -0.688954
      25A     -0.655604    26A     -0.650494    27A     -0.620422
      28A     -0.603744    29A     -0.589794    30A     -0.584958
      31A     -0.554019    32A     -0.521804    33A     -0.509368
      34A     -0.500441    35A     -0.486324    36A     -0.464241
      37A     -0.428617    38A     -0.419694    39A     -0.415725

  @DF-RHF Final Energy:  -528.88793378662410

   => Energetics <=

    Nuclear Repulsion Energy =            548.1378391529356122
    One-Electron Energy =               -1811.3223990255501121
    Two-Electron Energy =                 734.2966260859903969
    Total Energy =                       -528.8879337866241030
  Basis Set: (AUG-CC-PVTZ AUX)
    Blend: AUG-CC-PVTZ-RI
    Molecular point group: c1

    Geometry (in Angstrom), charge = 0, multiplicity = 1:

       Center              X                  Y                   Z               Mass
    ------------   -----------------  -----------------  -----------------  -----------------
         O           -2.247636930434    -1.611939317634    -0.137063512458    15.994914619570
         O           -2.182343930434     0.003968682366     1.451110487542    15.994914619570
         O            2.588672069566    -1.215657317634    -0.556283512458    15.994914619570
         N           -1.454919930434     1.933823682366    -0.490436512458    14.003074004430
         N            3.360791069566     0.509041682366     0.713980487542    14.003074004430
         C            0.101714069566     0.087608682366    -0.981771512458    12.000000000000
         C           -1.362180930434     0.506331682366    -0.785793512458    12.000000000000
         C            0.973085069566     0.403743682366     0.229184487542    12.000000000000
         C           -1.981583930434    -0.355516317634     0.300813487542    12.000000000000
         C            2.369280069566    -0.174609317634     0.061861487542    12.000000000000
         H            0.163536069566    -0.981514317634    -1.201595512458     1.007825032230
         H            0.482178069566     0.629611682366    -1.853221512458     1.007825032230
         H           -1.898675930434     0.303301682366    -1.719214512458     1.007825032230
         H            1.022904069566     1.486571682366     0.387922487542     1.007825032230
         H            0.547917069566    -0.032688317634     1.142877487542     1.007825032230
         H           -1.294230930434     2.055899682366     0.510290487542     1.007825032230
         H           -2.415902930434     2.241436682366    -0.639473512458     1.007825032230
         H            3.216172169566     1.505516582366     1.042590987542     1.007825032230
         H            4.310621069566     0.198204682366     0.555587487542     1.007825032230
         H           -2.586878930434    -2.102480317634     0.640906487542     1.007825032230

  Basis Set: AUG-CC-PVTZ
    Blend: AUG-CC-PVTZ
  Basis Set: (AUG-CC-PVTZ AUX)
    Blend: AUG-CC-PVTZ-JKFIT
	 Reference Energy          =    -528.8879337866241030 [Eh]
	 Singles Energy            =      -0.0000000000000000 [Eh]
	 Same-Spin Energy          =      -0.5283764461545508 [Eh]
	 Opposite-Spin Energy      =      -1.6368016033979802 [Eh]
	 Correlation Energy        =      -2.1651780495525310 [Eh]
	 Total Energy              =    -531.0531118361766403 [Eh]

	 ================> DF-SCS-MP2 Energies <==================
	-----------------------------------------------------------
	 SCS Same-Spin Scale       =       0.3333333333333333 [-]
	 SCS Opposite-Spin Scale   =       1.2000000000000000 [-]
	 SCS Same-Spin Energy      =      -0.1761254820515169 [Eh]
	 SCS Opposite-Spin Energy  =      -1.9641619240775761 [Eh]
	 SCS Correlation Energy    =      -2.1402874061290929 [Eh]
	 SCS Total Energy          =    -531.0282211927532217 [Eh]
	-----------------------------------------------------------

  Dipole Moment: [D]
     X:    -0.4041      Y:     1.9690      Z:     0.8766     Total:     2.1929

*** Psi4 exiting successfully. Buy a developer a beer!
