                               Psi4 1.3.2 release

  ==> Input File <==

--------------------------------------------------------------------------
#psi4
#
memory 32 gb

molecule  {
0 1
  O       -2.2580520    -1.6446380    -0.1299340
  O       -2.1922020    -0.0289620     1.4584460
  O        2.5787120    -1.2491670    -0.5482700
  N       -1.4644620     1.9009220    -0.4829880
  N        3.3512580     0.4763250     0.7206820
  C        0.0919590     0.0544950    -0.9741750
  C       -1.3719240     0.4734550    -0.7783870
  C        0.9633170     0.3705390     0.2368360
  C       -1.9915820    -0.3883620     0.3080910
  C        2.1758392    -0.1317260     0.0914156
  H        0.1535850    -1.0146500    -1.1939440
  H        0.4725780     0.5964070    -1.8456160
  H       -1.9082720     0.2705620    -1.7119190
  H        1.0131360     1.4533500     0.3956850
  H        0.5381800    -0.0660200     1.1504670
  H       -1.3038060     2.0229320     0.5177520
  H       -2.4253970     2.2086760    -0.6320610
  H        3.2135550     1.4259430     1.0332840
  H        4.3010400     0.1654310     0.5620470
  H       -2.5974020    -2.1351830     0.6479870
units angstrom
no_reorient  #important for SAPT in psi4, default
symmetry c1  #important for SAPT in psi4, default
}

set PROPERTIES_ORIGIN ["COM"]
properties('MP2/aug-cc-pvtz', properties = ['dipole'])
--------------------------------------------------------------------------

    Molecular point group: c1
  Charge       = 0
  Multiplicity = 1
  Basis Set: AUG-CC-PVTZ
    Blend: AUG-CC-PVTZ
  Basis Set: (AUG-CC-PVTZ AUX)
    Blend: AUG-CC-PVTZ-JKFIT

    Orbital Energies [Eh]
    ---------------------

    Doubly Occupied:

       1A    -20.630958     2A    -20.569405     3A    -20.514661
       4A    -15.583475     5A    -15.565421     6A    -11.402203
       7A    -11.373243     8A    -11.294396     9A    -11.252488
      10A    -11.251215    11A     -1.475807    12A     -1.373508
      13A     -1.314479    14A     -1.216333    15A     -1.172913
      16A     -1.112129    17A     -1.014076    18A     -0.907105
      19A     -0.806134    20A     -0.772212    21A     -0.724557
      22A     -0.719306    23A     -0.707513    24A     -0.698234
      25A     -0.671380    26A     -0.655255    27A     -0.630020
      28A     -0.613517    29A     -0.602291    30A     -0.564653
      31A     -0.547714    32A     -0.532311    33A     -0.506246
      34A     -0.500608    35A     -0.483386    36A     -0.471096
      37A     -0.426952    38A     -0.421587    39A     -0.392903

  @DF-RHF Final Energy:  -528.82040910175590

   => Energetics <=

    Nuclear Repulsion Energy =            549.3127795993766540
    One-Electron Energy =               -1813.3230036772945368
    Two-Electron Energy =                 735.1898149761619834
    Total Energy =                       -528.8204091017558994
  Basis Set: (AUG-CC-PVTZ AUX)
    Blend: AUG-CC-PVTZ-RI
    Molecular point group: c1

    Geometry (in Angstrom), charge = 0, multiplicity = 1:

       Center              X                  Y                   Z               Mass
    ------------   -----------------  -----------------  -----------------  -----------------
         O           -2.233171313979    -1.617569822208    -0.139032279089    15.994914619570
         O           -2.167321313979    -0.001893822208     1.449347720911    15.994914619570
         O            2.603592686021    -1.222098822208    -0.557368279089    15.994914619570
         N           -1.439581313979     1.927990177792    -0.492086279089    14.003074004430
         N            3.376138686021     0.503393177792     0.711583720911    14.003074004430
         C            0.116839686021     0.081563177792    -0.983273279089    12.000000000000
         C           -1.347043313979     0.500523177792    -0.787485279089    12.000000000000
         C            0.988197686021     0.397607177792     0.227737720911    12.000000000000
         C           -1.966701313979    -0.361293822208     0.298992720911    12.000000000000
         C            2.200719886021    -0.104657822208     0.082317320911    12.000000000000
         H            0.178465686021    -0.987581822208    -1.203042279089     1.007825032230
         H            0.497458686021     0.623475177792    -1.854714279089     1.007825032230
         H           -1.883391313979     0.297630177792    -1.721017279089     1.007825032230
         H            1.038016686021     1.480418177792     0.386586720911     1.007825032230
         H            0.563060686021    -0.038951822208     1.141368720911     1.007825032230
         H           -1.278925313979     2.050000177792     0.508653720911     1.007825032230
         H           -2.400516313979     2.235744177792    -0.641159279089     1.007825032230
         H            3.238435686021     1.453011177792     1.024185720911     1.007825032230
         H            4.325920686021     0.192499177792     0.552948720911     1.007825032230
         H           -2.572521313979    -2.108114822208     0.638888720911     1.007825032230

  Basis Set: AUG-CC-PVTZ
    Blend: AUG-CC-PVTZ
  Basis Set: (AUG-CC-PVTZ AUX)
    Blend: AUG-CC-PVTZ-JKFIT
	 Reference Energy          =    -528.8204091017558994 [Eh]
	 Singles Energy            =      -0.0000000000000000 [Eh]
	 Same-Spin Energy          =      -0.5335152258530598 [Eh]
	 Opposite-Spin Energy      =      -1.6466246099398161 [Eh]
	 Correlation Energy        =      -2.1801398357928758 [Eh]
	 Total Energy              =    -531.0005489375487286 [Eh]

	 ================> DF-SCS-MP2 Energies <==================
	-----------------------------------------------------------
	 SCS Same-Spin Scale       =       0.3333333333333333 [-]
	 SCS Opposite-Spin Scale   =       1.2000000000000000 [-]
	 SCS Same-Spin Energy      =      -0.1778384086176866 [Eh]
	 SCS Opposite-Spin Energy  =      -1.9759495319277791 [Eh]
	 SCS Correlation Energy    =      -2.1537879405454659 [Eh]
	 SCS Total Energy          =    -530.9741970423013981 [Eh]
	-----------------------------------------------------------

  Dipole Moment: [D]
     X:    -1.5762      Y:     2.1202      Z:     0.8063     Total:     2.7622

*** Psi4 exiting successfully. Buy a developer a beer!
