                               Psi4 1.3.2 release

  ==> Input File <==

--------------------------------------------------------------------------
#psi4
#
memory 32 gb

molecule  {
0 1
  O       -2.2580520    -1.6446380    -0.1299340
  O       -2.1922020    -0.0289620     1.4584460
  O        2.5787120    -1.2491670    -0.5482700
  N       -1.4644620     1.9009220    -0.4829880
  N        3.3512580     0.4763250     0.7206820
  C        0.0919590     0.0544950    -0.9741750
  C       -1.3719240     0.4734550    -0.7783870
  C        0.9633170     0.3705390     0.2368360
  C       -1.9915820    -0.3883620     0.3080910
  C        2.4319028    -0.1578494     0.1169433
  H        0.1535850    -1.0146500    -1.1939440
  H        0.4725780     0.5964070    -1.8456160
  H       -1.9082720     0.2705620    -1.7119190
  H        1.0131360     1.4533500     0.3956850
  H        0.5381800    -0.0660200     1.1504670
  H       -1.3038060     2.0229320     0.5177520
  H       -2.4253970     2.2086760    -0.6320610
  H        3.2135550     1.4259430     1.0332840
  H        4.3010400     0.1654310     0.5620470
  H       -2.5974020    -2.1351830     0.6479870
units angstrom
no_reorient  #important for SAPT in psi4, default
symmetry c1  #important for SAPT in psi4, default
}

set PROPERTIES_ORIGIN ["COM"]
properties('MP2/aug-cc-pvtz', properties = ['dipole'])
--------------------------------------------------------------------------

    Molecular point group: c1
  Charge       = 0
  Multiplicity = 1
  Basis Set: AUG-CC-PVTZ
    Blend: AUG-CC-PVTZ
  Basis Set: (AUG-CC-PVTZ AUX)
    Blend: AUG-CC-PVTZ-JKFIT

    Orbital Energies [Eh]
    ---------------------

    Doubly Occupied:

       1A    -20.622948     2A    -20.560043     3A    -20.504969
       4A    -15.608912     5A    -15.555910     6A    -11.393123
       7A    -11.353542     8A    -11.284035     9A    -11.246431
      10A    -11.234051    11A     -1.467294    12A     -1.364675
      13A     -1.353375    14A     -1.243070    15A     -1.205569
      16A     -1.063516    17A     -0.977591    18A     -0.884301
      19A     -0.823337    20A     -0.784395    21A     -0.748961
      22A     -0.715166    23A     -0.709161    24A     -0.683508
      25A     -0.652728    26A     -0.642195    27A     -0.618546
      28A     -0.603047    29A     -0.584826    30A     -0.566809
      31A     -0.559124    32A     -0.514750    33A     -0.507973
      34A     -0.498094    35A     -0.483991    36A     -0.462022
      37A     -0.416843    38A     -0.413540    39A     -0.409739

  @DF-RHF Final Energy:  -528.87481262328242

   => Energetics <=

    Nuclear Repulsion Energy =            547.8157115841842142
    One-Electron Energy =               -1810.7368275002970677
    Two-Electron Energy =                 734.0463032928303164
    Total Energy =                       -528.8748126232824234
  Basis Set: (AUG-CC-PVTZ AUX)
    Blend: AUG-CC-PVTZ-RI
    Molecular point group: c1

    Geometry (in Angstrom), charge = 0, multiplicity = 1:

       Center              X                  Y                   Z               Mass
    ------------   -----------------  -----------------  -----------------  -----------------
         O           -2.254207674937    -1.615423709790    -0.141129453040    15.994914619570
         O           -2.188357674937     0.000252290210     1.447250546960    15.994914619570
         O            2.582556325063    -1.219952709790    -0.559465453040    15.994914619570
         N           -1.460617674937     1.930136290210    -0.494183453040    14.003074004430
         N            3.355102325063     0.505539290210     0.709486546960    14.003074004430
         C            0.095803325063     0.083709290210    -0.985370453040    12.000000000000
         C           -1.368079674937     0.502669290210    -0.789582453040    12.000000000000
         C            0.967161325063     0.399753290210     0.225640546960    12.000000000000
         C           -1.987737674937    -0.359147709790     0.296895546960    12.000000000000
         C            2.435747125063    -0.128635109790     0.105747846960    12.000000000000
         H            0.157429325063    -0.985435709790    -1.205139453040     1.007825032230
         H            0.476422325063     0.625621290210    -1.856811453040     1.007825032230
         H           -1.904427674937     0.299776290210    -1.723114453040     1.007825032230
         H            1.016980325063     1.482564290210     0.384489546960     1.007825032230
         H            0.542024325063    -0.036805709790     1.139271546960     1.007825032230
         H           -1.299961674937     2.052146290210     0.506556546960     1.007825032230
         H           -2.421552674937     2.237890290210    -0.643256453040     1.007825032230
         H            3.217399325063     1.455157290210     1.022088546960     1.007825032230
         H            4.304884325063     0.194645290210     0.550851546960     1.007825032230
         H           -2.593557674937    -2.105968709790     0.636791546960     1.007825032230

  Basis Set: AUG-CC-PVTZ
    Blend: AUG-CC-PVTZ
  Basis Set: (AUG-CC-PVTZ AUX)
    Blend: AUG-CC-PVTZ-JKFIT
	 Reference Energy          =    -528.8748126232824234 [Eh]
	 Singles Energy            =      -0.0000000000000000 [Eh]
	 Same-Spin Energy          =      -0.5288919589841049 [Eh]
	 Opposite-Spin Energy      =      -1.6371182581353978 [Eh]
	 Correlation Energy        =      -2.1660102171195028 [Eh]
	 Total Energy              =    -531.0408228404019155 [Eh]

	 ================> DF-SCS-MP2 Energies <==================
	-----------------------------------------------------------
	 SCS Same-Spin Scale       =       0.3333333333333333 [-]
	 SCS Opposite-Spin Scale   =       1.2000000000000000 [-]
	 SCS Same-Spin Energy      =      -0.1762973196613683 [Eh]
	 SCS Opposite-Spin Energy  =      -1.9645419097624772 [Eh]
	 SCS Correlation Energy    =      -2.1408392294238454 [Eh]
	 SCS Total Energy          =    -531.0156518527062417 [Eh]
	-----------------------------------------------------------

  Dipole Moment: [D]
     X:     0.1572      Y:     2.4275      Z:     1.2822     Total:     2.7498

*** Psi4 exiting successfully. Buy a developer a beer!
