                               Psi4 1.3.2 release

  ==> Input File <==

--------------------------------------------------------------------------
#psi4
#
memory 32 gb

molecule  {
0 1
  O       -2.2580520    -1.6446380    -0.1299340
  O       -2.1922020    -0.0289620     1.4584460
  O        2.5787120    -1.2491670    -0.5482700
  N       -1.4644620     1.9009220    -0.4829880
  N        3.3512580     0.4763250     0.7206820
  C        0.0919590     0.0544950    -0.9741750
  C       -1.3719240     0.4734550    -0.7783870
  C        0.9633170     0.3705390     0.2368360
  C       -1.9915820    -0.3883620     0.3080910
  C        2.3594900    -0.2078000     0.0693900
  H        0.1535850    -1.0146500    -1.1939440
  H        0.4725780     0.5964070    -1.8456160
  H       -1.9082720     0.2705620    -1.7119190
  H        1.0131360     1.4533500     0.3956850
  H        0.5381800    -0.0660200     1.1504670
  H       -1.3038060     2.0229320     0.5177520
  H       -2.4253970     2.2086760    -0.6320610
  H        3.2835048     1.4340519     1.0315277
  H        4.3010400     0.1654310     0.5620470
  H       -2.5974020    -2.1351830     0.6479870
units angstrom
no_reorient  #important for SAPT in psi4, default
symmetry c1  #important for SAPT in psi4, default
}

set PROPERTIES_ORIGIN ["COM"]
properties('MP2/aug-cc-pvtz', properties = ['dipole'])
--------------------------------------------------------------------------

    Molecular point group: c1
  Charge       = 0
  Multiplicity = 1
  Basis Set: AUG-CC-PVTZ
    Blend: AUG-CC-PVTZ
  Basis Set: (AUG-CC-PVTZ AUX)
    Blend: AUG-CC-PVTZ-JKFIT

    Orbital Energies [Eh]
    ---------------------

    Doubly Occupied:

       1A    -20.625032     2A    -20.562034     3A    -20.523403
       4A    -15.589408     5A    -15.557807     6A    -11.395092
       7A    -11.359024     8A    -11.286016     9A    -11.246117
      10A    -11.237494    11A     -1.469346    12A     -1.377193
      13A     -1.366659    14A     -1.212165    15A     -1.207420
      16A     -1.071183    17A     -0.983789    18A     -0.885844
      19A     -0.805882    20A     -0.778981    21A     -0.729821
      22A     -0.713731    23A     -0.704907    24A     -0.688109
      25A     -0.655458    26A     -0.651755    27A     -0.620361
      28A     -0.603689    29A     -0.591238    30A     -0.584769
      31A     -0.554308    32A     -0.521845    33A     -0.509340
      34A     -0.500259    35A     -0.486222    36A     -0.464132
      37A     -0.430014    38A     -0.419982    39A     -0.416298

  @DF-RHF Final Energy:  -528.89092884653689

   => Energetics <=

    Nuclear Repulsion Energy =            548.2564508044389413
    One-Electron Energy =               -1811.5225023286484429
    Two-Electron Energy =                 734.3751226776727208
    Total Energy =                       -528.8909288465368945
  Basis Set: (AUG-CC-PVTZ AUX)
    Blend: AUG-CC-PVTZ-RI
    Molecular point group: c1

    Geometry (in Angstrom), charge = 0, multiplicity = 1:

       Center              X                  Y                   Z               Mass
    ------------   -----------------  -----------------  -----------------  -----------------
         O           -2.248741383915    -1.611376072906    -0.137210694878    15.994914619570
         O           -2.182891383915     0.004299927094     1.451169305122    15.994914619570
         O            2.588022616085    -1.215905072906    -0.555546694878    15.994914619570
         N           -1.455151383915     1.934183927094    -0.490264694878    14.003074004430
         N            3.360568616085     0.509586927094     0.713405305122    14.003074004430
         C            0.101269616085     0.087756927094    -0.981451694878    12.000000000000
         C           -1.362613383915     0.506716927094    -0.785663694878    12.000000000000
         C            0.972627616085     0.403800927094     0.229559305122    12.000000000000
         C           -1.982271383915    -0.355100072906     0.300814305122    12.000000000000
         C            2.368800616085    -0.174538072906     0.062113305122    12.000000000000
         H            0.162895616085    -0.981388072906    -1.201220694878     1.007825032230
         H            0.481888616085     0.629668927094    -1.852892694878     1.007825032230
         H           -1.898961383915     0.303823927094    -1.719195694878     1.007825032230
         H            1.022446616085     1.486611927094     0.388408305122     1.007825032230
         H            0.547490616085    -0.032758072906     1.143190305122     1.007825032230
         H           -1.294495383915     2.056193927094     0.510475305122     1.007825032230
         H           -2.416086383915     2.241937927094    -0.639337694878     1.007825032230
         H            3.292815416085     1.467313827094     1.024251005122     1.007825032230
         H            4.310350616085     0.198692927094     0.554770305122     1.007825032230
         H           -2.588091383915    -2.101921072906     0.640710305122     1.007825032230

  Basis Set: AUG-CC-PVTZ
    Blend: AUG-CC-PVTZ
  Basis Set: (AUG-CC-PVTZ AUX)
    Blend: AUG-CC-PVTZ-JKFIT
	 Reference Energy          =    -528.8909288465368945 [Eh]
	 Singles Energy            =      -0.0000000000000000 [Eh]
	 Same-Spin Energy          =      -0.5280377593553263 [Eh]
	 Opposite-Spin Energy      =      -1.6359676585029834 [Eh]
	 Correlation Energy        =      -2.1640054178583097 [Eh]
	 Total Energy              =    -531.0549342643952286 [Eh]

	 ================> DF-SCS-MP2 Energies <==================
	-----------------------------------------------------------
	 SCS Same-Spin Scale       =       0.3333333333333333 [-]
	 SCS Opposite-Spin Scale   =       1.2000000000000000 [-]
	 SCS Same-Spin Energy      =      -0.1760125864517754 [Eh]
	 SCS Opposite-Spin Energy  =      -1.9631611902035799 [Eh]
	 SCS Correlation Energy    =      -2.1391737766553556 [Eh]
	 SCS Total Energy          =    -531.0301026231923061 [Eh]
	-----------------------------------------------------------

  Dipole Moment: [D]
     X:    -0.3500      Y:     1.9446      Z:     0.8485     Total:     2.1503

*** Psi4 exiting successfully. Buy a developer a beer!
