                               Psi4 1.4a3.dev225

  ==> Input File <==

--------------------------------------------------------------------------
#psi4
#
memory 32 gb

molecule  {
0 1
  O       -2.2574700    -1.6449290    -0.1296770
  O       -2.1921770    -0.0290210     1.4584970
  O        2.5788390    -1.2486470    -0.5488970
  N       -1.4647530     1.9008340    -0.4830500
  N        3.3509580     0.4760520     0.7213670
  C        0.0918810     0.0546190    -0.9743850
  C       -1.3720140     0.4733420    -0.7784070
  C        0.9632520     0.3707540     0.2365710
  C       -1.9914170    -0.3885060     0.3082000
  C        2.3449679    -0.2175824     0.0597251
  H        0.1537030    -1.0145040    -1.1942090
  H        0.4723450     0.5966220    -1.8458350
  H       -1.9085090     0.2703120    -1.7118280
  H        1.0130710     1.4535820     0.3953090
  H        0.5380840    -0.0656780     1.1502640
  H       -1.3040640     2.0229100     0.5176770
  H       -2.4257360     2.2084470    -0.6320870
  H        3.2131660     1.4254870     1.0344650
  H        4.3007880     0.1652150     0.5629740
  H       -2.5967120    -2.1354700     0.6482930
units angstrom
no_reorient  #important for SAPT in psi4, default
symmetry c1  #important for SAPT in psi4, default
}

set PROPERTIES_ORIGIN ["COM"]
properties('MP2/aug-cc-pvtz', properties = ['dipole'])
--------------------------------------------------------------------------

    Molecular point group: c1
  Charge       = 0
  Multiplicity = 1
  Basis Set: AUG-CC-PVTZ
    Blend: AUG-CC-PVTZ
  Basis Set: (AUG-CC-PVTZ AUX)
    Blend: AUG-CC-PVTZ-JKFIT

    Orbital Energies [Eh]
    ---------------------

    Doubly Occupied:

       1A    -20.625667     2A    -20.562699     3A    -20.526003
       4A    -15.585569     5A    -15.558490     6A    -11.395747
       7A    -11.358213     8A    -11.286706     9A    -11.246873
      10A    -11.238593    11A     -1.469992    12A     -1.383870
      13A     -1.367311    14A     -1.208880    15A     -1.204319
      16A     -1.073111    17A     -0.985135    18A     -0.885967
      19A     -0.801525    20A     -0.775425    21A     -0.729752
      22A     -0.714444    23A     -0.706107    24A     -0.689788
      25A     -0.656571    26A     -0.652471    27A     -0.621145
      28A     -0.604491    29A     -0.596838    30A     -0.585239
      31A     -0.554319    32A     -0.523419    33A     -0.510072
      34A     -0.501385    35A     -0.486947    36A     -0.464831
      37A     -0.431555    38A     -0.420233    39A     -0.416067

  @DF-RHF Final Energy:  -528.89165340402849

   => Energetics <=

    Nuclear Repulsion Energy =            548.5196351735690996
    One-Electron Energy =               -1812.0110395060339670
    Two-Electron Energy =                 734.5997509284362650
    Total Energy =                       -528.8916534040284887
  Basis Set: (AUG-CC-PVTZ AUX)
    Blend: AUG-CC-PVTZ-RI
    Molecular point group: c1

    Geometry (in Angstrom), charge = 0, multiplicity = 1:

       Center              X                  Y                   Z               Mass
    ------------   -----------------  -----------------  -----------------  -----------------
         O           -2.246494533916    -1.610794594072    -0.136174148121    15.994914619570
         O           -2.181201533916     0.005113405928     1.451999851879    15.994914619570
         O            2.589814466084    -1.214512594072    -0.555394148121    15.994914619570
         N           -1.453777533916     1.934968405928    -0.489547148121    14.003074004430
         N            3.361933466084     0.510186405928     0.714869851879    14.003074004430
         C            0.102856466084     0.088753405928    -0.980882148121    12.000000000000
         C           -1.361038533916     0.507476405928    -0.784904148121    12.000000000000
         C            0.974227466084     0.404888405928     0.230073851879    12.000000000000
         C           -1.980441533916    -0.354371594072     0.301702851879    12.000000000000
         C            2.355943366084    -0.183447994072     0.053227951879    12.000000000000
         H            0.164678466084    -0.980369594072    -1.200706148121     1.007825032230
         H            0.483320466084     0.630756405928    -1.852332148121     1.007825032230
         H           -1.897533533916     0.304446405928    -1.718325148121     1.007825032230
         H            1.024046466084     1.487716405928     0.388811851879     1.007825032230
         H            0.549059466084    -0.031543594072     1.143766851879     1.007825032230
         H           -1.293088533916     2.057044405928     0.511179851879     1.007825032230
         H           -2.414760533916     2.242581405928    -0.638584148121     1.007825032230
         H            3.224141466084     1.459621405928     1.027967851879     1.007825032230
         H            4.311763466084     0.199349405928     0.556476851879     1.007825032230
         H           -2.585736533916    -2.101335594072     0.641795851879     1.007825032230

  Basis Set: AUG-CC-PVTZ
    Blend: AUG-CC-PVTZ
  Basis Set: (AUG-CC-PVTZ AUX)
    Blend: AUG-CC-PVTZ-JKFIT
	 Reference Energy          =    -528.8916534040284887 [Eh]
	 Singles Energy            =      -0.0000000000000000 [Eh]
	 Same-Spin Energy          =      -0.5279233699004267 [Eh]
	 Opposite-Spin Energy      =      -1.6357543959150400 [Eh]
	 Correlation Energy        =      -2.1636777658154669 [Eh]
	 Total Energy              =    -531.0553311698439529 [Eh]

	 ================> DF-SCS-MP2 Energies <==================
	-----------------------------------------------------------
	 SCS Same-Spin Scale       =       0.3333333333333333 [-]
	 SCS Opposite-Spin Scale   =       1.2000000000000000 [-]
	 SCS Same-Spin Energy      =      -0.1759744566334756 [Eh]
	 SCS Opposite-Spin Energy  =      -1.9629052750980480 [Eh]
	 SCS Correlation Energy    =      -2.1388797317315236 [Eh]
	 SCS Total Energy          =    -531.0305331357600380 [Eh]
	-----------------------------------------------------------

  Dipole Moment: [D]
     X:    -0.5279      Y:     1.8316      Z:     0.7761     Total:     2.0581

*** Psi4 exiting successfully. Buy a developer a beer!
