                               Psi4 1.3.2 release

  ==> Input File <==

--------------------------------------------------------------------------
#psi4
#
memory 32 gb

molecule  {
0 1
  O       -2.2580520    -1.6446380    -0.1299340
  O       -2.1922020    -0.0289620     1.4584460
  O        2.5787120    -1.2491670    -0.5482700
  N       -1.4644620     1.9009220    -0.4829880
  N        3.3672542     0.4606225     0.7123788
  C        0.0919590     0.0544950    -0.9741750
  C       -1.3719240     0.4734550    -0.7783870
  C        0.9633170     0.3705390     0.2368360
  C       -1.9915820    -0.3883620     0.3080910
  C        2.3594900    -0.2078000     0.0693900
  H        0.1535850    -1.0146500    -1.1939440
  H        0.4725780     0.5964070    -1.8456160
  H       -1.9082720     0.2705620    -1.7119190
  H        1.0131360     1.4533500     0.3956850
  H        0.5381800    -0.0660200     1.1504670
  H       -1.3038060     2.0229320     0.5177520
  H       -2.4253970     2.2086760    -0.6320610
  H        3.2135550     1.4259430     1.0332840
  H        4.3010400     0.1654310     0.5620470
  H       -2.5974020    -2.1351830     0.6479870
units angstrom
no_reorient  #important for SAPT in psi4, default
symmetry c1  #important for SAPT in psi4, default
}

set PROPERTIES_ORIGIN ["COM"]
properties('MP2/aug-cc-pvtz', properties = ['dipole'])
--------------------------------------------------------------------------

    Molecular point group: c1
  Charge       = 0
  Multiplicity = 1
  Basis Set: AUG-CC-PVTZ
    Blend: AUG-CC-PVTZ
  Basis Set: (AUG-CC-PVTZ AUX)
    Blend: AUG-CC-PVTZ-JKFIT

    Orbital Energies [Eh]
    ---------------------

    Doubly Occupied:

       1A    -20.625378     2A    -20.562456     3A    -20.521289
       4A    -15.588959     5A    -15.558281     6A    -11.395515
       7A    -11.357127     8A    -11.286556     9A    -11.247652
      10A    -11.238258    11A     -1.469721    12A     -1.376503
      13A     -1.367057    14A     -1.211374    15A     -1.207856
      16A     -1.072033    17A     -0.984442    18A     -0.886130
      19A     -0.803705    20A     -0.776726    21A     -0.729917
      22A     -0.714686    23A     -0.708130    24A     -0.691215
      25A     -0.656233    26A     -0.650896    27A     -0.620750
      28A     -0.604115    29A     -0.590989    30A     -0.585617
      31A     -0.554284    32A     -0.522330    33A     -0.509930
      34A     -0.501404    35A     -0.486709    36A     -0.464613
      37A     -0.428498    38A     -0.419810    39A     -0.415670

  @DF-RHF Final Energy:  -528.89107290144761

   => Energetics <=

    Nuclear Repulsion Energy =            548.3037858290362010
    One-Electron Energy =               -1811.6040855180242488
    Two-Electron Energy =                 734.4092267875405469
    Total Energy =                       -528.8910729014476146
  Basis Set: (AUG-CC-PVTZ AUX)
    Blend: AUG-CC-PVTZ-RI
    Molecular point group: c1

    Geometry (in Angstrom), charge = 0, multiplicity = 1:

       Center              X                  Y                   Z               Mass
    ------------   -----------------  -----------------  -----------------  -----------------
         O           -2.249792247983    -1.609814787486    -0.136426817605    15.994914619570
         O           -2.183942247983     0.005861212514     1.451953182395    15.994914619570
         O            2.586971752017    -1.214343787486    -0.554762817605    15.994914619570
         N           -1.456202247983     1.935745212514    -0.489480817605    14.003074004430
         N            3.375513952017     0.495445712514     0.705885982395    14.003074004430
         C            0.100218752017     0.089318212514    -0.980667817605    12.000000000000
         C           -1.363664247983     0.508278212514    -0.784879817605    12.000000000000
         C            0.971576752017     0.405362212514     0.230343182395    12.000000000000
         C           -1.983322247983    -0.353538787486     0.301598182395    12.000000000000
         C            2.367749752017    -0.172976787486     0.062897182395    12.000000000000
         H            0.161844752017    -0.979826787486    -1.200436817605     1.007825032230
         H            0.480837752017     0.631230212514    -1.852108817605     1.007825032230
         H           -1.900012247983     0.305385212514    -1.718411817605     1.007825032230
         H            1.021395752017     1.488173212514     0.389192182395     1.007825032230
         H            0.546439752017    -0.031196787486     1.143974182395     1.007825032230
         H           -1.295546247983     2.057755212514     0.511259182395     1.007825032230
         H           -2.417137247983     2.243499212514    -0.638553817605     1.007825032230
         H            3.221814752017     1.460766212514     1.026791182395     1.007825032230
         H            4.309299752017     0.200254212514     0.555554182395     1.007825032230
         H           -2.589142247983    -2.100359787486     0.641494182395     1.007825032230

  Basis Set: AUG-CC-PVTZ
    Blend: AUG-CC-PVTZ
  Basis Set: (AUG-CC-PVTZ AUX)
    Blend: AUG-CC-PVTZ-JKFIT
	 Reference Energy          =    -528.8910729014476146 [Eh]
	 Singles Energy            =      -0.0000000000000000 [Eh]
	 Same-Spin Energy          =      -0.5279820063009790 [Eh]
	 Opposite-Spin Energy      =      -1.6358158513222474 [Eh]
	 Correlation Energy        =      -2.1637978576232264 [Eh]
	 Total Energy              =    -531.0548707590708091 [Eh]

	 ================> DF-SCS-MP2 Energies <==================
	-----------------------------------------------------------
	 SCS Same-Spin Scale       =       0.3333333333333333 [-]
	 SCS Opposite-Spin Scale   =       1.2000000000000000 [-]
	 SCS Same-Spin Energy      =      -0.1759940021003263 [Eh]
	 SCS Opposite-Spin Energy  =      -1.9629790215866967 [Eh]
	 SCS Correlation Energy    =      -2.1389730236870230 [Eh]
	 SCS Total Energy          =    -531.0300459251346865 [Eh]
	-----------------------------------------------------------

  Dipole Moment: [D]
     X:    -0.4445      Y:     1.9453      Z:     0.8665     Total:     2.1755

*** Psi4 exiting successfully. Buy a developer a beer!
