                               Psi4 1.3.2 release

  ==> Input File <==

--------------------------------------------------------------------------
#psi4
#
memory 32 gb

molecule  {
0 1
  O       -2.2580520    -1.6446380    -0.1299340
  O       -2.1922020    -0.0289620     1.4584460
  O        2.5787120    -1.2491670    -0.5482700
  N       -1.4644620     1.9009220    -0.4829880
  N        3.3512580     0.4763250     0.7206820
  C        0.0919590     0.0544950    -0.9741750
  C       -1.3719240     0.4734550    -0.7783870
  C        0.9633170     0.3705390     0.2368360
  C       -1.9915820    -0.3883620     0.3080910
  C        2.3794308    -0.1590009     0.0755215
  H        0.1535850    -1.0146500    -1.1939440
  H        0.4725780     0.5964070    -1.8456160
  H       -1.9082720     0.2705620    -1.7119190
  H        1.0131360     1.4533500     0.3956850
  H        0.5381800    -0.0660200     1.1504670
  H       -1.3038060     2.0229320     0.5177520
  H       -2.4253970     2.2086760    -0.6320610
  H        3.2135550     1.4259430     1.0332840
  H        4.3010400     0.1654310     0.5620470
  H       -2.5974020    -2.1351830     0.6479870
units angstrom
no_reorient  #important for SAPT in psi4, default
symmetry c1  #important for SAPT in psi4, default
}

set PROPERTIES_ORIGIN ["COM"]
properties('MP2/aug-cc-pvtz', properties = ['dipole'])
--------------------------------------------------------------------------

    Molecular point group: c1
  Charge       = 0
  Multiplicity = 1
  Basis Set: AUG-CC-PVTZ
    Blend: AUG-CC-PVTZ
  Basis Set: (AUG-CC-PVTZ AUX)
    Blend: AUG-CC-PVTZ-JKFIT

    Orbital Energies [Eh]
    ---------------------

    Doubly Occupied:

       1A    -20.624590     2A    -20.561833     3A    -20.512969
       4A    -15.599405     5A    -15.557648     6A    -11.394862
       7A    -11.357331     8A    -11.285812     9A    -11.247686
      10A    -11.236992    11A     -1.468992    12A     -1.366400
      13A     -1.354213    14A     -1.225314    15A     -1.207478
      16A     -1.070465    17A     -0.983831    18A     -0.886602
      19A     -0.810109    20A     -0.781428    21A     -0.738248
      22A     -0.715221    23A     -0.709545    24A     -0.688592
      25A     -0.655638    26A     -0.646394    27A     -0.620081
      28A     -0.603519    29A     -0.586412    30A     -0.576162
      31A     -0.553692    32A     -0.519737    33A     -0.508699
      34A     -0.500540    35A     -0.485730    36A     -0.463911
      37A     -0.422058    38A     -0.418673    39A     -0.413334

  @DF-RHF Final Energy:  -528.88520033024088

   => Energetics <=

    Nuclear Repulsion Energy =            548.1306644592413022
    One-Electron Energy =               -1811.3114421725197190
    Two-Electron Energy =                 734.2955773830376529
    Total Energy =                       -528.8852003302408775
  Basis Set: (AUG-CC-PVTZ AUX)
    Blend: AUG-CC-PVTZ-RI
    Molecular point group: c1

    Geometry (in Angstrom), charge = 0, multiplicity = 1:

       Center              X                  Y                   Z               Mass
    ------------   -----------------  -----------------  -----------------  -----------------
         O           -2.249896949273    -1.615329110754    -0.137726533077    15.994914619570
         O           -2.184046949273     0.000346889246     1.450653466923    15.994914619570
         O            2.586867050727    -1.219858110754    -0.556062533077    15.994914619570
         N           -1.456306949273     1.930230889246    -0.490780533077    14.003074004430
         N            3.359413050727     0.505633889246     0.712889466923    14.003074004430
         C            0.100114050727     0.083803889246    -0.981967533077    12.000000000000
         C           -1.363768949273     0.502763889246    -0.786179533077    12.000000000000
         C            0.971472050727     0.399847889246     0.229043466923    12.000000000000
         C           -1.983426949273    -0.359053110754     0.300298466923    12.000000000000
         C            2.387585850727    -0.129692010754     0.067728966923    12.000000000000
         H            0.161740050727    -0.985341110754    -1.201736533077     1.007825032230
         H            0.480733050727     0.625715889246    -1.853408533077     1.007825032230
         H           -1.900116949273     0.299870889246    -1.719711533077     1.007825032230
         H            1.021291050727     1.482658889246     0.387892466923     1.007825032230
         H            0.546335050727    -0.036711110754     1.142674466923     1.007825032230
         H           -1.295650949273     2.052240889246     0.509959466923     1.007825032230
         H           -2.417241949273     2.237984889246    -0.639853533077     1.007825032230
         H            3.221710050727     1.455251889246     1.025491466923     1.007825032230
         H            4.309195050727     0.194739889246     0.554254466923     1.007825032230
         H           -2.589246949273    -2.105874110754     0.640194466923     1.007825032230

  Basis Set: AUG-CC-PVTZ
    Blend: AUG-CC-PVTZ
  Basis Set: (AUG-CC-PVTZ AUX)
    Blend: AUG-CC-PVTZ-JKFIT
	 Reference Energy          =    -528.8852003302408775 [Eh]
	 Singles Energy            =      -0.0000000000000000 [Eh]
	 Same-Spin Energy          =      -0.5288278950502883 [Eh]
	 Opposite-Spin Energy      =      -1.6373611848132088 [Eh]
	 Correlation Energy        =      -2.1661890798634973 [Eh]
	 Total Energy              =    -531.0513894101043206 [Eh]

	 ================> DF-SCS-MP2 Energies <==================
	-----------------------------------------------------------
	 SCS Same-Spin Scale       =       0.3333333333333333 [-]
	 SCS Opposite-Spin Scale   =       1.2000000000000000 [-]
	 SCS Same-Spin Energy      =      -0.1762759650167627 [Eh]
	 SCS Opposite-Spin Energy  =      -1.9648334217758505 [Eh]
	 SCS Correlation Energy    =      -2.1411093867926132 [Eh]
	 SCS Total Energy          =    -531.0263097170335413 [Eh]
	-----------------------------------------------------------

  Dipole Moment: [D]
     X:    -0.2209      Y:     2.2154      Z:     1.0618     Total:     2.4666

*** Psi4 exiting successfully. Buy a developer a beer!
