                               Psi4 1.4a3.dev225

  ==> Input File <==

--------------------------------------------------------------------------
#psi4
#
memory 32 gb

molecule  {
0 1
  O       -2.2574700    -1.6449290    -0.1296770
  O       -2.1921770    -0.0290210     1.4584970
  O        2.5788390    -1.2486470    -0.5488970
  N       -1.4647530     1.9008340    -0.4830500
  N        3.3509580     0.4760520     0.7213670
  C        0.0918810     0.0546190    -0.9743850
  C       -1.3720140     0.4733420    -0.7784070
  C        0.9632520     0.3707540     0.2365710
  C       -1.9914170    -0.3885060     0.3082000
  C        2.3630130    -0.2245204     0.0592006
  H        0.1537030    -1.0145040    -1.1942090
  H        0.4723450     0.5966220    -1.8458350
  H       -1.9085090     0.2703120    -1.7118280
  H        1.0130710     1.4535820     0.3953090
  H        0.5380840    -0.0656780     1.1502640
  H       -1.3040640     2.0229100     0.5176770
  H       -2.4257360     2.2084470    -0.6320870
  H        3.2131660     1.4254870     1.0344650
  H        4.3007880     0.1652150     0.5629740
  H       -2.5967120    -2.1354700     0.6482930
units angstrom
no_reorient  #important for SAPT in psi4, default
symmetry c1  #important for SAPT in psi4, default
}

set PROPERTIES_ORIGIN ["COM"]
properties('MP2/aug-cc-pvtz', properties = ['dipole'])
--------------------------------------------------------------------------

    Molecular point group: c1
  Charge       = 0
  Multiplicity = 1
  Basis Set: AUG-CC-PVTZ
    Blend: AUG-CC-PVTZ
  Basis Set: (AUG-CC-PVTZ AUX)
    Blend: AUG-CC-PVTZ-JKFIT

    Orbital Energies [Eh]
    ---------------------

    Doubly Occupied:

       1A    -20.625120     2A    -20.562028     3A    -20.526497
       4A    -15.586466     5A    -15.557782     6A    -11.395094
       7A    -11.356856     8A    -11.285940     9A    -11.245728
      10A    -11.237406    11A     -1.469398    12A     -1.389878
      13A     -1.366684    14A     -1.209800    15A     -1.206871
      16A     -1.070193    17A     -0.982293    18A     -0.883817
      19A     -0.801768    20A     -0.776338    21A     -0.730716
      22A     -0.713974    23A     -0.706092    24A     -0.688646
      25A     -0.655397    26A     -0.653442    27A     -0.620572
      28A     -0.604001    29A     -0.597245    30A     -0.584478
      31A     -0.556281    32A     -0.522781    33A     -0.510088
      34A     -0.500284    35A     -0.486378    36A     -0.464086
      37A     -0.430418    38A     -0.420940    39A     -0.416419

  @DF-RHF Final Energy:  -528.89255546204060

   => Energetics <=

    Nuclear Repulsion Energy =            548.4506743459637619
    One-Electron Energy =               -1811.8900675611773750
    Two-Electron Energy =                 734.5468377531730084
    Total Energy =                       -528.8925554620406047
  Basis Set: (AUG-CC-PVTZ AUX)
    Blend: AUG-CC-PVTZ-RI
    Molecular point group: c1

    Geometry (in Angstrom), charge = 0, multiplicity = 1:

       Center              X                  Y                   Z               Mass
    ------------   -----------------  -----------------  -----------------  -----------------
         O           -2.247976990764    -1.610224617424    -0.136131058938    15.994914619570
         O           -2.182683990764     0.005683382576     1.452042941062    15.994914619570
         O            2.588332009236    -1.213942617424    -0.555351058938    15.994914619570
         N           -1.455259990764     1.935538382576    -0.489504058938    14.003074004430
         N            3.360451009236     0.510756382576     0.714912941062    14.003074004430
         C            0.101374009236     0.089323382576    -0.980839058938    12.000000000000
         C           -1.362520990764     0.508046382576    -0.784861058938    12.000000000000
         C            0.972745009236     0.405458382576     0.230116941062    12.000000000000
         C           -1.981923990764    -0.353801617424     0.301745941062    12.000000000000
         C            2.372506009236    -0.189816017424     0.052746541062    12.000000000000
         H            0.163196009236    -0.979799617424    -1.200663058938     1.007825032230
         H            0.481838009236     0.631326382576    -1.852289058938     1.007825032230
         H           -1.899015990764     0.305016382576    -1.718282058938     1.007825032230
         H            1.022564009236     1.488286382576     0.388854941062     1.007825032230
         H            0.547577009236    -0.030973617424     1.143809941062     1.007825032230
         H           -1.294570990764     2.057614382576     0.511222941062     1.007825032230
         H           -2.416242990764     2.243151382576    -0.638541058938     1.007825032230
         H            3.222659009236     1.460191382576     1.028010941062     1.007825032230
         H            4.310281009236     0.199919382576     0.556519941062     1.007825032230
         H           -2.587218990764    -2.100765617424     0.641838941062     1.007825032230

  Basis Set: AUG-CC-PVTZ
    Blend: AUG-CC-PVTZ
  Basis Set: (AUG-CC-PVTZ AUX)
    Blend: AUG-CC-PVTZ-JKFIT
	 Reference Energy          =    -528.8925554620406047 [Eh]
	 Singles Energy            =      -0.0000000000000000 [Eh]
	 Same-Spin Energy          =      -0.5276333670313197 [Eh]
	 Opposite-Spin Energy      =      -1.6351332766049480 [Eh]
	 Correlation Energy        =      -2.1627666436362678 [Eh]
	 Total Energy              =    -531.0553221056768507 [Eh]

	 ================> DF-SCS-MP2 Energies <==================
	-----------------------------------------------------------
	 SCS Same-Spin Scale       =       0.3333333333333333 [-]
	 SCS Opposite-Spin Scale   =       1.2000000000000000 [-]
	 SCS Same-Spin Energy      =      -0.1758777890104399 [Eh]
	 SCS Opposite-Spin Energy  =      -1.9621599319259375 [Eh]
	 SCS Correlation Energy    =      -2.1380377209363775 [Eh]
	 SCS Total Energy          =    -531.0305931829769861 [Eh]
	-----------------------------------------------------------

  Dipole Moment: [D]
     X:    -0.4095      Y:     1.8130      Z:     0.7836     Total:     2.0171

*** Psi4 exiting successfully. Buy a developer a beer!
