                               Psi4 1.3.2 release

  ==> Input File <==

--------------------------------------------------------------------------
#psi4
#
memory 32 gb

molecule  {
0 1
  O       -2.2580520    -1.6446380    -0.1299340
  O       -2.1922020    -0.0289620     1.4584460
  O        2.5787120    -1.2491670    -0.5482700
  N       -1.4644620     1.9009220    -0.4829880
  N        3.3512580     0.4763250     0.7206820
  C        0.0919590     0.0544950    -0.9741750
  C       -1.3719240     0.4734550    -0.7783870
  C        0.9633170     0.3705390     0.2368360
  C       -1.9915820    -0.3883620     0.3080910
  C        2.3594900    -0.2078000     0.0693900
  H        0.1535850    -1.0146500    -1.1939440
  H        0.4725780     0.5964070    -1.8456160
  H       -1.9082720     0.2705620    -1.7119190
  H        1.0131360     1.4533500     0.3956850
  H        0.5381800    -0.0660200     1.1504670
  H       -1.3038060     2.0229320     0.5177520
  H       -2.4253970     2.2086760    -0.6320610
  H        3.1442760     1.4132076     1.0335173
  H        4.3010400     0.1654310     0.5620470
  H       -2.5974020    -2.1351830     0.6479870
units angstrom
no_reorient  #important for SAPT in psi4, default
symmetry c1  #important for SAPT in psi4, default
}

set PROPERTIES_ORIGIN ["COM"]
properties('MP2/aug-cc-pvtz', properties = ['dipole'])
--------------------------------------------------------------------------

    Molecular point group: c1
  Charge       = 0
  Multiplicity = 1
  Basis Set: AUG-CC-PVTZ
    Blend: AUG-CC-PVTZ
  Basis Set: (AUG-CC-PVTZ AUX)
    Blend: AUG-CC-PVTZ-JKFIT

    Orbital Energies [Eh]
    ---------------------

    Doubly Occupied:

       1A    -20.625369     2A    -20.562440     3A    -20.521791
       4A    -15.589736     5A    -15.558282     6A    -11.395493
       7A    -11.356227     8A    -11.286467     9A    -11.247199
      10A    -11.238128    11A     -1.469709    12A     -1.376255
      13A     -1.367045    14A     -1.213381    15A     -1.207922
      16A     -1.071661    17A     -0.983993    18A     -0.885229
      19A     -0.801527    20A     -0.775821    21A     -0.734521
      22A     -0.715140    23A     -0.708937    24A     -0.690280
      25A     -0.656207    26A     -0.650268    27A     -0.620753
      28A     -0.604192    29A     -0.591975    30A     -0.585470
      31A     -0.554355    32A     -0.522281    33A     -0.509829
      34A     -0.501274    35A     -0.486673    36A     -0.464564
      37A     -0.428145    38A     -0.420074    39A     -0.416130

  @DF-RHF Final Energy:  -528.89124491355869

   => Energetics <=

    Nuclear Repulsion Energy =            548.5164988668286696
    One-Electron Energy =               -1812.0260003863068050
    Two-Electron Energy =                 734.6182566059194414
    Total Energy =                       -528.8912449135586940
  Basis Set: (AUG-CC-PVTZ AUX)
    Blend: AUG-CC-PVTZ-RI
    Molecular point group: c1

    Geometry (in Angstrom), charge = 0, multiplicity = 1:

       Center              X                  Y                   Z               Mass
    ------------   -----------------  -----------------  -----------------  -----------------
         O           -2.247780754807    -1.611232254663    -0.137224422409    15.994914619570
         O           -2.181930754807     0.004443745337     1.451155577591    15.994914619570
         O            2.588983245193    -1.215761254663    -0.555560422409    15.994914619570
         N           -1.454190754807     1.934327745337    -0.490278422409    14.003074004430
         N            3.361529245193     0.509730745337     0.713391577591    14.003074004430
         C            0.102230245193     0.087900745337    -0.981465422409    12.000000000000
         C           -1.361652754807     0.506860745337    -0.785677422409    12.000000000000
         C            0.973588245193     0.403944745337     0.229545577591    12.000000000000
         C           -1.981310754807    -0.354956254663     0.300800577591    12.000000000000
         C            2.369761245193    -0.174394254663     0.062099577591    12.000000000000
         H            0.163856245193    -0.981244254663    -1.201234422409     1.007825032230
         H            0.482849245193     0.629812745337    -1.852906422409     1.007825032230
         H           -1.898000754807     0.303967745337    -1.719209422409     1.007825032230
         H            1.023407245193     1.486755745337     0.388394577591     1.007825032230
         H            0.548451245193    -0.032614254663     1.143176577591     1.007825032230
         H           -1.293534754807     2.056337745337     0.510461577591     1.007825032230
         H           -2.415125754807     2.242081745337    -0.639351422409     1.007825032230
         H            3.154547245193     1.446613345337     1.026226877591     1.007825032230
         H            4.311311245193     0.198836745337     0.554756577591     1.007825032230
         H           -2.587130754807    -2.101777254663     0.640696577591     1.007825032230

  Basis Set: AUG-CC-PVTZ
    Blend: AUG-CC-PVTZ
  Basis Set: (AUG-CC-PVTZ AUX)
    Blend: AUG-CC-PVTZ-JKFIT
	 Reference Energy          =    -528.8912449135586940 [Eh]
	 Singles Energy            =      -0.0000000000000000 [Eh]
	 Same-Spin Energy          =      -0.5281235600769578 [Eh]
	 Opposite-Spin Energy      =      -1.6359723494688803 [Eh]
	 Correlation Energy        =      -2.1640959095458383 [Eh]
	 Total Energy              =    -531.0553408231045296 [Eh]

	 ================> DF-SCS-MP2 Energies <==================
	-----------------------------------------------------------
	 SCS Same-Spin Scale       =       0.3333333333333333 [-]
	 SCS Opposite-Spin Scale   =       1.2000000000000000 [-]
	 SCS Same-Spin Energy      =      -0.1760411866923193 [Eh]
	 SCS Opposite-Spin Energy  =      -1.9631668193626561 [Eh]
	 SCS Correlation Energy    =      -2.1392080060549752 [Eh]
	 SCS Total Energy          =    -531.0304529196137082 [Eh]
	-----------------------------------------------------------

  Dipole Moment: [D]
     X:    -0.4592      Y:     1.9115      Z:     0.8678     Total:     2.1489

*** Psi4 exiting successfully. Buy a developer a beer!
