                               Psi4 1.3.2 release

  ==> Input File <==

--------------------------------------------------------------------------
#psi4
#
memory 32 gb

molecule  {
0 1
  O       -2.2580520    -1.6446380    -0.1299340
  O       -2.1922020    -0.0289620     1.4584460
  O        2.7019531    -1.2360344    -0.5132423
  N       -1.4644620     1.9009220    -0.4829880
  N        3.3512580     0.4763250     0.7206820
  C        0.0919590     0.0544950    -0.9741750
  C       -1.3719240     0.4734550    -0.7783870
  C        0.9633170     0.3705390     0.2368360
  C       -1.9915820    -0.3883620     0.3080910
  C        2.3594900    -0.2078000     0.0693900
  H        0.1535850    -1.0146500    -1.1939440
  H        0.4725780     0.5964070    -1.8456160
  H       -1.9082720     0.2705620    -1.7119190
  H        1.0131360     1.4533500     0.3956850
  H        0.5381800    -0.0660200     1.1504670
  H       -1.3038060     2.0229320     0.5177520
  H       -2.4253970     2.2086760    -0.6320610
  H        3.2135550     1.4259430     1.0332840
  H        4.3010400     0.1654310     0.5620470
  H       -2.5974020    -2.1351830     0.6479870
units angstrom
no_reorient  #important for SAPT in psi4, default
symmetry c1  #important for SAPT in psi4, default
}

set PROPERTIES_ORIGIN ["COM"]
properties('MP2/aug-cc-pvtz', properties = ['dipole'])
--------------------------------------------------------------------------

    Molecular point group: c1
  Charge       = 0
  Multiplicity = 1
  Basis Set: AUG-CC-PVTZ
    Blend: AUG-CC-PVTZ
  Basis Set: (AUG-CC-PVTZ AUX)
    Blend: AUG-CC-PVTZ-JKFIT

    Orbital Energies [Eh]
    ---------------------

    Doubly Occupied:

       1A    -20.627185     2A    -20.564376     3A    -20.520353
       4A    -15.581935     5A    -15.560387     6A    -11.397453
       7A    -11.356730     8A    -11.289013     9A    -11.252611
      10A    -11.242021    11A     -1.471574    12A     -1.377672
      13A     -1.368916    14A     -1.210744    15A     -1.202963
      16A     -1.075938    17A     -0.987162    18A     -0.887876
      19A     -0.803090    20A     -0.778039    21A     -0.731043
      22A     -0.716005    23A     -0.707635    24A     -0.689584
      25A     -0.658246    26A     -0.649853    27A     -0.622422
      28A     -0.605674    29A     -0.591775    30A     -0.587245
      31A     -0.555554    32A     -0.525696    33A     -0.512434
      34A     -0.504313    35A     -0.489007    36A     -0.466666
      37A     -0.429311    38A     -0.420979    39A     -0.411076

  @DF-RHF Final Energy:  -528.88887946764328

   => Energetics <=

    Nuclear Repulsion Energy =            547.4089024857545382
    One-Electron Energy =               -1809.7344499793200612
    Two-Electron Energy =                 733.4366680259221312
    Total Energy =                       -528.8888794676432781
  Basis Set: (AUG-CC-PVTZ AUX)
    Blend: AUG-CC-PVTZ-RI
    Molecular point group: c1

    Geometry (in Angstrom), charge = 0, multiplicity = 1:

       Center              X                  Y                   Z               Mass
    ------------   -----------------  -----------------  -----------------  -----------------
         O           -2.261753945530    -1.612758174972    -0.141058428257    15.994914619570
         O           -2.195903945530     0.002917825028     1.447321571743    15.994914619570
         O            2.698251154470    -1.204154574972    -0.524366728257    15.994914619570
         N           -1.468163945530     1.932801825028    -0.494112428257    14.003074004430
         N            3.347556054470     0.508204825028     0.709557571743    14.003074004430
         C            0.088257054470     0.086374825028    -0.985299428257    12.000000000000
         C           -1.375625945530     0.505334825028    -0.789511428257    12.000000000000
         C            0.959615054470     0.402418825028     0.225711571743    12.000000000000
         C           -1.995283945530    -0.356482174972     0.296966571743    12.000000000000
         C            2.355788054470    -0.175920174972     0.058265571743    12.000000000000
         H            0.149883054470    -0.982770174972    -1.205068428257     1.007825032230
         H            0.468876054470     0.628286825028    -1.856740428257     1.007825032230
         H           -1.911973945530     0.302441825028    -1.723043428257     1.007825032230
         H            1.009434054470     1.485229825028     0.384560571743     1.007825032230
         H            0.534478054470    -0.034140174972     1.139342571743     1.007825032230
         H           -1.307507945530     2.054811825028     0.506627571743     1.007825032230
         H           -2.429098945530     2.240555825028    -0.643185428257     1.007825032230
         H            3.209853054470     1.457822825028     1.022159571743     1.007825032230
         H            4.297338054470     0.197310825028     0.550922571743     1.007825032230
         H           -2.601103945530    -2.103303174972     0.636862571743     1.007825032230

  Basis Set: AUG-CC-PVTZ
    Blend: AUG-CC-PVTZ
  Basis Set: (AUG-CC-PVTZ AUX)
    Blend: AUG-CC-PVTZ-JKFIT
	 Reference Energy          =    -528.8888794676432781 [Eh]
	 Singles Energy            =      -0.0000000000000000 [Eh]
	 Same-Spin Energy          =      -0.5279913400014979 [Eh]
	 Opposite-Spin Energy      =      -1.6359071715468998 [Eh]
	 Correlation Energy        =      -2.1638985115483980 [Eh]
	 Total Energy              =    -531.0527779791916601 [Eh]

	 ================> DF-SCS-MP2 Energies <==================
	-----------------------------------------------------------
	 SCS Same-Spin Scale       =       0.3333333333333333 [-]
	 SCS Opposite-Spin Scale   =       1.2000000000000000 [-]
	 SCS Same-Spin Energy      =      -0.1759971133338326 [Eh]
	 SCS Opposite-Spin Energy  =      -1.9630886058562798 [Eh]
	 SCS Correlation Energy    =      -2.1390857191901125 [Eh]
	 SCS Total Energy          =    -531.0279651868333985 [Eh]
	-----------------------------------------------------------

  Dipole Moment: [D]
     X:    -0.8401      Y:     1.9330      Z:     0.7720     Total:     2.2446

*** Psi4 exiting successfully. Buy a developer a beer!
