                               Psi4 1.3.2 release

  ==> Input File <==

--------------------------------------------------------------------------
#psi4
#
memory 32 gb

molecule  {
0 1
  O       -2.2580520    -1.6446380    -0.1299340
  O       -2.1922020    -0.0289620     1.4584460
  O        2.4518372    -1.2552859    -0.5695566
  N       -1.4644620     1.9009220    -0.4829880
  N        3.3512580     0.4763250     0.7206820
  C        0.0919590     0.0544950    -0.9741750
  C       -1.3719240     0.4734550    -0.7783870
  C        0.9633170     0.3705390     0.2368360
  C       -1.9915820    -0.3883620     0.3080910
  C        2.3594900    -0.2078000     0.0693900
  H        0.1535850    -1.0146500    -1.1939440
  H        0.4725780     0.5964070    -1.8456160
  H       -1.9082720     0.2705620    -1.7119190
  H        1.0131360     1.4533500     0.3956850
  H        0.5381800    -0.0660200     1.1504670
  H       -1.3038060     2.0229320     0.5177520
  H       -2.4253970     2.2086760    -0.6320610
  H        3.2135550     1.4259430     1.0332840
  H        4.3010400     0.1654310     0.5620470
  H       -2.5974020    -2.1351830     0.6479870
units angstrom
no_reorient  #important for SAPT in psi4, default
symmetry c1  #important for SAPT in psi4, default
}

set PROPERTIES_ORIGIN ["COM"]
properties('MP2/aug-cc-pvtz', properties = ['dipole'])
--------------------------------------------------------------------------

    Molecular point group: c1
  Charge       = 0
  Multiplicity = 1
  Basis Set: AUG-CC-PVTZ
    Blend: AUG-CC-PVTZ
  Basis Set: (AUG-CC-PVTZ AUX)
    Blend: AUG-CC-PVTZ-JKFIT

    Orbital Energies [Eh]
    ---------------------

    Doubly Occupied:

       1A    -20.623120     2A    -20.559969     3A    -20.524211
       4A    -15.596951     5A    -15.555509     6A    -11.393001
       7A    -11.358696     8A    -11.283246     9A    -11.240550
      10A    -11.233272    11A     -1.467371    12A     -1.377019
      13A     -1.364669    14A     -1.220748    15A     -1.205129
      16A     -1.066495    17A     -0.980304    18A     -0.883127
      19A     -0.804383    20A     -0.776656    21A     -0.733263
      22A     -0.712749    23A     -0.706202    24A     -0.688721
      25A     -0.653700    26A     -0.651795    27A     -0.618667
      28A     -0.602226    29A     -0.592196    30A     -0.582525
      31A     -0.553177    32A     -0.518097    33A     -0.506497
      34A     -0.496781    35A     -0.483618    36A     -0.461917
      37A     -0.428308    38A     -0.421935    39A     -0.415499

  @DF-RHF Final Energy:  -528.88793503241516

   => Energetics <=

    Nuclear Repulsion Energy =            549.5993885234247500
    One-Electron Energy =               -1814.2900524957665311
    Two-Electron Energy =                 735.8027289399266238
    Total Energy =                       -528.8879350324151574
  Basis Set: (AUG-CC-PVTZ AUX)
    Blend: AUG-CC-PVTZ-RI
    Molecular point group: c1

    Geometry (in Angstrom), charge = 0, multiplicity = 1:

       Center              X                  Y                   Z               Mass
    ------------   -----------------  -----------------  -----------------  -----------------
         O           -2.234365666215    -1.610650090444    -0.134891879957    15.994914619570
         O           -2.168515666215     0.005025909556     1.453488120043    15.994914619570
         O            2.475523533785    -1.221297990444    -0.574514479957    15.994914619570
         N           -1.440775666215     1.934909909556    -0.487945879957    14.003074004430
         N            3.374944333785     0.510312909556     0.715724120043    14.003074004430
         C            0.115645333785     0.088482909556    -0.979132879957    12.000000000000
         C           -1.348237666215     0.507442909556    -0.783344879957    12.000000000000
         C            0.987003333785     0.404526909556     0.231878120043    12.000000000000
         C           -1.967895666215    -0.354374090444     0.303133120043    12.000000000000
         C            2.383176333785    -0.173812090444     0.064432120043    12.000000000000
         H            0.177271333785    -0.980662090444    -1.198901879957     1.007825032230
         H            0.496264333785     0.630394909556    -1.850573879957     1.007825032230
         H           -1.884585666215     0.304549909556    -1.716876879957     1.007825032230
         H            1.036822333785     1.487337909556     0.390727120043     1.007825032230
         H            0.561866333785    -0.032032090444     1.145509120043     1.007825032230
         H           -1.280119666215     2.056919909556     0.512794120043     1.007825032230
         H           -2.401710666215     2.242663909556    -0.637018879957     1.007825032230
         H            3.237241333785     1.459930909556     1.028326120043     1.007825032230
         H            4.324726333785     0.199418909556     0.557089120043     1.007825032230
         H           -2.573715666215    -2.101195090444     0.643029120043     1.007825032230

  Basis Set: AUG-CC-PVTZ
    Blend: AUG-CC-PVTZ
  Basis Set: (AUG-CC-PVTZ AUX)
    Blend: AUG-CC-PVTZ-JKFIT
	 Reference Energy          =    -528.8879350324151574 [Eh]
	 Singles Energy            =      -0.0000000000000000 [Eh]
	 Same-Spin Energy          =      -0.5283564492418922 [Eh]
	 Opposite-Spin Energy      =      -1.6364345552051458 [Eh]
	 Correlation Energy        =      -2.1647910044470380 [Eh]
	 Total Energy              =    -531.0527260368621683 [Eh]

	 ================> DF-SCS-MP2 Energies <==================
	-----------------------------------------------------------
	 SCS Same-Spin Scale       =       0.3333333333333333 [-]
	 SCS Opposite-Spin Scale   =       1.2000000000000000 [-]
	 SCS Same-Spin Energy      =      -0.1761188164139640 [Eh]
	 SCS Opposite-Spin Energy  =      -1.9637214662461748 [Eh]
	 SCS Correlation Energy    =      -2.1398402826601388 [Eh]
	 SCS Total Energy          =    -531.0277753150752460 [Eh]
	-----------------------------------------------------------

  Dipole Moment: [D]
     X:     0.0418      Y:     1.8987      Z:     0.9162     Total:     2.1086

*** Psi4 exiting successfully. Buy a developer a beer!
