                               Psi4 1.3.2 release

  ==> Input File <==

--------------------------------------------------------------------------
#psi4
#
memory 32 gb

molecule  {
0 1
  O       -2.2580520    -1.6446380    -0.1299340
  O       -2.1922020    -0.0289620     1.4584460
  O        2.5787120    -1.2491670    -0.5482700
  N       -1.4644620     1.9009220    -0.4829880
  N        3.3512580     0.4763250     0.7206820
  C        0.0919590     0.0544950    -0.9741750
  C       -1.3719240     0.4734550    -0.7783870
  C        0.9633170     0.3705390     0.2368360
  C       -1.9915820    -0.3883620     0.3080910
  C        2.3594900    -0.2078000     0.0693900
  H        0.1535850    -1.0146500    -1.1939440
  H        0.4725780     0.5964070    -1.8456160
  H       -1.9082720     0.2705620    -1.7119190
  H        1.0131360     1.4533500     0.3956850
  H        0.5381800    -0.0660200     1.1504670
  H       -1.3038060     2.0229320     0.5177520
  H       -2.4253970     2.2086760    -0.6320610
  H        3.2272000     1.3318456     1.0023083
  H        4.3010400     0.1654310     0.5620470
  H       -2.5974020    -2.1351830     0.6479870
units angstrom
no_reorient  #important for SAPT in psi4, default
symmetry c1  #important for SAPT in psi4, default
}

set PROPERTIES_ORIGIN ["COM"]
properties('MP2/aug-cc-pvtz', properties = ['dipole'])
--------------------------------------------------------------------------

    Molecular point group: c1
  Charge       = 0
  Multiplicity = 1
  Basis Set: AUG-CC-PVTZ
    Blend: AUG-CC-PVTZ
  Basis Set: (AUG-CC-PVTZ AUX)
    Blend: AUG-CC-PVTZ-JKFIT

    Orbital Energies [Eh]
    ---------------------

    Doubly Occupied:

       1A    -20.625343     2A    -20.562383     3A    -20.522956
       4A    -15.579758     5A    -15.558136     6A    -11.395438
       7A    -11.358003     8A    -11.286422     9A    -11.247162
      10A    -11.238139    11A     -1.469672    12A     -1.377857
      13A     -1.366995    14A     -1.228519    15A     -1.208030
      16A     -1.072126    17A     -0.984657    18A     -0.886982
      19A     -0.811594    20A     -0.784331    21A     -0.744324
      22A     -0.715540    23A     -0.709721    24A     -0.690112
      25A     -0.656238    26A     -0.651915    27A     -0.620793
      28A     -0.604308    29A     -0.594901    30A     -0.585394
      31A     -0.555013    32A     -0.522533    33A     -0.510009
      34A     -0.501273    35A     -0.486673    36A     -0.464517
      37A     -0.430043    38A     -0.420946    39A     -0.417166

  @DF-RHF Final Energy:  -528.88473209868755

   => Energetics <=

    Nuclear Repulsion Energy =            548.9375766728391000
    One-Electron Energy =               -1812.7527707204740182
    Two-Electron Energy =                 734.9304619489474817
    Total Energy =                       -528.8847320986875502
  Basis Set: (AUG-CC-PVTZ AUX)
    Blend: AUG-CC-PVTZ-RI
    Molecular point group: c1

    Geometry (in Angstrom), charge = 0, multiplicity = 1:

       Center              X                  Y                   Z               Mass
    ------------   -----------------  -----------------  -----------------  -----------------
         O           -2.248352900858    -1.610670885855    -0.137009091430    15.994914619570
         O           -2.182502900858     0.005005114145     1.451370908570    15.994914619570
         O            2.588411099142    -1.215199885855    -0.555345091430    15.994914619570
         N           -1.454762900858     1.934889114145    -0.490063091430    14.003074004430
         N            3.360957099142     0.510292114145     0.713606908570    14.003074004430
         C            0.101658099142     0.088462114145    -0.981250091430    12.000000000000
         C           -1.362224900858     0.507422114145    -0.785462091430    12.000000000000
         C            0.973016099142     0.404506114145     0.229760908570    12.000000000000
         C           -1.981882900858    -0.354394885855     0.301015908570    12.000000000000
         C            2.369189099142    -0.173832885855     0.062314908570    12.000000000000
         H            0.163284099142    -0.980682885855    -1.201019091430     1.007825032230
         H            0.482277099142     0.630374114145    -1.852691091430     1.007825032230
         H           -1.898572900858     0.304529114145    -1.718994091430     1.007825032230
         H            1.022835099142     1.487317114145     0.388609908570     1.007825032230
         H            0.547879099142    -0.032052885855     1.143391908570     1.007825032230
         H           -1.294106900858     2.056899114145     0.510676908570     1.007825032230
         H           -2.415697900858     2.242643114145    -0.639136091430     1.007825032230
         H            3.236899099142     1.365812714145     0.995233208570     1.007825032230
         H            4.310739099142     0.199398114145     0.554971908570     1.007825032230
         H           -2.587702900858    -2.101215885855     0.640911908570     1.007825032230

  Basis Set: AUG-CC-PVTZ
    Blend: AUG-CC-PVTZ
  Basis Set: (AUG-CC-PVTZ AUX)
    Blend: AUG-CC-PVTZ-JKFIT
	 Reference Energy          =    -528.8847320986875502 [Eh]
	 Singles Energy            =      -0.0000000000000000 [Eh]
	 Same-Spin Energy          =      -0.5274531841048287 [Eh]
	 Opposite-Spin Energy      =      -1.6344257167416114 [Eh]
	 Correlation Energy        =      -2.1618789008464399 [Eh]
	 Total Energy              =    -531.0466109995339821 [Eh]

	 ================> DF-SCS-MP2 Energies <==================
	-----------------------------------------------------------
	 SCS Same-Spin Scale       =       0.3333333333333333 [-]
	 SCS Opposite-Spin Scale   =       1.2000000000000000 [-]
	 SCS Same-Spin Energy      =      -0.1758177280349429 [Eh]
	 SCS Opposite-Spin Energy  =      -1.9613108600899336 [Eh]
	 SCS Correlation Energy    =      -2.1371285881248765 [Eh]
	 SCS Total Energy          =    -531.0218606868123743 [Eh]
	-----------------------------------------------------------

  Dipole Moment: [D]
     X:    -0.4073      Y:     1.8520      Z:     0.8280     Total:     2.0692

*** Psi4 exiting successfully. Buy a developer a beer!
