                               Psi4 1.3.2 release

  ==> Input File <==

--------------------------------------------------------------------------
#psi4
#
memory 32 gb

molecule  {
0 1
  O       -2.2580520    -1.6446380    -0.1299340
  O       -2.1922020    -0.0289620     1.4584460
  O        2.5576957    -1.2509825    -0.5522949
  N       -1.4644620     1.9009220    -0.4829880
  N        3.3512580     0.4763250     0.7206820
  C        0.0919590     0.0544950    -0.9741750
  C       -1.3719240     0.4734550    -0.7783870
  C        0.9633170     0.3705390     0.2368360
  C       -1.9915820    -0.3883620     0.3080910
  C        2.3594900    -0.2078000     0.0693900
  H        0.1535850    -1.0146500    -1.1939440
  H        0.4725780     0.5964070    -1.8456160
  H       -1.9082720     0.2705620    -1.7119190
  H        1.0131360     1.4533500     0.3956850
  H        0.5381800    -0.0660200     1.1504670
  H       -1.3038060     2.0229320     0.5177520
  H       -2.4253970     2.2086760    -0.6320610
  H        3.2135550     1.4259430     1.0332840
  H        4.3010400     0.1654310     0.5620470
  H       -2.5974020    -2.1351830     0.6479870
units angstrom
no_reorient  #important for SAPT in psi4, default
symmetry c1  #important for SAPT in psi4, default
}

set PROPERTIES_ORIGIN ["COM"]
properties('MP2/aug-cc-pvtz', properties = ['dipole'])
--------------------------------------------------------------------------

    Molecular point group: c1
  Charge       = 0
  Multiplicity = 1
  Basis Set: AUG-CC-PVTZ
    Blend: AUG-CC-PVTZ
  Basis Set: (AUG-CC-PVTZ AUX)
    Blend: AUG-CC-PVTZ-JKFIT

    Orbital Energies [Eh]
    ---------------------

    Doubly Occupied:

       1A    -20.624850     2A    -20.561858     3A    -20.522911
       4A    -15.590868     5A    -15.557626     6A    -11.394910
       7A    -11.357757     8A    -11.285746     9A    -11.245609
      10A    -11.237057    11A     -1.469165    12A     -1.376676
      13A     -1.366486    14A     -1.214044    15A     -1.207298
      16A     -1.070600    17A     -0.983280    18A     -0.885062
      19A     -0.803598    20A     -0.777468    21A     -0.732142
      22A     -0.714083    23A     -0.706991    24A     -0.689364
      25A     -0.655423    26A     -0.651195    27A     -0.620223
      28A     -0.603632    29A     -0.591782    30A     -0.584722
      31A     -0.554134    32A     -0.521421    33A     -0.509072
      34A     -0.500107    35A     -0.485983    36A     -0.463938
      37A     -0.428877    38A     -0.420263    39A     -0.416497

  @DF-RHF Final Energy:  -528.89151677639336

   => Energetics <=

    Nuclear Repulsion Energy =            548.5674132119324895
    One-Electron Energy =               -1812.1524236677319095
    Two-Electron Energy =                 734.6934936794060604
    Total Energy =                       -528.8915167763933596
  Basis Set: (AUG-CC-PVTZ AUX)
    Blend: AUG-CC-PVTZ-RI
    Molecular point group: c1

    Geometry (in Angstrom), charge = 0, multiplicity = 1:

       Center              X                  Y                   Z               Mass
    ------------   -----------------  -----------------  -----------------  -----------------
         O           -2.245957420941    -1.611121322865    -0.136782076706    15.994914619570
         O           -2.180107420941     0.004554677135     1.451597923294    15.994914619570
         O            2.569790279059    -1.217465822865    -0.559142976706    15.994914619570
         N           -1.452367420941     1.934438677135    -0.489836076706    14.003074004430
         N            3.363352579059     0.509841677135     0.713833923294    14.003074004430
         C            0.104053579059     0.088011677135    -0.981023076706    12.000000000000
         C           -1.359829420941     0.506971677135    -0.785235076706    12.000000000000
         C            0.975411579059     0.404055677135     0.229987923294    12.000000000000
         C           -1.979487420941    -0.354845322865     0.301242923294    12.000000000000
         C            2.371584579059    -0.174283322865     0.062541923294    12.000000000000
         H            0.165679579059    -0.981133322865    -1.200792076706     1.007825032230
         H            0.484672579059     0.629923677135    -1.852464076706     1.007825032230
         H           -1.896177420941     0.304078677135    -1.718767076706     1.007825032230
         H            1.025230579059     1.486866677135     0.388836923294     1.007825032230
         H            0.550274579059    -0.032503322865     1.143618923294     1.007825032230
         H           -1.291711420941     2.056448677135     0.510903923294     1.007825032230
         H           -2.413302420941     2.242192677135    -0.638909076706     1.007825032230
         H            3.225649579059     1.459459677135     1.026435923294     1.007825032230
         H            4.313134579059     0.198947677135     0.555198923294     1.007825032230
         H           -2.585307420941    -2.101666322865     0.641138923294     1.007825032230

  Basis Set: AUG-CC-PVTZ
    Blend: AUG-CC-PVTZ
  Basis Set: (AUG-CC-PVTZ AUX)
    Blend: AUG-CC-PVTZ-JKFIT
	 Reference Energy          =    -528.8915167763933596 [Eh]
	 Singles Energy            =      -0.0000000000000000 [Eh]
	 Same-Spin Energy          =      -0.5280833144948093 [Eh]
	 Opposite-Spin Energy      =      -1.6359711237522769 [Eh]
	 Correlation Energy        =      -2.1640544382470863 [Eh]
	 Total Energy              =    -531.0555712146403948 [Eh]

	 ================> DF-SCS-MP2 Energies <==================
	-----------------------------------------------------------
	 SCS Same-Spin Scale       =       0.3333333333333333 [-]
	 SCS Opposite-Spin Scale   =       1.2000000000000000 [-]
	 SCS Same-Spin Energy      =      -0.1760277714982698 [Eh]
	 SCS Opposite-Spin Energy  =      -1.9631653485027323 [Eh]
	 SCS Correlation Energy    =      -2.1391931200010021 [Eh]
	 SCS Total Energy          =    -531.0307098963943417 [Eh]
	-----------------------------------------------------------

  Dipole Moment: [D]
     X:    -0.3306      Y:     1.9282      Z:     0.8705     Total:     2.1413

*** Psi4 exiting successfully. Buy a developer a beer!
