                               Psi4 1.3.2 release

  ==> Input File <==

--------------------------------------------------------------------------
#psi4
#
memory 32 gb

molecule  {
0 1
  O       -2.2580520    -1.6446380    -0.1299340
  O       -2.1922020    -0.0289620     1.4584460
  O        2.4943102    -1.2545207    -0.5632289
  N       -1.4644620     1.9009220    -0.4829880
  N        3.3512580     0.4763250     0.7206820
  C        0.0919590     0.0544950    -0.9741750
  C       -1.3719240     0.4734550    -0.7783870
  C        0.9633170     0.3705390     0.2368360
  C       -1.9915820    -0.3883620     0.3080910
  C        2.3594900    -0.2078000     0.0693900
  H        0.1535850    -1.0146500    -1.1939440
  H        0.4725780     0.5964070    -1.8456160
  H       -1.9082720     0.2705620    -1.7119190
  H        1.0131360     1.4533500     0.3956850
  H        0.5381800    -0.0660200     1.1504670
  H       -1.3038060     2.0229320     0.5177520
  H       -2.4253970     2.2086760    -0.6320610
  H        3.2135550     1.4259430     1.0332840
  H        4.3010400     0.1654310     0.5620470
  H       -2.5974020    -2.1351830     0.6479870
units angstrom
no_reorient  #important for SAPT in psi4, default
symmetry c1  #important for SAPT in psi4, default
}

set PROPERTIES_ORIGIN ["COM"]
properties('MP2/aug-cc-pvtz', properties = ['dipole'])
--------------------------------------------------------------------------

    Molecular point group: c1
  Charge       = 0
  Multiplicity = 1
  Basis Set: AUG-CC-PVTZ
    Blend: AUG-CC-PVTZ
  Basis Set: (AUG-CC-PVTZ AUX)
    Blend: AUG-CC-PVTZ-JKFIT

    Orbital Energies [Eh]
    ---------------------

    Doubly Occupied:

       1A    -20.623817     2A    -20.560732     3A    -20.523742
       4A    -15.594550     5A    -15.556371     6A    -11.393773
       7A    -11.358300     8A    -11.284264     9A    -11.242575
      10A    -11.234812    11A     -1.468094    12A     -1.376777
      13A     -1.365403    14A     -1.218116    15A     -1.206036
      16A     -1.068166    17A     -0.981515    18A     -0.883888
      19A     -0.804031    20A     -0.777020    21A     -0.732783
      22A     -0.713280    23A     -0.706557    24A     -0.689024
      25A     -0.654298    26A     -0.651637    27A     -0.619281
      28A     -0.602780    29A     -0.591987    30A     -0.583437
      31A     -0.553565    32A     -0.519454    33A     -0.507544
      34A     -0.498140    35A     -0.484587    36A     -0.462732
      37A     -0.428294    38A     -0.421553    39A     -0.416148

  @DF-RHF Final Energy:  -528.88991910276559

   => Energetics <=

    Nuclear Repulsion Energy =            549.1658803135185281
    One-Electron Energy =               -1813.3934689186417017
    Two-Electron Energy =                 735.3376695023575849
    Total Energy =                       -528.8899191027655888
  Basis Set: (AUG-CC-PVTZ AUX)
    Blend: AUG-CC-PVTZ-RI
    Molecular point group: c1

    Geometry (in Angstrom), charge = 0, multiplicity = 1:

       Center              X                  Y                   Z               Mass
    ------------   -----------------  -----------------  -----------------  -----------------
         O           -2.239016559610    -1.610733881643    -0.135584777990    15.994914619570
         O           -2.173166559610     0.004942118357     1.452795222010    15.994914619570
         O            2.513345640390    -1.220616581643    -0.568879677990    15.994914619570
         N           -1.445426559610     1.934826118357    -0.488638777990    14.003074004430
         N            3.370293440390     0.510229118357     0.715031222010    14.003074004430
         C            0.110994440390     0.088399118357    -0.979825777990    12.000000000000
         C           -1.352888559610     0.507359118357    -0.784037777990    12.000000000000
         C            0.982352440390     0.404443118357     0.231185222010    12.000000000000
         C           -1.972546559610    -0.354457881643     0.302440222010    12.000000000000
         C            2.378525440390    -0.173895881643     0.063739222010    12.000000000000
         H            0.172620440390    -0.980745881643    -1.199594777990     1.007825032230
         H            0.491613440390     0.630311118357    -1.851266777990     1.007825032230
         H           -1.889236559610     0.304466118357    -1.717569777990     1.007825032230
         H            1.032171440390     1.487254118357     0.390034222010     1.007825032230
         H            0.557215440390    -0.032115881643     1.144816222010     1.007825032230
         H           -1.284770559610     2.056836118357     0.512101222010     1.007825032230
         H           -2.406361559610     2.242580118357    -0.637711777990     1.007825032230
         H            3.232590440390     1.459847118357     1.027633222010     1.007825032230
         H            4.320075440390     0.199335118357     0.556396222010     1.007825032230
         H           -2.578366559610    -2.101278881643     0.642336222010     1.007825032230

  Basis Set: AUG-CC-PVTZ
    Blend: AUG-CC-PVTZ
  Basis Set: (AUG-CC-PVTZ AUX)
    Blend: AUG-CC-PVTZ-JKFIT
	 Reference Energy          =    -528.8899191027655888 [Eh]
	 Singles Energy            =      -0.0000000000000000 [Eh]
	 Same-Spin Energy          =      -0.5282256860525087 [Eh]
	 Opposite-Spin Energy      =      -1.6362080491063327 [Eh]
	 Correlation Energy        =      -2.1644337351588412 [Eh]
	 Total Energy              =    -531.0543528379243980 [Eh]

	 ================> DF-SCS-MP2 Energies <==================
	-----------------------------------------------------------
	 SCS Same-Spin Scale       =       0.3333333333333333 [-]
	 SCS Opposite-Spin Scale   =       1.2000000000000000 [-]
	 SCS Same-Spin Energy      =      -0.1760752286841696 [Eh]
	 SCS Opposite-Spin Energy  =      -1.9634496589275992 [Eh]
	 SCS Correlation Energy    =      -2.1395248876117687 [Eh]
	 SCS Total Energy          =    -531.0294439903773309 [Eh]
	-----------------------------------------------------------

  Dipole Moment: [D]
     X:    -0.1076      Y:     1.9136      Z:     0.8996     Total:     2.1173

*** Psi4 exiting successfully. Buy a developer a beer!
