                               Psi4 1.3.2 release

  ==> Input File <==

--------------------------------------------------------------------------
#psi4
#
memory 32 gb

molecule  {
0 1
  O       -2.2580520    -1.6446380    -0.1299340
  O       -2.1922020    -0.0289620     1.4584460
  O        2.5787120    -1.2491670    -0.5482700
  N       -1.4644620     1.9009220    -0.4829880
  N        3.3512580     0.4763250     0.7206820
  C        0.0919590     0.0544950    -0.9741750
  C       -1.3719240     0.4734550    -0.7783870
  C        0.9633170     0.3705390     0.2368360
  C       -1.9915820    -0.3883620     0.3080910
  C        2.3416736    -0.1231670     0.1195879
  H        0.1535850    -1.0146500    -1.1939440
  H        0.4725780     0.5964070    -1.8456160
  H       -1.9082720     0.2705620    -1.7119190
  H        1.0131360     1.4533500     0.3956850
  H        0.5381800    -0.0660200     1.1504670
  H       -1.3038060     2.0229320     0.5177520
  H       -2.4253970     2.2086760    -0.6320610
  H        3.2135550     1.4259430     1.0332840
  H        4.3010400     0.1654310     0.5620470
  H       -2.5974020    -2.1351830     0.6479870
units angstrom
no_reorient  #important for SAPT in psi4, default
symmetry c1  #important for SAPT in psi4, default
}

set PROPERTIES_ORIGIN ["COM"]
properties('MP2/aug-cc-pvtz', properties = ['dipole'])
--------------------------------------------------------------------------

    Molecular point group: c1
  Charge       = 0
  Multiplicity = 1
  Basis Set: AUG-CC-PVTZ
    Blend: AUG-CC-PVTZ
  Basis Set: (AUG-CC-PVTZ AUX)
    Blend: AUG-CC-PVTZ-JKFIT

    Orbital Energies [Eh]
    ---------------------

    Doubly Occupied:

       1A    -20.625488     2A    -20.563151     3A    -20.503120
       4A    -15.605213     5A    -15.559131     6A    -11.396135
       7A    -11.360222     8A    -11.287524     9A    -11.250504
      10A    -11.239629    11A     -1.470047    12A     -1.367578
      13A     -1.331128    14A     -1.217080    15A     -1.209129
      16A     -1.077693    17A     -0.991758    18A     -0.893337
      19A     -0.813500    20A     -0.783179    21A     -0.740105
      22A     -0.717753    23A     -0.711988    24A     -0.692244
      25A     -0.658832    26A     -0.645824    27A     -0.622004
      28A     -0.605548    29A     -0.590700    30A     -0.561327
      31A     -0.548912    32A     -0.519623    33A     -0.509445
      34A     -0.501596    35A     -0.486953    36A     -0.465457
      37A     -0.420179    38A     -0.415420    39A     -0.401305

  @DF-RHF Final Energy:  -528.86978641583380

   => Energetics <=

    Nuclear Repulsion Energy =            548.1816116708935169
    One-Electron Energy =               -1811.3832782072754526
    Two-Electron Energy =                 734.3318801205481350
    Total Energy =                       -528.8697864158338007
  Basis Set: (AUG-CC-PVTZ AUX)
    Blend: AUG-CC-PVTZ-RI
    Molecular point group: c1

    Geometry (in Angstrom), charge = 0, multiplicity = 1:

       Center              X                  Y                   Z               Mass
    ------------   -----------------  -----------------  -----------------  -----------------
         O           -2.246795086736    -1.618272968667    -0.141346714534    15.994914619570
         O           -2.180945086736    -0.002596968667     1.447033285466    15.994914619570
         O            2.589968913264    -1.222801968667    -0.559682714534    15.994914619570
         N           -1.453205086736     1.927287031333    -0.494400714534    14.003074004430
         N            3.362514913264     0.502690031333     0.709269285466    14.003074004430
         C            0.103215913264     0.080860031333    -0.985587714534    12.000000000000
         C           -1.360667086736     0.499820031333    -0.789799714534    12.000000000000
         C            0.974573913264     0.396904031333     0.225423285466    12.000000000000
         C           -1.980325086736    -0.361996968667     0.296678285466    12.000000000000
         C            2.352930513264    -0.096801968667     0.108175185466    12.000000000000
         H            0.164841913264    -0.988284968667    -1.205356714534     1.007825032230
         H            0.483834913264     0.622772031333    -1.857028714534     1.007825032230
         H           -1.897015086736     0.296927031333    -1.723331714534     1.007825032230
         H            1.024392913264     1.479715031333     0.384272285466     1.007825032230
         H            0.549436913264    -0.039654968667     1.139054285466     1.007825032230
         H           -1.292549086736     2.049297031333     0.506339285466     1.007825032230
         H           -2.414140086736     2.235041031333    -0.643473714534     1.007825032230
         H            3.224811913264     1.452308031333     1.021871285466     1.007825032230
         H            4.312296913264     0.191796031333     0.550634285466     1.007825032230
         H           -2.586145086736    -2.108817968667     0.636574285466     1.007825032230

  Basis Set: AUG-CC-PVTZ
    Blend: AUG-CC-PVTZ
  Basis Set: (AUG-CC-PVTZ AUX)
    Blend: AUG-CC-PVTZ-JKFIT
	 Reference Energy          =    -528.8697864158338007 [Eh]
	 Singles Energy            =      -0.0000000000000000 [Eh]
	 Same-Spin Energy          =      -0.5302724654446880 [Eh]
	 Opposite-Spin Energy      =      -1.6400727913178044 [Eh]
	 Correlation Energy        =      -2.1703452567624923 [Eh]
	 Total Energy              =    -531.0401316725963170 [Eh]

	 ================> DF-SCS-MP2 Energies <==================
	-----------------------------------------------------------
	 SCS Same-Spin Scale       =       0.3333333333333333 [-]
	 SCS Opposite-Spin Scale   =       1.2000000000000000 [-]
	 SCS Same-Spin Energy      =      -0.1767574884815626 [Eh]
	 SCS Opposite-Spin Energy  =      -1.9680873495813651 [Eh]
	 SCS Correlation Energy    =      -2.1448448380629279 [Eh]
	 SCS Total Energy          =    -531.0146312538967095 [Eh]
	-----------------------------------------------------------

  Dipole Moment: [D]
     X:    -0.3771      Y:     2.4648      Z:     1.2213     Total:     2.7765

*** Psi4 exiting successfully. Buy a developer a beer!
