                               Psi4 1.3.2 release

  ==> Input File <==

--------------------------------------------------------------------------
#psi4
#
memory 32 gb

molecule  {
0 1
  O       -2.2580520    -1.6446380    -0.1299340
  O       -2.1922020    -0.0289620     1.4584460
  O        2.5787120    -1.2491670    -0.5482700
  N       -1.4644620     1.9009220    -0.4829880
  N        3.3512580     0.4763250     0.7206820
  C        0.0919590     0.0544950    -0.9741750
  C       -1.3719240     0.4734550    -0.7783870
  C        0.9633170     0.3705390     0.2368360
  C       -1.9915820    -0.3883620     0.3080910
  C        2.3594900    -0.2078000     0.0693900
  H        0.1535850    -1.0146500    -1.1939440
  H        0.4725780     0.5964070    -1.8456160
  H       -1.9082720     0.2705620    -1.7119190
  H        1.0131360     1.4533500     0.3956850
  H        0.5381800    -0.0660200     1.1504670
  H       -1.3038060     2.0229320     0.5177520
  H       -2.4253970     2.2086760    -0.6320610
  H        3.1961591     1.4231908     1.0334853
  H        4.3010400     0.1654310     0.5620470
  H       -2.5974020    -2.1351830     0.6479870
units angstrom
no_reorient  #important for SAPT in psi4, default
symmetry c1  #important for SAPT in psi4, default
}

set PROPERTIES_ORIGIN ["COM"]
properties('MP2/aug-cc-pvtz', properties = ['dipole'])
--------------------------------------------------------------------------

    Molecular point group: c1
  Charge       = 0
  Multiplicity = 1
  Basis Set: AUG-CC-PVTZ
    Blend: AUG-CC-PVTZ
  Basis Set: (AUG-CC-PVTZ AUX)
    Blend: AUG-CC-PVTZ-JKFIT

    Orbital Energies [Eh]
    ---------------------

    Doubly Occupied:

       1A    -20.625234     2A    -20.562278     3A    -20.522399
       4A    -15.589657     5A    -15.558094     6A    -11.395333
       7A    -11.357242     8A    -11.286285     9A    -11.246756
      10A    -11.237868    11A     -1.469563    12A     -1.376596
      13A     -1.366891    14A     -1.212845    15A     -1.207720
      16A     -1.071453    17A     -0.983882    18A     -0.885386
      19A     -0.802947    20A     -0.777181    21A     -0.732555
      22A     -0.714536    23A     -0.707612    24A     -0.689693
      25A     -0.655914    26A     -0.650838    27A     -0.620591
      28A     -0.603984    29A     -0.591825    30A     -0.585212
      31A     -0.554329    32A     -0.522113    33A     -0.509631
      34A     -0.500870    35A     -0.486492    36A     -0.464390
      37A     -0.428844    38A     -0.420024    39A     -0.416211

  @DF-RHF Final Energy:  -528.89168916251106

   => Energetics <=

    Nuclear Repulsion Energy =            548.4144564688016317
    One-Electron Energy =               -1811.8297408203093255
    Two-Electron Energy =                 734.5235951889965236
    Total Energy =                       -528.8916891625110566
  Basis Set: (AUG-CC-PVTZ AUX)
    Blend: AUG-CC-PVTZ-RI
    Molecular point group: c1

    Geometry (in Angstrom), charge = 0, multiplicity = 1:

       Center              X                  Y                   Z               Mass
    ------------   -----------------  -----------------  -----------------  -----------------
         O           -2.248138729709    -1.611301135186    -0.137224201621    15.994914619570
         O           -2.182288729709     0.004374864814     1.451155798379    15.994914619570
         O            2.588625270291    -1.215830135186    -0.555560201621    15.994914619570
         N           -1.454548729709     1.934258864814    -0.490278201621    14.003074004430
         N            3.361171270291     0.509661864814     0.713391798379    14.003074004430
         C            0.101872270291     0.087831864814    -0.981465201621    12.000000000000
         C           -1.362010729709     0.506791864814    -0.785677201621    12.000000000000
         C            0.973230270291     0.403875864814     0.229545798379    12.000000000000
         C           -1.981668729709    -0.355025135186     0.300800798379    12.000000000000
         C            2.369403270291    -0.174463135186     0.062099798379    12.000000000000
         H            0.163498270291    -0.981313135186    -1.201234201621     1.007825032230
         H            0.482491270291     0.629743864814    -1.852906201621     1.007825032230
         H           -1.898358729709     0.303898864814    -1.719209201621     1.007825032230
         H            1.023049270291     1.486686864814     0.388394798379     1.007825032230
         H            0.548093270291    -0.032683135186     1.143176798379     1.007825032230
         H           -1.293892729709     2.056268864814     0.510461798379     1.007825032230
         H           -2.415483729709     2.242012864814    -0.639351201621     1.007825032230
         H            3.206072370291     1.456527664814     1.026195098379     1.007825032230
         H            4.310953270291     0.198767864814     0.554756798379     1.007825032230
         H           -2.587488729709    -2.101846135186     0.640696798379     1.007825032230

  Basis Set: AUG-CC-PVTZ
    Blend: AUG-CC-PVTZ
  Basis Set: (AUG-CC-PVTZ AUX)
    Blend: AUG-CC-PVTZ-JKFIT
	 Reference Energy          =    -528.8916891625110566 [Eh]
	 Singles Energy            =      -0.0000000000000000 [Eh]
	 Same-Spin Energy          =      -0.5280623313577969 [Eh]
	 Opposite-Spin Energy      =      -1.6359233096603314 [Eh]
	 Correlation Energy        =      -2.1639856410181282 [Eh]
	 Total Energy              =    -531.0556748035292003 [Eh]

	 ================> DF-SCS-MP2 Energies <==================
	-----------------------------------------------------------
	 SCS Same-Spin Scale       =       0.3333333333333333 [-]
	 SCS Opposite-Spin Scale   =       1.2000000000000000 [-]
	 SCS Same-Spin Energy      =      -0.1760207771192656 [Eh]
	 SCS Opposite-Spin Energy  =      -1.9631079715923976 [Eh]
	 SCS Correlation Energy    =      -2.1391287487116633 [Eh]
	 SCS Total Energy          =    -531.0308179112226981 [Eh]
	-----------------------------------------------------------

  Dipole Moment: [D]
     X:    -0.4181      Y:     1.9267      Z:     0.8620     Total:     2.1517

*** Psi4 exiting successfully. Buy a developer a beer!
