                               Psi4 1.4a3.dev225

  ==> Input File <==

--------------------------------------------------------------------------
#psi4
#
memory 32 gb

molecule  {
0 1
  O       -2.2574700    -1.6449290    -0.1296770
  O       -2.1921770    -0.0290210     1.4584970
  O        2.5788390    -1.2486470    -0.5488970
  N       -1.4647530     1.9008340    -0.4830500
  N        3.3509580     0.4760520     0.7213670
  C        0.0918810     0.0546190    -0.9743850
  C       -1.3720140     0.4733420    -0.7784070
  C        0.9632520     0.3707540     0.2365710
  C       -1.9914170    -0.3885060     0.3082000
  C        2.3594470    -0.2075990     0.0692480
  H        0.1537030    -1.0145040    -1.1942090
  H        0.4723450     0.5966220    -1.8458350
  H       -1.9085090     0.2703120    -1.7118280
  H        1.0130710     1.4535820     0.3953090
  H        0.5380840    -0.0656780     1.1502640
  H       -1.3040640     2.0229100     0.5176770
  H       -2.4257360     2.2084470    -0.6320870
  H        3.2158968     1.4066710     1.0282600
  H        4.3007880     0.1652150     0.5629740
  H       -2.5967120    -2.1354700     0.6482930
units angstrom
no_reorient  #important for SAPT in psi4, default
symmetry c1  #important for SAPT in psi4, default
}

set PROPERTIES_ORIGIN ["COM"]
properties('MP2/aug-cc-pvtz', properties = ['dipole'])
--------------------------------------------------------------------------

    Molecular point group: c1
  Charge       = 0
  Multiplicity = 1
  Basis Set: AUG-CC-PVTZ
    Blend: AUG-CC-PVTZ
  Basis Set: (AUG-CC-PVTZ AUX)
    Blend: AUG-CC-PVTZ-JKFIT

    Orbital Energies [Eh]
    ---------------------

    Doubly Occupied:

       1A    -20.625220     2A    -20.562261     3A    -20.522659
       4A    -15.587764     5A    -15.558051     6A    -11.395314
       7A    -11.357660     8A    -11.286265     9A    -11.246730
      10A    -11.237847    11A     -1.469548    12A     -1.376903
      13A     -1.366876    14A     -1.215419    15A     -1.207783
      16A     -1.071534    17A     -0.984000    18A     -0.885714
      19A     -0.804570    20A     -0.778859    21A     -0.734533
      22A     -0.714634    23A     -0.707927    24A     -0.689596
      25A     -0.655909    26A     -0.651215    27A     -0.620594
      28A     -0.603998    29A     -0.592447    30A     -0.585174
      31A     -0.554448    32A     -0.522154    33A     -0.509659
      34A     -0.500847    35A     -0.486486    36A     -0.464368
      37A     -0.429268    38A     -0.420163    39A     -0.416436

  @DF-RHF Final Energy:  -528.89206063800725

   => Energetics <=

    Nuclear Repulsion Energy =            548.4901057089307415
    One-Electron Energy =               -1811.9626634506162191
    Two-Electron Energy =                 734.5804971036782263
    Total Energy =                       -528.8920606380072513
  Basis Set: (AUG-CC-PVTZ AUX)
    Blend: AUG-CC-PVTZ-RI
    Molecular point group: c1

    Geometry (in Angstrom), charge = 0, multiplicity = 1:

       Center              X                  Y                   Z               Mass
    ------------   -----------------  -----------------  -----------------  -----------------
         O           -2.247702875158    -1.611484935390    -0.136913669446    15.994914619570
         O           -2.182409875158     0.004423064610     1.451260330554    15.994914619570
         O            2.588606124842    -1.215202935390    -0.556133669446    15.994914619570
         N           -1.454985875158     1.934278064610    -0.490286669446    14.003074004430
         N            3.360725124842     0.509496064610     0.714130330554    14.003074004430
         C            0.101648124842     0.088063064610    -0.981621669446    12.000000000000
         C           -1.362246875158     0.506786064610    -0.785643669446    12.000000000000
         C            0.973019124842     0.404198064610     0.229334330554    12.000000000000
         C           -1.981649875158    -0.355061935390     0.300963330554    12.000000000000
         C            2.369214124842    -0.174154935390     0.062011330554    12.000000000000
         H            0.163470124842    -0.981059935390    -1.201445669446     1.007825032230
         H            0.482112124842     0.630066064610    -1.853071669446     1.007825032230
         H           -1.898741875158     0.303756064610    -1.719064669446     1.007825032230
         H            1.022838124842     1.487026064610     0.388072330554     1.007825032230
         H            0.547851124842    -0.032233935390     1.143027330554     1.007825032230
         H           -1.294296875158     2.056354064610     0.510440330554     1.007825032230
         H           -2.415968875158     2.241891064610    -0.639323669446     1.007825032230
         H            3.225663924842     1.440115064610     1.021023330554     1.007825032230
         H            4.310555124842     0.198659064610     0.555737330554     1.007825032230
         H           -2.586944875158    -2.102025935390     0.641056330554     1.007825032230

  Basis Set: AUG-CC-PVTZ
    Blend: AUG-CC-PVTZ
  Basis Set: (AUG-CC-PVTZ AUX)
    Blend: AUG-CC-PVTZ-JKFIT
	 Reference Energy          =    -528.8920606380072513 [Eh]
	 Singles Energy            =      -0.0000000000000000 [Eh]
	 Same-Spin Energy          =      -0.5279236817705241 [Eh]
	 Opposite-Spin Energy      =      -1.6355904056840376 [Eh]
	 Correlation Energy        =      -2.1635140874545615 [Eh]
	 Total Energy              =    -531.0555747254618382 [Eh]

	 ================> DF-SCS-MP2 Energies <==================
	-----------------------------------------------------------
	 SCS Same-Spin Scale       =       0.3333333333333333 [-]
	 SCS Opposite-Spin Scale   =       1.2000000000000000 [-]
	 SCS Same-Spin Energy      =      -0.1759745605901747 [Eh]
	 SCS Opposite-Spin Energy  =      -1.9627084868208451 [Eh]
	 SCS Correlation Energy    =      -2.1386830474110199 [Eh]
	 SCS Total Energy          =    -531.0307436854183152 [Eh]
	-----------------------------------------------------------

  Dipole Moment: [D]
     X:    -0.4048      Y:     1.9142      Z:     0.8557     Total:     2.1355

*** Psi4 exiting successfully. Buy a developer a beer!
