                               Psi4 1.4a3.dev225

  ==> Input File <==

--------------------------------------------------------------------------
#psi4
#
memory 32 gb

molecule  {
0 1
  O       -2.2574700    -1.6449290    -0.1296770
  O       -2.1921770    -0.0290210     1.4584970
  O        2.5788390    -1.2486470    -0.5488970
  N       -1.4647530     1.9008340    -0.4830500
  N        3.3509580     0.4760520     0.7213670
  C        0.0918810     0.0546190    -0.9743850
  C       -1.3720140     0.4733420    -0.7784070
  C        0.9632520     0.3707540     0.2365710
  C       -1.9914170    -0.3885060     0.3082000
  C        2.3505319    -0.1652956     0.0943666
  H        0.1537030    -1.0145040    -1.1942090
  H        0.4723450     0.5966220    -1.8458350
  H       -1.9085090     0.2703120    -1.7118280
  H        1.0130710     1.4535820     0.3953090
  H        0.5380840    -0.0656780     1.1502640
  H       -1.3040640     2.0229100     0.5176770
  H       -2.4257360     2.2084470    -0.6320870
  H        3.2131660     1.4254870     1.0344650
  H        4.3007880     0.1652150     0.5629740
  H       -2.5967120    -2.1354700     0.6482930
units angstrom
no_reorient  #important for SAPT in psi4, default
symmetry c1  #important for SAPT in psi4, default
}

set PROPERTIES_ORIGIN ["COM"]
properties('MP2/aug-cc-pvtz', properties = ['dipole'])
--------------------------------------------------------------------------

    Molecular point group: c1
  Charge       = 0
  Multiplicity = 1
  Basis Set: AUG-CC-PVTZ
    Blend: AUG-CC-PVTZ
  Basis Set: (AUG-CC-PVTZ AUX)
    Blend: AUG-CC-PVTZ-JKFIT

    Orbital Energies [Eh]
    ---------------------

    Doubly Occupied:

       1A    -20.625347     2A    -20.562708     3A    -20.512866
       4A    -15.597442     5A    -15.558609     6A    -11.395727
       7A    -11.359141     8A    -11.286901     9A    -11.248665
      10A    -11.238699    11A     -1.469793    12A     -1.367230
      13A     -1.349090    14A     -1.217993    15A     -1.208521
      16A     -1.074488    17A     -0.987795    18A     -0.889481
      19A     -0.808201    20A     -0.780522    21A     -0.735662
      22A     -0.715635    23A     -0.709841    24A     -0.691040
      25A     -0.657156    26A     -0.647189    27A     -0.621032
      28A     -0.604474    29A     -0.588250    30A     -0.575386
      31A     -0.551377    32A     -0.520586    33A     -0.508899
      34A     -0.501872    35A     -0.486709    36A     -0.464920
      37A     -0.423509    38A     -0.419538    39A     -0.410813

  @DF-RHF Final Energy:  -528.88403501010634

   => Energetics <=

    Nuclear Repulsion Energy =            548.2623768265111721
    One-Electron Energy =               -1811.5466048733051139
    Two-Electron Energy =                 734.4001930366875968
    Total Energy =                       -528.8840350101063450
  Basis Set: (AUG-CC-PVTZ AUX)
    Blend: AUG-CC-PVTZ-RI
    Molecular point group: c1

    Geometry (in Angstrom), charge = 0, multiplicity = 1:

       Center              X                  Y                   Z               Mass
    ------------   -----------------  -----------------  -----------------  -----------------
         O           -2.246951632514    -1.615090105024    -0.139020046945    15.994914619570
         O           -2.181658632514     0.000817894976     1.449153953055    15.994914619570
         O            2.589357367486    -1.218808105024    -0.558240046945    15.994914619570
         N           -1.454234632514     1.930672894976    -0.492393046945    14.003074004430
         N            3.361476367486     0.505890894976     0.712023953055    14.003074004430
         C            0.102399367486     0.084457894976    -0.983728046945    12.000000000000
         C           -1.361495632514     0.503180894976    -0.787750046945    12.000000000000
         C            0.973770367486     0.400592894976     0.227227953055    12.000000000000
         C           -1.980898632514    -0.358667105024     0.298856953055    12.000000000000
         C            2.361050267486    -0.135456705024     0.085023553055    12.000000000000
         H            0.164221367486    -0.984665105024    -1.203552046945     1.007825032230
         H            0.482863367486     0.626460894976    -1.855178046945     1.007825032230
         H           -1.897990632514     0.300150894976    -1.721171046945     1.007825032230
         H            1.023589367486     1.483420894976     0.385965953055     1.007825032230
         H            0.548602367486    -0.035839105024     1.140920953055     1.007825032230
         H           -1.293545632514     2.052748894976     0.508333953055     1.007825032230
         H           -2.415217632514     2.238285894976    -0.641430046945     1.007825032230
         H            3.223684367486     1.455325894976     1.025121953055     1.007825032230
         H            4.311306367486     0.195053894976     0.553630953055     1.007825032230
         H           -2.586193632514    -2.105631105024     0.638949953055     1.007825032230

  Basis Set: AUG-CC-PVTZ
    Blend: AUG-CC-PVTZ
  Basis Set: (AUG-CC-PVTZ AUX)
    Blend: AUG-CC-PVTZ-JKFIT
	 Reference Energy          =    -528.8840350101063450 [Eh]
	 Singles Energy            =      -0.0000000000000000 [Eh]
	 Same-Spin Energy          =      -0.5291428892945437 [Eh]
	 Opposite-Spin Energy      =      -1.6379676285478784 [Eh]
	 Correlation Energy        =      -2.1671105178424219 [Eh]
	 Total Energy              =    -531.0511455279487336 [Eh]

	 ================> DF-SCS-MP2 Energies <==================
	-----------------------------------------------------------
	 SCS Same-Spin Scale       =       0.3333333333333333 [-]
	 SCS Opposite-Spin Scale   =       1.2000000000000000 [-]
	 SCS Same-Spin Energy      =      -0.1763809630981812 [Eh]
	 SCS Opposite-Spin Energy  =      -1.9655611542574540 [Eh]
	 SCS Correlation Energy    =      -2.1419421173556352 [Eh]
	 SCS Total Energy          =    -531.0259771274619425 [Eh]
	-----------------------------------------------------------

  Dipole Moment: [D]
     X:    -0.3906      Y:     2.2062      Z:     1.0483     Total:     2.4736

*** Psi4 exiting successfully. Buy a developer a beer!
