                               Psi4 1.4a3.dev225

  ==> Input File <==

--------------------------------------------------------------------------
#psi4
#
memory 32 gb

molecule  {
0 1
  O       -2.2574700    -1.6449290    -0.1296770
  O       -2.1921770    -0.0290210     1.4584970
  O        2.5788390    -1.2486470    -0.5488970
  N       -1.4647530     1.9008340    -0.4830500
  N        3.3509580     0.4760520     0.7213670
  C        0.0918810     0.0546190    -0.9743850
  C       -1.3720140     0.4733420    -0.7784070
  C        0.9632520     0.3707540     0.2365710
  C       -1.9914170    -0.3885060     0.3082000
  C        2.4053601    -0.2266178     0.0637457
  H        0.1537030    -1.0145040    -1.1942090
  H        0.4723450     0.5966220    -1.8458350
  H       -1.9085090     0.2703120    -1.7118280
  H        1.0130710     1.4535820     0.3953090
  H        0.5380840    -0.0656780     1.1502640
  H       -1.3040640     2.0229100     0.5176770
  H       -2.4257360     2.2084470    -0.6320870
  H        3.2131660     1.4254870     1.0344650
  H        4.3007880     0.1652150     0.5629740
  H       -2.5967120    -2.1354700     0.6482930
units angstrom
no_reorient  #important for SAPT in psi4, default
symmetry c1  #important for SAPT in psi4, default
}

set PROPERTIES_ORIGIN ["COM"]
properties('MP2/aug-cc-pvtz', properties = ['dipole'])
--------------------------------------------------------------------------

    Molecular point group: c1
  Charge       = 0
  Multiplicity = 1
  Basis Set: AUG-CC-PVTZ
    Blend: AUG-CC-PVTZ
  Basis Set: (AUG-CC-PVTZ AUX)
    Blend: AUG-CC-PVTZ-JKFIT

    Orbital Energies [Eh]
    ---------------------

    Doubly Occupied:

       1A    -20.623822     2A    -20.560533     3A    -20.524783
       4A    -15.591356     5A    -15.556220     6A    -11.393629
       7A    -11.354546     8A    -11.284266     9A    -11.243292
      10A    -11.234800    11A     -1.468026    12A     -1.393439
      13A     -1.365265    14A     -1.223149    15A     -1.205845
      16A     -1.064467    17A     -0.976657    18A     -0.879871
      19A     -0.805149    20A     -0.779169    21A     -0.734351
      22A     -0.713139    23A     -0.706453    24A     -0.686217
      25A     -0.654320    26A     -0.652621    27A     -0.619167
      28A     -0.603059    29A     -0.593933    30A     -0.582667
      31A     -0.559670    32A     -0.520748    33A     -0.509106
      34A     -0.497776    35A     -0.484914    36A     -0.462409
      37A     -0.428184    38A     -0.421768    39A     -0.414640

  @DF-RHF Final Energy:  -528.89126894409821

   => Energetics <=

    Nuclear Repulsion Energy =            548.2314181985869936
    One-Electron Energy =               -1811.4985195986341751
    Two-Electron Energy =                 734.3758324559488528
    Total Energy =                       -528.8912689440982149
  Basis Set: (AUG-CC-PVTZ AUX)
    Blend: AUG-CC-PVTZ-RI
    Molecular point group: c1

    Geometry (in Angstrom), charge = 0, multiplicity = 1:

       Center              X                  Y                   Z               Mass
    ------------   -----------------  -----------------  -----------------  -----------------
         O           -2.251455926782    -1.610052309984    -0.136504451971    15.994914619570
         O           -2.186162926782     0.005855690016     1.451669548029    15.994914619570
         O            2.584853073218    -1.213770309984    -0.555724451971    15.994914619570
         N           -1.458738926782     1.935710690016    -0.489877451971    14.003074004430
         N            3.356972073218     0.510928690016     0.714539548029    14.003074004430
         C            0.097895073218     0.089495690016    -0.981212451971    12.000000000000
         C           -1.365999926782     0.508218690016    -0.785234451971    12.000000000000
         C            0.969266073218     0.405630690016     0.229743548029    12.000000000000
         C           -1.985402926782    -0.353629309984     0.301372548029    12.000000000000
         C            2.411374173218    -0.191741109984     0.056918248029    12.000000000000
         H            0.159717073218    -0.979627309984    -1.201036451971     1.007825032230
         H            0.478359073218     0.631498690016    -1.852662451971     1.007825032230
         H           -1.902494926782     0.305188690016    -1.718655451971     1.007825032230
         H            1.019085073218     1.488458690016     0.388481548029     1.007825032230
         H            0.544098073218    -0.030801309984     1.143436548029     1.007825032230
         H           -1.298049926782     2.057786690016     0.510849548029     1.007825032230
         H           -2.419721926782     2.243323690016    -0.638914451971     1.007825032230
         H            3.219180073218     1.460363690016     1.027637548029     1.007825032230
         H            4.306802073218     0.200091690016     0.556146548029     1.007825032230
         H           -2.590697926782    -2.100593309984     0.641465548029     1.007825032230

  Basis Set: AUG-CC-PVTZ
    Blend: AUG-CC-PVTZ
  Basis Set: (AUG-CC-PVTZ AUX)
    Blend: AUG-CC-PVTZ-JKFIT
	 Reference Energy          =    -528.8912689440982149 [Eh]
	 Singles Energy            =      -0.0000000000000000 [Eh]
	 Same-Spin Energy          =      -0.5274065289294587 [Eh]
	 Opposite-Spin Energy      =      -1.6345251351658852 [Eh]
	 Correlation Energy        =      -2.1619316640953441 [Eh]
	 Total Energy              =    -531.0532006081936061 [Eh]

	 ================> DF-SCS-MP2 Energies <==================
	-----------------------------------------------------------
	 SCS Same-Spin Scale       =       0.3333333333333333 [-]
	 SCS Opposite-Spin Scale   =       1.2000000000000000 [-]
	 SCS Same-Spin Energy      =      -0.1758021763098196 [Eh]
	 SCS Opposite-Spin Energy  =      -1.9614301621990622 [Eh]
	 SCS Correlation Energy    =      -2.1372323385088818 [Eh]
	 SCS Total Energy          =    -531.0285012826070670 [Eh]
	-----------------------------------------------------------

  Dipole Moment: [D]
     X:    -0.1096      Y:     1.8607      Z:     0.8634     Total:     2.0542

*** Psi4 exiting successfully. Buy a developer a beer!
