                               Psi4 1.3.2 release

  ==> Input File <==

--------------------------------------------------------------------------
#psi4
#
memory 32 gb

molecule  {
0 1
  O       -2.2580520    -1.6446380    -0.1299340
  O       -2.1922020    -0.0289620     1.4584460
  O        2.5787120    -1.2491670    -0.5482700
  N       -1.4644620     1.9009220    -0.4829880
  N        3.3512580     0.4763250     0.7206820
  C        0.1331650     0.0287686    -0.9959401
  C       -1.3719240     0.4734550    -0.7783870
  C        0.9633170     0.3705390     0.2368360
  C       -1.9915820    -0.3883620     0.3080910
  C        2.3594900    -0.2078000     0.0693900
  H        0.1535850    -1.0146500    -1.1939440
  H        0.4725780     0.5964070    -1.8456160
  H       -1.9082720     0.2705620    -1.7119190
  H        1.0131360     1.4533500     0.3956850
  H        0.5381800    -0.0660200     1.1504670
  H       -1.3038060     2.0229320     0.5177520
  H       -2.4253970     2.2086760    -0.6320610
  H        3.2135550     1.4259430     1.0332840
  H        4.3010400     0.1654310     0.5620470
  H       -2.5974020    -2.1351830     0.6479870
units angstrom
no_reorient  #important for SAPT in psi4, default
symmetry c1  #important for SAPT in psi4, default
}

set PROPERTIES_ORIGIN ["COM"]
properties('MP2/aug-cc-pvtz', properties = ['dipole'])
--------------------------------------------------------------------------

    Molecular point group: c1
  Charge       = 0
  Multiplicity = 1
  Basis Set: AUG-CC-PVTZ
    Blend: AUG-CC-PVTZ
  Basis Set: (AUG-CC-PVTZ AUX)
    Blend: AUG-CC-PVTZ-JKFIT

    Orbital Energies [Eh]
    ---------------------

    Doubly Occupied:

       1A    -20.624709     2A    -20.561371     3A    -20.522464
       4A    -15.589307     5A    -15.558018     6A    -11.394577
       7A    -11.356835     8A    -11.286819     9A    -11.246878
      10A    -11.237358    11A     -1.468854    12A     -1.376778
      13A     -1.366151    14A     -1.212357    15A     -1.204844
      16A     -1.070400    17A     -0.980371    18A     -0.886475
      19A     -0.801973    20A     -0.779556    21A     -0.730644
      22A     -0.713726    23A     -0.706892    24A     -0.688440
      25A     -0.656468    26A     -0.650298    27A     -0.621117
      28A     -0.603185    29A     -0.591170    30A     -0.583234
      31A     -0.558506    32A     -0.520676    33A     -0.512670
      34A     -0.502164    35A     -0.483504    36A     -0.465470
      37A     -0.428914    38A     -0.419162    39A     -0.414033

  @DF-RHF Final Energy:  -528.88956089090846

   => Energetics <=

    Nuclear Repulsion Energy =            547.8625660233101371
    One-Electron Energy =               -1810.7515154631000769
    Two-Electron Energy =                 733.9993885488814840
    Total Energy =                       -528.8895608909084558
  Basis Set: (AUG-CC-PVTZ AUX)
    Blend: AUG-CC-PVTZ-RI
    Molecular point group: c1

    Geometry (in Angstrom), charge = 0, multiplicity = 1:

       Center              X                  Y                   Z               Mass
    ------------   -----------------  -----------------  -----------------  -----------------
         O           -2.251643946594    -1.609206626658    -0.135434747180    15.994914619570
         O           -2.185793946594     0.006469373342     1.452945252820    15.994914619570
         O            2.585120053406    -1.213735626658    -0.553770747180    15.994914619570
         N           -1.458053946594     1.936353373342    -0.488488747180    14.003074004430
         N            3.357666053406     0.511756373342     0.715181252820    14.003074004430
         C            0.139573053406     0.064199973342    -1.001440847180    12.000000000000
         C           -1.365515946594     0.508886373342    -0.783887747180    12.000000000000
         C            0.969725053406     0.405970373342     0.231335252820    12.000000000000
         C           -1.985173946594    -0.352930626658     0.302590252820    12.000000000000
         C            2.365898053406    -0.172368626658     0.063889252820    12.000000000000
         H            0.159993053406    -0.979218626658    -1.199444747180     1.007825032230
         H            0.478986053406     0.631838373342    -1.851116747180     1.007825032230
         H           -1.901863946594     0.305993373342    -1.717419747180     1.007825032230
         H            1.019544053406     1.488781373342     0.390184252820     1.007825032230
         H            0.544588053406    -0.030588626658     1.144966252820     1.007825032230
         H           -1.297397946594     2.058363373342     0.512251252820     1.007825032230
         H           -2.418988946594     2.244107373342    -0.637561747180     1.007825032230
         H            3.219963053406     1.461374373342     1.027783252820     1.007825032230
         H            4.307448053406     0.200862373342     0.556546252820     1.007825032230
         H           -2.590993946594    -2.099751626658     0.642486252820     1.007825032230

  Basis Set: AUG-CC-PVTZ
    Blend: AUG-CC-PVTZ
  Basis Set: (AUG-CC-PVTZ AUX)
    Blend: AUG-CC-PVTZ-JKFIT
	 Reference Energy          =    -528.8895608909084558 [Eh]
	 Singles Energy            =      -0.0000000000000000 [Eh]
	 Same-Spin Energy          =      -0.5278585055506799 [Eh]
	 Opposite-Spin Energy      =      -1.6357421848636939 [Eh]
	 Correlation Energy        =      -2.1636006904143739 [Eh]
	 Total Energy              =    -531.0531615813227972 [Eh]

	 ================> DF-SCS-MP2 Energies <==================
	-----------------------------------------------------------
	 SCS Same-Spin Scale       =       0.3333333333333333 [-]
	 SCS Opposite-Spin Scale   =       1.2000000000000000 [-]
	 SCS Same-Spin Energy      =      -0.1759528351835600 [Eh]
	 SCS Opposite-Spin Energy  =      -1.9628906218364326 [Eh]
	 SCS Correlation Energy    =      -2.1388434570199926 [Eh]
	 SCS Total Energy          =    -531.0284043479284719 [Eh]
	-----------------------------------------------------------

  Dipole Moment: [D]
     X:    -0.3782      Y:     1.9421      Z:     0.8450     Total:     2.1514

*** Psi4 exiting successfully. Buy a developer a beer!
