                               Psi4 1.3.2 release

  ==> Input File <==

--------------------------------------------------------------------------
#psi4
#
memory 32 gb

molecule  {
0 1
  O       -2.2580520    -1.6446380    -0.1299340
  O       -2.1922020    -0.0289620     1.4584460
  O        2.5787120    -1.2491670    -0.5482700
  N       -1.4644620     1.9009220    -0.4829880
  N        3.3512580     0.4763250     0.7206820
  C        0.0919590     0.0544950    -0.9741750
  C       -1.3719240     0.4734550    -0.7783870
  C        0.9633170     0.3705390     0.2368360
  C       -1.9915820    -0.3883620     0.3080910
  C        2.3594900    -0.2078000     0.0693900
  H        0.1535850    -1.0146500    -1.1939440
  H        0.4725780     0.5964070    -1.8456160
  H       -1.9082720     0.2705620    -1.7119190
  H        1.0131360     1.4533500     0.3956850
  H        0.5381800    -0.0660200     1.1504670
  H       -1.3038060     2.0229320     0.5177520
  H       -2.4253970     2.2086760    -0.6320610
  H        3.1099938     1.4051235     1.0330622
  H        4.3010400     0.1654310     0.5620470
  H       -2.5974020    -2.1351830     0.6479870
units angstrom
no_reorient  #important for SAPT in psi4, default
symmetry c1  #important for SAPT in psi4, default
}

set PROPERTIES_ORIGIN ["COM"]
properties('MP2/aug-cc-pvtz', properties = ['dipole'])
--------------------------------------------------------------------------

    Molecular point group: c1
  Charge       = 0
  Multiplicity = 1
  Basis Set: AUG-CC-PVTZ
    Blend: AUG-CC-PVTZ
  Basis Set: (AUG-CC-PVTZ AUX)
    Blend: AUG-CC-PVTZ-JKFIT

    Orbital Energies [Eh]
    ---------------------

    Doubly Occupied:

       1A    -20.625466     2A    -20.562556     3A    -20.521384
       4A    -15.589756     5A    -15.558413     6A    -11.395608
       7A    -11.355578     8A    -11.286598     9A    -11.247522
      10A    -11.238318    11A     -1.469813    12A     -1.376038
      13A     -1.367154    14A     -1.213793    15A     -1.208066
      16A     -1.071821    17A     -0.984093    18A     -0.885176
      19A     -0.800746    20A     -0.774812    21A     -0.735920
      22A     -0.715581    23A     -0.709663    24A     -0.690568
      25A     -0.656414    26A     -0.649878    27A     -0.620873
      28A     -0.604344    29A     -0.591995    30A     -0.585643
      31A     -0.554380    32A     -0.522399    33A     -0.509971
      34A     -0.501562    35A     -0.486802    36A     -0.464689
      37A     -0.427681    38A     -0.420117    39A     -0.416063

  @DF-RHF Final Energy:  -528.89056816145182

   => Energetics <=

    Nuclear Repulsion Energy =            548.5875730735209572
    One-Electron Energy =               -1812.1617722159621735
    Two-Electron Energy =                 734.6836309809892782
    Total Energy =                       -528.8905681614518244
  Basis Set: (AUG-CC-PVTZ AUX)
    Blend: AUG-CC-PVTZ-RI
    Molecular point group: c1

    Geometry (in Angstrom), charge = 0, multiplicity = 1:

       Center              X                  Y                   Z               Mass
    ------------   -----------------  -----------------  -----------------  -----------------
         O           -2.247544219843    -1.611176477254    -0.137221282382    15.994914619570
         O           -2.181694219843     0.004499522746     1.451158717618    15.994914619570
         O            2.589219780157    -1.215705477254    -0.555557282382    15.994914619570
         N           -1.453954219843     1.934383522746    -0.490275282382    14.003074004430
         N            3.361765780157     0.509786522746     0.713394717618    14.003074004430
         C            0.102466780157     0.087956522746    -0.981462282382    12.000000000000
         C           -1.361416219843     0.506916522746    -0.785674282382    12.000000000000
         C            0.973824780157     0.404000522746     0.229548717618    12.000000000000
         C           -1.981074219843    -0.354900477254     0.300803717618    12.000000000000
         C            2.369997780157    -0.174338477254     0.062102717618    12.000000000000
         H            0.164092780157    -0.981188477254    -1.201231282382     1.007825032230
         H            0.483085780157     0.629868522746    -1.852903282382     1.007825032230
         H           -1.897764219843     0.304023522746    -1.719206282382     1.007825032230
         H            1.023643780157     1.486811522746     0.388397717618     1.007825032230
         H            0.548687780157    -0.032558477254     1.143179717618     1.007825032230
         H           -1.293298219843     2.056393522746     0.510464717618     1.007825032230
         H           -2.414889219843     2.242137522746    -0.639348282382     1.007825032230
         H            3.120501580157     1.438585022746     1.025774917618     1.007825032230
         H            4.311547780157     0.198892522746     0.554759717618     1.007825032230
         H           -2.586894219843    -2.101721477254     0.640699717618     1.007825032230

  Basis Set: AUG-CC-PVTZ
    Blend: AUG-CC-PVTZ
  Basis Set: (AUG-CC-PVTZ AUX)
    Blend: AUG-CC-PVTZ-JKFIT
	 Reference Energy          =    -528.8905681614518244 [Eh]
	 Singles Energy            =      -0.0000000000000000 [Eh]
	 Same-Spin Energy          =      -0.5281846100865945 [Eh]
	 Opposite-Spin Energy      =      -1.6360375940657068 [Eh]
	 Correlation Energy        =      -2.1642222041523014 [Eh]
	 Total Energy              =    -531.0547903656041626 [Eh]

	 ================> DF-SCS-MP2 Energies <==================
	-----------------------------------------------------------
	 SCS Same-Spin Scale       =       0.3333333333333333 [-]
	 SCS Opposite-Spin Scale   =       1.2000000000000000 [-]
	 SCS Same-Spin Energy      =      -0.1760615366955315 [Eh]
	 SCS Opposite-Spin Energy  =      -1.9632451128788482 [Eh]
	 SCS Correlation Energy    =      -2.1393066495743795 [Eh]
	 SCS Total Energy          =    -531.0298748110261613 [Eh]
	-----------------------------------------------------------

  Dipole Moment: [D]
     X:    -0.4867      Y:     1.8996      Z:     0.8707     Total:     2.1456

*** Psi4 exiting successfully. Buy a developer a beer!
