                               Psi4 1.3.2 release

  ==> Input File <==

--------------------------------------------------------------------------
#psi4
#
memory 32 gb

molecule  {
0 1
  O       -2.2580520    -1.6446380    -0.1299340
  O       -2.1922020    -0.0289620     1.4584460
  O        2.5787120    -1.2491670    -0.5482700
  N       -1.4644620     1.9009220    -0.4829880
  N        3.3512580     0.4763250     0.7206820
  C        0.0919590     0.0544950    -0.9741750
  C       -1.3719240     0.4734550    -0.7783870
  C        0.9633170     0.3705390     0.2368360
  C       -1.9915820    -0.3883620     0.3080910
  C        2.3594900    -0.2078000     0.0693900
  H        0.1535850    -1.0146500    -1.1939440
  H        0.4725780     0.5964070    -1.8456160
  H       -1.9082720     0.2705620    -1.7119190
  H        1.0131360     1.4533500     0.3956850
  H        0.5381800    -0.0660200     1.1504670
  H       -1.3038060     2.0229320     0.5177520
  H       -2.4253970     2.2086760    -0.6320610
  H        3.2135550     1.4259430     1.0332840
  H        4.3010400     0.1654310     0.5620470
  H       -2.5974020    -2.1351830     0.6479870
units angstrom
no_reorient  #important for SAPT in psi4, default
symmetry c1  #important for SAPT in psi4, default
}

set PROPERTIES_ORIGIN ["COM"]
properties('MP2/aug-cc-pvtz', properties = ['dipole'])
--------------------------------------------------------------------------

    Molecular point group: c1
  Charge       = 0
  Multiplicity = 1
  Basis Set: AUG-CC-PVTZ
    Blend: AUG-CC-PVTZ
  Basis Set: (AUG-CC-PVTZ AUX)
    Blend: AUG-CC-PVTZ-JKFIT

    Orbital Energies [Eh]
    ---------------------

    Doubly Occupied:

       1A    -20.625191     2A    -20.562227     3A    -20.522601
       4A    -15.589619     5A    -15.558034     6A    -11.395283
       7A    -11.357590     8A    -11.286228     9A    -11.246618
      10A    -11.237788    11A     -1.469518    12A     -1.376713
      13A     -1.366842    14A     -1.212688    15A     -1.207656
      16A     -1.071391    17A     -0.983855    18A     -0.885459
      19A     -0.803482    20A     -0.777588    21A     -0.731950
      22A     -0.714354    23A     -0.707111    24A     -0.689446
      25A     -0.655820    26A     -0.651025    27A     -0.620541
      28A     -0.603920    29A     -0.591741    30A     -0.585125
      31A     -0.554322    32A     -0.522058    33A     -0.509570
      34A     -0.500742    35A     -0.486435    36A     -0.464336
      37A     -0.429078    38A     -0.420012    39A     -0.416233

  @DF-RHF Final Energy:  -528.89168630366873

   => Energetics <=

    Nuclear Repulsion Energy =            548.3816534668308122
    One-Electron Energy =               -1811.7663018003158868
    Two-Electron Energy =                 734.4929620298163400
    Total Energy =                       -528.8916863036687346
  Basis Set: (AUG-CC-PVTZ AUX)
    Blend: AUG-CC-PVTZ-RI
    Molecular point group: c1

    Geometry (in Angstrom), charge = 0, multiplicity = 1:

       Center              X                  Y                   Z               Mass
    ------------   -----------------  -----------------  -----------------  -----------------
         O           -2.248258755221    -1.611320124385    -0.137222812723    15.994914619570
         O           -2.182408755221     0.004355875615     1.451157187277    15.994914619570
         O            2.588505244779    -1.215849124385    -0.555558812723    15.994914619570
         N           -1.454668755221     1.934239875615    -0.490276812723    14.003074004430
         N            3.361051244779     0.509642875615     0.713393187277    14.003074004430
         C            0.101752244779     0.087812875615    -0.981463812723    12.000000000000
         C           -1.362130755221     0.506772875615    -0.785675812723    12.000000000000
         C            0.973110244779     0.403856875615     0.229547187277    12.000000000000
         C           -1.981788755221    -0.355044124385     0.300802187277    12.000000000000
         C            2.369283244779    -0.174482124385     0.062101187277    12.000000000000
         H            0.163378244779    -0.981332124385    -1.201232812723     1.007825032230
         H            0.482371244779     0.629724875615    -1.852904812723     1.007825032230
         H           -1.898478755221     0.303879875615    -1.719207812723     1.007825032230
         H            1.022929244779     1.486667875615     0.388396187277     1.007825032230
         H            0.547973244779    -0.032702124385     1.143178187277     1.007825032230
         H           -1.294012755221     2.056249875615     0.510463187277     1.007825032230
         H           -2.415603755221     2.241993875615    -0.639349812723     1.007825032230
         H            3.223348244779     1.459260875615     1.025995187277     1.007825032230
         H            4.310833244779     0.198748875615     0.554758187277     1.007825032230
         H           -2.587608755221    -2.101865124385     0.640698187277     1.007825032230

  Basis Set: AUG-CC-PVTZ
    Blend: AUG-CC-PVTZ
  Basis Set: (AUG-CC-PVTZ AUX)
    Blend: AUG-CC-PVTZ-JKFIT
	 Reference Energy          =    -528.8916863036687346 [Eh]
	 Singles Energy            =      -0.0000000000000000 [Eh]
	 Same-Spin Energy          =      -0.5280497952824270 [Eh]
	 Opposite-Spin Energy      =      -1.6359197166051729 [Eh]
	 Correlation Energy        =      -2.1639695118875997 [Eh]
	 Total Energy              =    -531.0556558155562925 [Eh]

	 ================> DF-SCS-MP2 Energies <==================
	-----------------------------------------------------------
	 SCS Same-Spin Scale       =       0.3333333333333333 [-]
	 SCS Opposite-Spin Scale   =       1.2000000000000000 [-]
	 SCS Same-Spin Energy      =      -0.1760165984274757 [Eh]
	 SCS Opposite-Spin Energy  =      -1.9631036599262073 [Eh]
	 SCS Correlation Energy    =      -2.1391202583536830 [Eh]
	 SCS Total Energy          =    -531.0308065620224625 [Eh]
	-----------------------------------------------------------

  Dipole Moment: [D]
     X:    -0.4045      Y:     1.9310      Z:     0.8597     Total:     2.1521

*** Psi4 exiting successfully. Buy a developer a beer!
