                               Psi4 1.3.2 release

  ==> Input File <==

--------------------------------------------------------------------------
#psi4
#
memory 32 gb

molecule  {
0 1
  O       -2.2580520    -1.6446380    -0.1299340
  O       -2.1922020    -0.0289620     1.4584460
  O        2.5787120    -1.2491670    -0.5482700
  N       -1.4644620     1.9009220    -0.4829880
  N        3.2843021     0.5370041     0.7518864
  C        0.0919590     0.0544950    -0.9741750
  C       -1.3719240     0.4734550    -0.7783870
  C        0.9633170     0.3705390     0.2368360
  C       -1.9915820    -0.3883620     0.3080910
  C        2.3594900    -0.2078000     0.0693900
  H        0.1535850    -1.0146500    -1.1939440
  H        0.4725780     0.5964070    -1.8456160
  H       -1.9082720     0.2705620    -1.7119190
  H        1.0131360     1.4533500     0.3956850
  H        0.5381800    -0.0660200     1.1504670
  H       -1.3038060     2.0229320     0.5177520
  H       -2.4253970     2.2086760    -0.6320610
  H        3.2135550     1.4259430     1.0332840
  H        4.3010400     0.1654310     0.5620470
  H       -2.5974020    -2.1351830     0.6479870
units angstrom
no_reorient  #important for SAPT in psi4, default
symmetry c1  #important for SAPT in psi4, default
}

set PROPERTIES_ORIGIN ["COM"]
properties('MP2/aug-cc-pvtz', properties = ['dipole'])
--------------------------------------------------------------------------

    Molecular point group: c1
  Charge       = 0
  Multiplicity = 1
  Basis Set: AUG-CC-PVTZ
    Blend: AUG-CC-PVTZ
  Basis Set: (AUG-CC-PVTZ AUX)
    Blend: AUG-CC-PVTZ-JKFIT

    Orbital Energies [Eh]
    ---------------------

    Doubly Occupied:

       1A    -20.624554     2A    -20.561425     3A    -20.528428
       4A    -15.592260     5A    -15.557167     6A    -11.394471
       7A    -11.360862     8A    -11.285066     9A    -11.242876
      10A    -11.236093    11A     -1.468816    12A     -1.378421
      13A     -1.366097    14A     -1.220415    15A     -1.206785
      16A     -1.069258    17A     -0.982149    18A     -0.884740
      19A     -0.813653    20A     -0.784006    21A     -0.732225
      22A     -0.713024    23A     -0.702640    24A     -0.678942
      25A     -0.654557    26A     -0.651694    27A     -0.620047
      28A     -0.603497    29A     -0.593094    30A     -0.581014
      31A     -0.554836    32A     -0.521080    33A     -0.508393
      34A     -0.498014    35A     -0.485479    36A     -0.463333
      37A     -0.431417    38A     -0.422987    39A     -0.416522

  @DF-RHF Final Energy:  -528.87640801002999

   => Energetics <=

    Nuclear Repulsion Energy =            548.7794514687529954
    One-Electron Energy =               -1812.5310408732811993
    Two-Electron Energy =                 734.8751813944982132
    Total Energy =                       -528.8764080100299907
  Basis Set: (AUG-CC-PVTZ AUX)
    Blend: AUG-CC-PVTZ-RI
    Molecular point group: c1

    Geometry (in Angstrom), charge = 0, multiplicity = 1:

       Center              X                  Y                   Z               Mass
    ------------   -----------------  -----------------  -----------------  -----------------
         O           -2.241839956502    -1.617137190982    -0.140214255788    15.994914619570
         O           -2.175989956502    -0.001461190982     1.448165744212    15.994914619570
         O            2.594924043498    -1.221666190982    -0.558550255788    15.994914619570
         N           -1.448249956502     1.928422809018    -0.493268255788    14.003074004430
         N            3.300514143498     0.564504909018     0.741606144212    14.003074004430
         C            0.108171043498     0.081995809018    -0.984455255788    12.000000000000
         C           -1.355711956502     0.500955809018    -0.788667255788    12.000000000000
         C            0.979529043498     0.398039809018     0.226555744212    12.000000000000
         C           -1.975369956502    -0.360861190982     0.297810744212    12.000000000000
         C            2.375702043498    -0.180299190982     0.059109744212    12.000000000000
         H            0.169797043498    -0.987149190982    -1.204224255788     1.007825032230
         H            0.488790043498     0.623907809018    -1.855896255788     1.007825032230
         H           -1.892059956502     0.298062809018    -1.722199255788     1.007825032230
         H            1.029348043498     1.480850809018     0.385404744212     1.007825032230
         H            0.554392043498    -0.038519190982     1.140186744212     1.007825032230
         H           -1.287593956502     2.050432809018     0.507471744212     1.007825032230
         H           -2.409184956502     2.236176809018    -0.642341255788     1.007825032230
         H            3.229767043498     1.453443809018     1.023003744212     1.007825032230
         H            4.317252043498     0.192931809018     0.551766744212     1.007825032230
         H           -2.581189956502    -2.107682190982     0.637706744212     1.007825032230

  Basis Set: AUG-CC-PVTZ
    Blend: AUG-CC-PVTZ
  Basis Set: (AUG-CC-PVTZ AUX)
    Blend: AUG-CC-PVTZ-JKFIT
	 Reference Energy          =    -528.8764080100299907 [Eh]
	 Singles Energy            =      -0.0000000000000000 [Eh]
	 Same-Spin Energy          =      -0.5285690825764962 [Eh]
	 Opposite-Spin Energy      =      -1.6371808068064402 [Eh]
	 Correlation Energy        =      -2.1657498893829361 [Eh]
	 Total Energy              =    -531.0421578994129277 [Eh]

	 ================> DF-SCS-MP2 Energies <==================
	-----------------------------------------------------------
	 SCS Same-Spin Scale       =       0.3333333333333333 [-]
	 SCS Opposite-Spin Scale   =       1.2000000000000000 [-]
	 SCS Same-Spin Energy      =      -0.1761896941921654 [Eh]
	 SCS Opposite-Spin Energy  =      -1.9646169681677281 [Eh]
	 SCS Correlation Energy    =      -2.1408066623598936 [Eh]
	 SCS Total Energy          =    -531.0172146723898550 [Eh]
	-----------------------------------------------------------

  Dipole Moment: [D]
     X:    -0.2714      Y:     1.8594      Z:     0.8184     Total:     2.0495

*** Psi4 exiting successfully. Buy a developer a beer!
