                               Psi4 1.3.2 release

  ==> Input File <==

--------------------------------------------------------------------------
#psi4
#
memory 32 gb

molecule  {
0 1
  O       -2.2580520    -1.6446380    -0.1299340
  O       -2.1922020    -0.0289620     1.4584460
  O        2.5994559    -1.2477682    -0.5428925
  N       -1.4644620     1.9009220    -0.4829880
  N        3.3512580     0.4763250     0.7206820
  C        0.0919590     0.0544950    -0.9741750
  C       -1.3719240     0.4734550    -0.7783870
  C        0.9633170     0.3705390     0.2368360
  C       -1.9915820    -0.3883620     0.3080910
  C        2.3594900    -0.2078000     0.0693900
  H        0.1535850    -1.0146500    -1.1939440
  H        0.4725780     0.5964070    -1.8456160
  H       -1.9082720     0.2705620    -1.7119190
  H        1.0131360     1.4533500     0.3956850
  H        0.5381800    -0.0660200     1.1504670
  H       -1.3038060     2.0229320     0.5177520
  H       -2.4253970     2.2086760    -0.6320610
  H        3.2135550     1.4259430     1.0332840
  H        4.3010400     0.1654310     0.5620470
  H       -2.5974020    -2.1351830     0.6479870
units angstrom
no_reorient  #important for SAPT in psi4, default
symmetry c1  #important for SAPT in psi4, default
}

set PROPERTIES_ORIGIN ["COM"]
properties('MP2/aug-cc-pvtz', properties = ['dipole'])
--------------------------------------------------------------------------

    Molecular point group: c1
  Charge       = 0
  Multiplicity = 1
  Basis Set: AUG-CC-PVTZ
    Blend: AUG-CC-PVTZ
  Basis Set: (AUG-CC-PVTZ AUX)
    Blend: AUG-CC-PVTZ-JKFIT

    Orbital Energies [Eh]
    ---------------------

    Doubly Occupied:

       1A    -20.625529     2A    -20.562593     3A    -20.522268
       4A    -15.588366     5A    -15.558439     6A    -11.395652
       7A    -11.357427     8A    -11.286707     9A    -11.247624
      10A    -11.238516    11A     -1.469867    12A     -1.376781
      13A     -1.367195    14A     -1.211402    15A     -1.207916
      16A     -1.072175    17A     -0.984423    18A     -0.885858
      19A     -0.803379    20A     -0.777700    21A     -0.731770
      22A     -0.714625    23A     -0.707221    24A     -0.689512
      25A     -0.656220    26A     -0.650847    27A     -0.620855
      28A     -0.604209    29A     -0.591708    30A     -0.585519
      31A     -0.554524    32A     -0.522689    33A     -0.510060
      34A     -0.501367    35A     -0.486879    36A     -0.464731
      37A     -0.429238    38A     -0.419952    39A     -0.415718

  @DF-RHF Final Energy:  -528.89167385124119

   => Energetics <=

    Nuclear Repulsion Energy =            548.2024370757660563
    One-Electron Energy =               -1811.3932983031438653
    Two-Electron Energy =                 734.2991873761366151
    Total Energy =                       -528.8916738512411939
  Basis Set: (AUG-CC-PVTZ AUX)
    Blend: AUG-CC-PVTZ-RI
    Molecular point group: c1

    Geometry (in Angstrom), charge = 0, multiplicity = 1:

       Center              X                  Y                   Z               Mass
    ------------   -----------------  -----------------  -----------------  -----------------
         O           -2.250530261060    -1.611473296275    -0.137811661620    15.994914619570
         O           -2.184680261060     0.004202703725     1.450568338380    15.994914619570
         O            2.606977638940    -1.214603496275    -0.550770161620    15.994914619570
         N           -1.456940261060     1.934086703725    -0.490865661620    14.003074004430
         N            3.358779738940     0.509489703725     0.712804338380    14.003074004430
         C            0.099480738940     0.087659703725    -0.982052661620    12.000000000000
         C           -1.364402261060     0.506619703725    -0.786264661620    12.000000000000
         C            0.970838738940     0.403703703725     0.228958338380    12.000000000000
         C           -1.984060261060    -0.355197296275     0.300213338380    12.000000000000
         C            2.367011738940    -0.174635296275     0.061512338380    12.000000000000
         H            0.161106738940    -0.981485296275    -1.201821661620     1.007825032230
         H            0.480099738940     0.629571703725    -1.853493661620     1.007825032230
         H           -1.900750261060     0.303726703725    -1.719796661620     1.007825032230
         H            1.020657738940     1.486514703725     0.387807338380     1.007825032230
         H            0.545701738940    -0.032855296275     1.142589338380     1.007825032230
         H           -1.296284261060     2.056096703725     0.509874338380     1.007825032230
         H           -2.417875261060     2.241840703725    -0.639938661620     1.007825032230
         H            3.221076738940     1.459107703725     1.025406338380     1.007825032230
         H            4.308561738940     0.198595703725     0.554169338380     1.007825032230
         H           -2.589880261060    -2.102018296275     0.640109338380     1.007825032230

  Basis Set: AUG-CC-PVTZ
    Blend: AUG-CC-PVTZ
  Basis Set: (AUG-CC-PVTZ AUX)
    Blend: AUG-CC-PVTZ-JKFIT
	 Reference Energy          =    -528.8916738512411939 [Eh]
	 Singles Energy            =      -0.0000000000000000 [Eh]
	 Same-Spin Energy          =      -0.5280230803069669 [Eh]
	 Opposite-Spin Energy      =      -1.6358831581860844 [Eh]
	 Correlation Energy        =      -2.1639062384930514 [Eh]
	 Total Energy              =    -531.0555800897342351 [Eh]

	 ================> DF-SCS-MP2 Energies <==================
	-----------------------------------------------------------
	 SCS Same-Spin Scale       =       0.3333333333333333 [-]
	 SCS Opposite-Spin Scale   =       1.2000000000000000 [-]
	 SCS Same-Spin Energy      =      -0.1760076934356556 [Eh]
	 SCS Opposite-Spin Energy  =      -1.9630597898233013 [Eh]
	 SCS Correlation Energy    =      -2.1390674832589571 [Eh]
	 SCS Total Energy          =    -531.0307413345001351 [Eh]
	-----------------------------------------------------------

  Dipole Moment: [D]
     X:    -0.4778      Y:     1.9340      Z:     0.8465     Total:     2.1645

*** Psi4 exiting successfully. Buy a developer a beer!
