                               Psi4 1.3.2 release

  ==> Input File <==

--------------------------------------------------------------------------
#psi4
#
memory 32 gb

molecule  {
0 1
  O       -2.2580520    -1.6446380    -0.1299340
  O       -2.1922020    -0.0289620     1.4584460
  O        2.5787120    -1.2491670    -0.5482700
  N       -1.4644620     1.9009220    -0.4829880
  N        3.3512580     0.4763250     0.7206820
  C        0.0919590     0.0544950    -0.9741750
  C       -1.3719240     0.4734550    -0.7783870
  C        0.9633170     0.3705390     0.2368360
  C       -1.9915820    -0.3883620     0.3080910
  C        2.3047079    -0.1299352     0.0780363
  H        0.1535850    -1.0146500    -1.1939440
  H        0.4725780     0.5964070    -1.8456160
  H       -1.9082720     0.2705620    -1.7119190
  H        1.0131360     1.4533500     0.3956850
  H        0.5381800    -0.0660200     1.1504670
  H       -1.3038060     2.0229320     0.5177520
  H       -2.4253970     2.2086760    -0.6320610
  H        3.2135550     1.4259430     1.0332840
  H        4.3010400     0.1654310     0.5620470
  H       -2.5974020    -2.1351830     0.6479870
units angstrom
no_reorient  #important for SAPT in psi4, default
symmetry c1  #important for SAPT in psi4, default
}

set PROPERTIES_ORIGIN ["COM"]
properties('MP2/aug-cc-pvtz', properties = ['dipole'])
--------------------------------------------------------------------------

    Molecular point group: c1
  Charge       = 0
  Multiplicity = 1
  Basis Set: AUG-CC-PVTZ
    Blend: AUG-CC-PVTZ
  Basis Set: (AUG-CC-PVTZ AUX)
    Blend: AUG-CC-PVTZ-JKFIT

    Orbital Energies [Eh]
    ---------------------

    Doubly Occupied:

       1A    -20.626768     2A    -20.564504     3A    -20.511388
       4A    -15.596338     5A    -15.560419     6A    -11.397450
       7A    -11.363451     8A    -11.288833     9A    -11.250595
      10A    -11.241883    11A     -1.471353    12A     -1.368891
      13A     -1.333832    14A     -1.210648    15A     -1.205227
      16A     -1.084048    17A     -0.995901    18A     -0.894829
      19A     -0.806433    20A     -0.778580    21A     -0.732093
      22A     -0.716692    23A     -0.710377    24A     -0.695894
      25A     -0.661197    26A     -0.648479    27A     -0.623436
      28A     -0.606772    29A     -0.592123    30A     -0.569010
      31A     -0.547447    32A     -0.523727    33A     -0.507075
      34A     -0.503748    35A     -0.487686    36A     -0.466786
      37A     -0.423577    38A     -0.421156    39A     -0.404213

  @DF-RHF Final Energy:  -528.87158276823197

   => Energetics <=

    Nuclear Repulsion Energy =            548.4643375616665253
    One-Electron Energy =               -1811.8861219574907864
    Two-Electron Energy =                 734.5502016275922870
    Total Energy =                       -528.8715827682319741
  Basis Set: (AUG-CC-PVTZ AUX)
    Blend: AUG-CC-PVTZ-RI
    Molecular point group: c1

    Geometry (in Angstrom), charge = 0, multiplicity = 1:

       Center              X                  Y                   Z               Mass
    ------------   -----------------  -----------------  -----------------  -----------------
         O           -2.243758248199    -1.617716941577    -0.137933131127    15.994914619570
         O           -2.177908248199    -0.002040941577     1.450446868873    15.994914619570
         O            2.593005751801    -1.222245941577    -0.556269131127    15.994914619570
         N           -1.450168248199     1.927843058423    -0.490987131127    14.003074004430
         N            3.365551751801     0.503246058423     0.712682868873    14.003074004430
         C            0.106252751801     0.081416058423    -0.982174131127    12.000000000000
         C           -1.357630248199     0.500376058423    -0.786386131127    12.000000000000
         C            0.977610751801     0.397460058423     0.228836868873    12.000000000000
         C           -1.977288248199    -0.361440941577     0.300091868873    12.000000000000
         C            2.319001651801    -0.103014141577     0.070037168873    12.000000000000
         H            0.167878751801    -0.987728941577    -1.201943131127     1.007825032230
         H            0.486871751801     0.623328058423    -1.853615131127     1.007825032230
         H           -1.893978248199     0.297483058423    -1.719918131127     1.007825032230
         H            1.027429751801     1.480271058423     0.387685868873     1.007825032230
         H            0.552473751801    -0.039098941577     1.142467868873     1.007825032230
         H           -1.289512248199     2.049853058423     0.509752868873     1.007825032230
         H           -2.411103248199     2.235597058423    -0.640060131127     1.007825032230
         H            3.227848751801     1.452864058423     1.025284868873     1.007825032230
         H            4.315333751801     0.192352058423     0.554047868873     1.007825032230
         H           -2.583108248199    -2.108261941577     0.639987868873     1.007825032230

  Basis Set: AUG-CC-PVTZ
    Blend: AUG-CC-PVTZ
  Basis Set: (AUG-CC-PVTZ AUX)
    Blend: AUG-CC-PVTZ-JKFIT
	 Reference Energy          =    -528.8715827682319741 [Eh]
	 Singles Energy            =      -0.0000000000000000 [Eh]
	 Same-Spin Energy          =      -0.5303788498320243 [Eh]
	 Opposite-Spin Energy      =      -1.6405645583039692 [Eh]
	 Correlation Energy        =      -2.1709434081359937 [Eh]
	 Total Energy              =    -531.0425261763679146 [Eh]

	 ================> DF-SCS-MP2 Energies <==================
	-----------------------------------------------------------
	 SCS Same-Spin Scale       =       0.3333333333333333 [-]
	 SCS Opposite-Spin Scale   =       1.2000000000000000 [-]
	 SCS Same-Spin Energy      =      -0.1767929499440081 [Eh]
	 SCS Opposite-Spin Energy  =      -1.9686774699647629 [Eh]
	 SCS Correlation Energy    =      -2.1454704199087709 [Eh]
	 SCS Total Energy          =    -531.0170531881407214 [Eh]
	-----------------------------------------------------------

  Dipole Moment: [D]
     X:    -0.6771      Y:     2.2532      Z:     1.0172     Total:     2.5632

*** Psi4 exiting successfully. Buy a developer a beer!
