                               Psi4 1.3.2 release

  ==> Input File <==

--------------------------------------------------------------------------
#psi4
#
memory 32 gb

molecule  {
0 1
  O       -2.2580520    -1.6446380    -0.1299340
  O       -2.1922020    -0.0289620     1.4584460
  O        2.5787120    -1.2491670    -0.5482700
  N       -1.4644620     1.9009220    -0.4829880
  N        3.3512580     0.4763250     0.7206820
  C        0.0919590     0.0544950    -0.9741750
  C       -1.3719240     0.4734550    -0.7783870
  C        0.9633170     0.3705390     0.2368360
  C       -1.9915820    -0.3883620     0.3080910
  C        2.4191039    -0.2823318     0.0639167
  H        0.1535850    -1.0146500    -1.1939440
  H        0.4725780     0.5964070    -1.8456160
  H       -1.9082720     0.2705620    -1.7119190
  H        1.0131360     1.4533500     0.3956850
  H        0.5381800    -0.0660200     1.1504670
  H       -1.3038060     2.0229320     0.5177520
  H       -2.4253970     2.2086760    -0.6320610
  H        3.2135550     1.4259430     1.0332840
  H        4.3010400     0.1654310     0.5620470
  H       -2.5974020    -2.1351830     0.6479870
units angstrom
no_reorient  #important for SAPT in psi4, default
symmetry c1  #important for SAPT in psi4, default
}

set PROPERTIES_ORIGIN ["COM"]
properties('MP2/aug-cc-pvtz', properties = ['dipole'])
--------------------------------------------------------------------------

    Molecular point group: c1
  Charge       = 0
  Multiplicity = 1
  Basis Set: AUG-CC-PVTZ
    Blend: AUG-CC-PVTZ
  Basis Set: (AUG-CC-PVTZ AUX)
    Blend: AUG-CC-PVTZ-JKFIT

    Orbital Energies [Eh]
    ---------------------

    Doubly Occupied:

       1A    -20.623300     2A    -20.559581     3A    -20.534114
       4A    -15.585101     5A    -15.555180     6A    -11.392735
       7A    -11.353001     8A    -11.283173     9A    -11.239378
      10A    -11.233397    11A     -1.467346    12A     -1.429369
      13A     -1.364440    14A     -1.216145    15A     -1.204634
      16A     -1.060790    17A     -0.972041    18A     -0.875164
      19A     -0.801165    20A     -0.777251    21A     -0.731502
      22A     -0.711895    23A     -0.704262    24A     -0.685821
      25A     -0.663230    26A     -0.651691    27A     -0.620211
      28A     -0.605301    29A     -0.604550    30A     -0.580574
      31A     -0.565844    32A     -0.522340    33A     -0.509458
      34A     -0.496116    35A     -0.484477    36A     -0.461369
      37A     -0.432014    38A     -0.420606    39A     -0.410622

  @DF-RHF Final Energy:  -528.88479662377347

   => Energetics <=

    Nuclear Repulsion Energy =            548.3669789563908807
    One-Electron Energy =               -1811.7251737226727073
    Two-Electron Energy =                 734.4733981425084721
    Total Energy =                       -528.8847966237734681
  Basis Set: (AUG-CC-PVTZ AUX)
    Blend: AUG-CC-PVTZ-RI
    Molecular point group: c1

    Geometry (in Angstrom), charge = 0, multiplicity = 1:

       Center              X                  Y                   Z               Mass
    ------------   -----------------  -----------------  -----------------  -----------------
         O           -2.253156208504    -1.605197122726    -0.136773165391    15.994914619570
         O           -2.187306208504     0.010478877274     1.451606834609    15.994914619570
         O            2.583607791496    -1.209726122726    -0.555109165391    15.994914619570
         N           -1.459566208504     1.940362877274    -0.489827165391    14.003074004430
         N            3.356153791496     0.515765877274     0.713842834609    14.003074004430
         C            0.096854791496     0.093935877274    -0.981014165391    12.000000000000
         C           -1.367028208504     0.512895877274    -0.785226165391    12.000000000000
         C            0.968212791496     0.409979877274     0.229996834609    12.000000000000
         C           -1.986686208504    -0.348921122726     0.301251834609    12.000000000000
         C            2.423999691496    -0.242890922726     0.057077534609    12.000000000000
         H            0.158480791496    -0.975209122726    -1.200783165391     1.007825032230
         H            0.477473791496     0.635847877274    -1.852455165391     1.007825032230
         H           -1.903376208504     0.310002877274    -1.718758165391     1.007825032230
         H            1.018031791496     1.492790877274     0.388845834609     1.007825032230
         H            0.543075791496    -0.026579122726     1.143627834609     1.007825032230
         H           -1.298910208504     2.062372877274     0.510912834609     1.007825032230
         H           -2.420501208504     2.248116877274    -0.638900165391     1.007825032230
         H            3.218450791496     1.465383877274     1.026444834609     1.007825032230
         H            4.305935791496     0.204871877274     0.555207834609     1.007825032230
         H           -2.592506208504    -2.095742122726     0.641147834609     1.007825032230

  Basis Set: AUG-CC-PVTZ
    Blend: AUG-CC-PVTZ
  Basis Set: (AUG-CC-PVTZ AUX)
    Blend: AUG-CC-PVTZ-JKFIT
	 Reference Energy          =    -528.8847966237734681 [Eh]
	 Singles Energy            =      -0.0000000000000000 [Eh]
	 Same-Spin Energy          =      -0.5265709753684953 [Eh]
	 Opposite-Spin Energy      =      -1.6328353084363454 [Eh]
	 Correlation Energy        =      -2.1594062838048407 [Eh]
	 Total Energy              =    -531.0442029075783239 [Eh]

	 ================> DF-SCS-MP2 Energies <==================
	-----------------------------------------------------------
	 SCS Same-Spin Scale       =       0.3333333333333333 [-]
	 SCS Opposite-Spin Scale   =       1.2000000000000000 [-]
	 SCS Same-Spin Energy      =      -0.1755236584561651 [Eh]
	 SCS Opposite-Spin Energy  =      -1.9594023701236143 [Eh]
	 SCS Correlation Energy    =      -2.1349260285797795 [Eh]
	 SCS Total Energy          =    -531.0197226523532663 [Eh]
	-----------------------------------------------------------

  Dipole Moment: [D]
     X:    -0.0419      Y:     1.5548      Z:     0.7008     Total:     1.7059

*** Psi4 exiting successfully. Buy a developer a beer!
