                               Psi4 1.3.2 release

  ==> Input File <==

--------------------------------------------------------------------------
#psi4
#
memory 32 gb

molecule  {
0 1
  O       -2.2580520    -1.6446380    -0.1299340
  O       -2.1922020    -0.0289620     1.4584460
  O        2.5787120    -1.2491670    -0.5482700
  N       -1.4644620     1.9009220    -0.4829880
  N        3.4133821     0.4123129     0.6863045
  C        0.0919590     0.0544950    -0.9741750
  C       -1.3719240     0.4734550    -0.7783870
  C        0.9633170     0.3705390     0.2368360
  C       -1.9915820    -0.3883620     0.3080910
  C        2.3594900    -0.2078000     0.0693900
  H        0.1535850    -1.0146500    -1.1939440
  H        0.4725780     0.5964070    -1.8456160
  H       -1.9082720     0.2705620    -1.7119190
  H        1.0131360     1.4533500     0.3956850
  H        0.5381800    -0.0660200     1.1504670
  H       -1.3038060     2.0229320     0.5177520
  H       -2.4253970     2.2086760    -0.6320610
  H        3.2135550     1.4259430     1.0332840
  H        4.3010400     0.1654310     0.5620470
  H       -2.5974020    -2.1351830     0.6479870
units angstrom
no_reorient  #important for SAPT in psi4, default
symmetry c1  #important for SAPT in psi4, default
}

set PROPERTIES_ORIGIN ["COM"]
properties('MP2/aug-cc-pvtz', properties = ['dipole'])
--------------------------------------------------------------------------

    Molecular point group: c1
  Charge       = 0
  Multiplicity = 1
  Basis Set: AUG-CC-PVTZ
    Blend: AUG-CC-PVTZ
  Basis Set: (AUG-CC-PVTZ AUX)
    Blend: AUG-CC-PVTZ-JKFIT

    Orbital Energies [Eh]
    ---------------------

    Doubly Occupied:

       1A    -20.625998     2A    -20.563208     3A    -20.517750
       4A    -15.587000     5A    -15.559082     6A    -11.396275
       7A    -11.356635     8A    -11.287617     9A    -11.250955
      10A    -11.239765    11A     -1.470393    12A     -1.376458
      13A     -1.367761    14A     -1.209639    15A     -1.207857
      16A     -1.074161    17A     -0.986498    18A     -0.889078
      19A     -0.809197    20A     -0.779187    21A     -0.723136
      22A     -0.714040    23A     -0.706643    24A     -0.694942
      25A     -0.657576    26A     -0.650760    27A     -0.621539
      28A     -0.604828    29A     -0.589743    30A     -0.584102
      31A     -0.554402    32A     -0.523180    33A     -0.511169
      34A     -0.503369    35A     -0.487609    36A     -0.465504
      37A     -0.426688    38A     -0.420142    39A     -0.413306

  @DF-RHF Final Energy:  -528.87810447550464

   => Energetics <=

    Nuclear Repulsion Energy =            548.1229239163619695
    One-Electron Energy =               -1811.1876723471714286
    Two-Electron Energy =                 734.1866439553048167
    Total Energy =                       -528.8781044755046423
  Basis Set: (AUG-CC-PVTZ AUX)
    Blend: AUG-CC-PVTZ-RI
    Molecular point group: c1

    Geometry (in Angstrom), charge = 0, multiplicity = 1:

       Center              X                  Y                   Z               Mass
    ------------   -----------------  -----------------  -----------------  -----------------
         O           -2.254214348282    -1.605183536191    -0.133927177044    15.994914619570
         O           -2.188364348282     0.010492463809     1.454452822956    15.994914619570
         O            2.582549651718    -1.209712536191    -0.552263177044    15.994914619570
         N           -1.460624348282     1.940376463809    -0.486981177044    14.003074004430
         N            3.417219751718     0.451767363809     0.682311322956    14.003074004430
         C            0.095796651718     0.093949463809    -0.978168177044    12.000000000000
         C           -1.368086348282     0.512909463809    -0.782380177044    12.000000000000
         C            0.967154651718     0.409993463809     0.232842822956    12.000000000000
         C           -1.987744348282    -0.348907536191     0.304097822956    12.000000000000
         C            2.363327651718    -0.168345536191     0.065396822956    12.000000000000
         H            0.157422651718    -0.975195536191    -1.197937177044     1.007825032230
         H            0.476415651718     0.635861463809    -1.849609177044     1.007825032230
         H           -1.904434348282     0.310016463809    -1.715912177044     1.007825032230
         H            1.016973651718     1.492804463809     0.391691822956     1.007825032230
         H            0.542017651718    -0.026565536191     1.146473822956     1.007825032230
         H           -1.299968348282     2.062386463809     0.513758822956     1.007825032230
         H           -2.421559348282     2.248130463809    -0.636054177044     1.007825032230
         H            3.217392651718     1.465397463809     1.029290822956     1.007825032230
         H            4.304877651718     0.204885463809     0.558053822956     1.007825032230
         H           -2.593564348282    -2.095728536191     0.643993822956     1.007825032230

  Basis Set: AUG-CC-PVTZ
    Blend: AUG-CC-PVTZ
  Basis Set: (AUG-CC-PVTZ AUX)
    Blend: AUG-CC-PVTZ-JKFIT
	 Reference Energy          =    -528.8781044755046423 [Eh]
	 Singles Energy            =      -0.0000000000000000 [Eh]
	 Same-Spin Energy          =      -0.5279266537698810 [Eh]
	 Opposite-Spin Energy      =      -1.6360175291301791 [Eh]
	 Correlation Energy        =      -2.1639441829000603 [Eh]
	 Total Energy              =    -531.0420486584047239 [Eh]

	 ================> DF-SCS-MP2 Energies <==================
	-----------------------------------------------------------
	 SCS Same-Spin Scale       =       0.3333333333333333 [-]
	 SCS Opposite-Spin Scale   =       1.2000000000000000 [-]
	 SCS Same-Spin Energy      =      -0.1759755512566270 [Eh]
	 SCS Opposite-Spin Energy  =      -1.9632210349562147 [Eh]
	 SCS Correlation Energy    =      -2.1391965862128419 [Eh]
	 SCS Total Energy          =    -531.0173010617174896 [Eh]
	-----------------------------------------------------------

  Dipole Moment: [D]
     X:    -0.5790      Y:     1.9769      Z:     0.8777     Total:     2.2391

*** Psi4 exiting successfully. Buy a developer a beer!
