                               Psi4 1.3.2 release

  ==> Input File <==

--------------------------------------------------------------------------
#psi4
#
memory 32 gb

molecule  {
0 1
  O       -2.2580520    -1.6446380    -0.1299340
  O       -2.1922020    -0.0289620     1.4584460
  O        2.5787120    -1.2491670    -0.5482700
  N       -1.4644620     1.9009220    -0.4829880
  N        3.2491133     0.5660008     0.7662507
  C        0.0919590     0.0544950    -0.9741750
  C       -1.3719240     0.4734550    -0.7783870
  C        0.9633170     0.3705390     0.2368360
  C       -1.9915820    -0.3883620     0.3080910
  C        2.3594900    -0.2078000     0.0693900
  H        0.1535850    -1.0146500    -1.1939440
  H        0.4725780     0.5964070    -1.8456160
  H       -1.9082720     0.2705620    -1.7119190
  H        1.0131360     1.4533500     0.3956850
  H        0.5381800    -0.0660200     1.1504670
  H       -1.3038060     2.0229320     0.5177520
  H       -2.4253970     2.2086760    -0.6320610
  H        3.2135550     1.4259430     1.0332840
  H        4.3010400     0.1654310     0.5620470
  H       -2.5974020    -2.1351830     0.6479870
units angstrom
no_reorient  #important for SAPT in psi4, default
symmetry c1  #important for SAPT in psi4, default
}

set PROPERTIES_ORIGIN ["COM"]
properties('MP2/aug-cc-pvtz', properties = ['dipole'])
--------------------------------------------------------------------------

    Molecular point group: c1
  Charge       = 0
  Multiplicity = 1
  Basis Set: AUG-CC-PVTZ
    Blend: AUG-CC-PVTZ
  Basis Set: (AUG-CC-PVTZ AUX)
    Blend: AUG-CC-PVTZ-JKFIT

    Orbital Energies [Eh]
    ---------------------

    Doubly Occupied:

       1A    -20.624306     2A    -20.561100     3A    -20.531645
       4A    -15.593643     5A    -15.556813     6A    -11.394142
       7A    -11.363310     8A    -11.284582     9A    -11.241272
      10A    -11.235363    11A     -1.468537    12A     -1.379743
      13A     -1.365798    14A     -1.225471    15A     -1.206401
      16A     -1.068495    17A     -0.981789    18A     -0.886065
      19A     -0.823848    20A     -0.785154    21A     -0.730632
      22A     -0.712548    23A     -0.701190    24A     -0.672730
      25A     -0.654768    26A     -0.651325    27A     -0.620023
      28A     -0.603545    29A     -0.592723    30A     -0.577410
      31A     -0.555287    32A     -0.520664    33A     -0.507965
      34A     -0.496564    35A     -0.485088    36A     -0.462903
      37A     -0.432751    38A     -0.424871    39A     -0.416158

  @DF-RHF Final Energy:  -528.85873604599021

   => Energetics <=

    Nuclear Repulsion Energy =            549.0277754864588360
    One-Electron Energy =               -1812.9797789778313017
    Two-Electron Energy =                 735.0932674453823665
    Total Energy =                       -528.8587360459902129
  Basis Set: (AUG-CC-PVTZ AUX)
    Blend: AUG-CC-PVTZ-RI
    Molecular point group: c1

    Geometry (in Angstrom), charge = 0, multiplicity = 1:

       Center              X                  Y                   Z               Mass
    ------------   -----------------  -----------------  -----------------  -----------------
         O           -2.238466544684    -1.619916990533    -0.141591304718    15.994914619570
         O           -2.172616544684    -0.004240990533     1.446788695282    15.994914619570
         O            2.598297455316    -1.224445990533    -0.559927304718    15.994914619570
         N           -1.444876544684     1.925643009467    -0.494645304718    14.003074004430
         N            3.268698755316     0.590721809467     0.754593395282    14.003074004430
         C            0.111544455316     0.079216009467    -0.985832304718    12.000000000000
         C           -1.352338544684     0.498176009467    -0.790044304718    12.000000000000
         C            0.982902455316     0.395260009467     0.225178695282    12.000000000000
         C           -1.971996544684    -0.363640990533     0.296433695282    12.000000000000
         C            2.379075455316    -0.183078990533     0.057732695282    12.000000000000
         H            0.173170455316    -0.989928990533    -1.205601304718     1.007825032230
         H            0.492163455316     0.621128009467    -1.857273304718     1.007825032230
         H           -1.888686544684     0.295283009467    -1.723576304718     1.007825032230
         H            1.032721455316     1.478071009467     0.384027695282     1.007825032230
         H            0.557765455316    -0.041298990533     1.138809695282     1.007825032230
         H           -1.284220544684     2.047653009467     0.506094695282     1.007825032230
         H           -2.405811544684     2.233397009467    -0.643718304718     1.007825032230
         H            3.233140455316     1.450664009467     1.021626695282     1.007825032230
         H            4.320625455316     0.190152009467     0.550389695282     1.007825032230
         H           -2.577816544684    -2.110461990533     0.636329695282     1.007825032230

  Basis Set: AUG-CC-PVTZ
    Blend: AUG-CC-PVTZ
  Basis Set: (AUG-CC-PVTZ AUX)
    Blend: AUG-CC-PVTZ-JKFIT
	 Reference Energy          =    -528.8587360459902129 [Eh]
	 Singles Energy            =      -0.0000000000000000 [Eh]
	 Same-Spin Energy          =      -0.5289783785412832 [Eh]
	 Opposite-Spin Energy      =      -1.6383166519118584 [Eh]
	 Correlation Energy        =      -2.1672950304531415 [Eh]
	 Total Energy              =    -531.0260310764433598 [Eh]

	 ================> DF-SCS-MP2 Energies <==================
	-----------------------------------------------------------
	 SCS Same-Spin Scale       =       0.3333333333333333 [-]
	 SCS Opposite-Spin Scale   =       1.2000000000000000 [-]
	 SCS Same-Spin Energy      =      -0.1763261261804277 [Eh]
	 SCS Opposite-Spin Energy  =      -1.9659799822942299 [Eh]
	 SCS Correlation Energy    =      -2.1423061084746577 [Eh]
	 SCS Total Energy          =    -531.0010421544649262 [Eh]
	-----------------------------------------------------------

  Dipole Moment: [D]
     X:    -0.2226      Y:     1.8171      Z:     0.7903     Total:     1.9940

*** Psi4 exiting successfully. Buy a developer a beer!
