                               Psi4 1.3.2 release

  ==> Input File <==

--------------------------------------------------------------------------
#psi4
#
memory 32 gb

molecule  {
0 1
  O       -2.2580520    -1.6446380    -0.1299340
  O       -2.1922020    -0.0289620     1.4584460
  O        2.5579014    -1.2502486    -0.5534593
  N       -1.4644620     1.9009220    -0.4829880
  N        3.3512580     0.4763250     0.7206820
  C        0.0919590     0.0544950    -0.9741750
  C       -1.3719240     0.4734550    -0.7783870
  C        0.9633170     0.3705390     0.2368360
  C       -1.9915820    -0.3883620     0.3080910
  C        2.3594900    -0.2078000     0.0693900
  H        0.1535850    -1.0146500    -1.1939440
  H        0.4725780     0.5964070    -1.8456160
  H       -1.9082720     0.2705620    -1.7119190
  H        1.0131360     1.4533500     0.3956850
  H        0.5381800    -0.0660200     1.1504670
  H       -1.3038060     2.0229320     0.5177520
  H       -2.4253970     2.2086760    -0.6320610
  H        3.2135550     1.4259430     1.0332840
  H        4.3010400     0.1654310     0.5620470
  H       -2.5974020    -2.1351830     0.6479870
units angstrom
no_reorient  #important for SAPT in psi4, default
symmetry c1  #important for SAPT in psi4, default
}

set PROPERTIES_ORIGIN ["COM"]
properties('MP2/aug-cc-pvtz', properties = ['dipole'])
--------------------------------------------------------------------------

    Molecular point group: c1
  Charge       = 0
  Multiplicity = 1
  Basis Set: AUG-CC-PVTZ
    Blend: AUG-CC-PVTZ
  Basis Set: (AUG-CC-PVTZ AUX)
    Blend: AUG-CC-PVTZ-JKFIT

    Orbital Energies [Eh]
    ---------------------

    Doubly Occupied:

       1A    -20.624852     2A    -20.561858     3A    -20.522918
       4A    -15.590861     5A    -15.557624     6A    -11.394909
       7A    -11.357760     8A    -11.285743     9A    -11.245610
      10A    -11.237051    11A     -1.469166    12A     -1.376680
      13A     -1.366487    14A     -1.214042    15A     -1.207296
      16A     -1.070597    17A     -0.983280    18A     -0.885061
      19A     -0.803598    20A     -0.777462    21A     -0.732141
      22A     -0.714084    23A     -0.706990    24A     -0.689363
      25A     -0.655424    26A     -0.651196    27A     -0.620228
      28A     -0.603633    29A     -0.591789    30A     -0.584719
      31A     -0.554121    32A     -0.521417    33A     -0.509074
      34A     -0.500105    35A     -0.485984    36A     -0.463938
      37A     -0.428886    38A     -0.420258    39A     -0.416497

  @DF-RHF Final Energy:  -528.89151762713459

   => Energetics <=

    Nuclear Repulsion Energy =            548.5677366442026823
    One-Electron Energy =               -1812.1531039664891978
    Two-Electron Energy =                 734.6938496951518118
    Total Energy =                       -528.8915176271345899
  Basis Set: (AUG-CC-PVTZ AUX)
    Blend: AUG-CC-PVTZ-RI
    Molecular point group: c1

    Geometry (in Angstrom), charge = 0, multiplicity = 1:

       Center              X                  Y                   Z               Mass
    ------------   -----------------  -----------------  -----------------  -----------------
         O           -2.245979945575    -1.611201686641    -0.136654572168    15.994914619570
         O           -2.180129945575     0.004474313359     1.451725427832    15.994914619570
         O            2.569973454425    -1.216812286641    -0.560179872168    15.994914619570
         N           -1.452389945575     1.934358313359    -0.489708572168    14.003074004430
         N            3.363330054425     0.509761313359     0.713961427832    14.003074004430
         C            0.104031054425     0.087931313359    -0.980895572168    12.000000000000
         C           -1.359851945575     0.506891313359    -0.785107572168    12.000000000000
         C            0.975389054425     0.403975313359     0.230115427832    12.000000000000
         C           -1.979509945575    -0.354925686641     0.301370427832    12.000000000000
         C            2.371562054425    -0.174363686641     0.062669427832    12.000000000000
         H            0.165657054425    -0.981213686641    -1.200664572168     1.007825032230
         H            0.484650054425     0.629843313359    -1.852336572168     1.007825032230
         H           -1.896199945575     0.303998313359    -1.718639572168     1.007825032230
         H            1.025208054425     1.486786313359     0.388964427832     1.007825032230
         H            0.550252054425    -0.032583686641     1.143746427832     1.007825032230
         H           -1.291733945575     2.056368313359     0.511031427832     1.007825032230
         H           -2.413324945575     2.242112313359    -0.638781572168     1.007825032230
         H            3.225627054425     1.459379313359     1.026563427832     1.007825032230
         H            4.313112054425     0.198867313359     0.555326427832     1.007825032230
         H           -2.585329945575    -2.101746686641     0.641266427832     1.007825032230

  Basis Set: AUG-CC-PVTZ
    Blend: AUG-CC-PVTZ
  Basis Set: (AUG-CC-PVTZ AUX)
    Blend: AUG-CC-PVTZ-JKFIT
	 Reference Energy          =    -528.8915176271345899 [Eh]
	 Singles Energy            =      -0.0000000000000000 [Eh]
	 Same-Spin Energy          =      -0.5280834040311693 [Eh]
	 Opposite-Spin Energy      =      -1.6359701393504342 [Eh]
	 Correlation Energy        =      -2.1640535433816037 [Eh]
	 Total Energy              =    -531.0555711705161457 [Eh]

	 ================> DF-SCS-MP2 Energies <==================
	-----------------------------------------------------------
	 SCS Same-Spin Scale       =       0.3333333333333333 [-]
	 SCS Opposite-Spin Scale   =       1.2000000000000000 [-]
	 SCS Same-Spin Energy      =      -0.1760278013437231 [Eh]
	 SCS Opposite-Spin Energy  =      -1.9631641672205209 [Eh]
	 SCS Correlation Energy    =      -2.1391919685642442 [Eh]
	 SCS Total Energy          =    -531.0307095956987951 [Eh]
	-----------------------------------------------------------

  Dipole Moment: [D]
     X:    -0.3309      Y:     1.9269      Z:     0.8723     Total:     2.1409

*** Psi4 exiting successfully. Buy a developer a beer!
