                               Psi4 1.3.2 release

  ==> Input File <==

--------------------------------------------------------------------------
#psi4
#
memory 32 gb

molecule  {
0 1
  O       -2.2580520    -1.6446380    -0.1299340
  O       -2.1922020    -0.0289620     1.4584460
  O        2.5787120    -1.2491670    -0.5482700
  N       -1.4644620     1.9009220    -0.4829880
  N        3.3512580     0.4763250     0.7206820
  C        0.0919590     0.0544950    -0.9741750
  C       -1.3719240     0.4734550    -0.7783870
  C        0.9633170     0.3705390     0.2368360
  C       -1.9915820    -0.3883620     0.3080910
  C        2.4513154    -0.2458370     0.0583772
  H        0.1535850    -1.0146500    -1.1939440
  H        0.4725780     0.5964070    -1.8456160
  H       -1.9082720     0.2705620    -1.7119190
  H        1.0131360     1.4533500     0.3956850
  H        0.5381800    -0.0660200     1.1504670
  H       -1.3038060     2.0229320     0.5177520
  H       -2.4253970     2.2086760    -0.6320610
  H        3.2135550     1.4259430     1.0332840
  H        4.3010400     0.1654310     0.5620470
  H       -2.5974020    -2.1351830     0.6479870
units angstrom
no_reorient  #important for SAPT in psi4, default
symmetry c1  #important for SAPT in psi4, default
}

set PROPERTIES_ORIGIN ["COM"]
properties('MP2/aug-cc-pvtz', properties = ['dipole'])
--------------------------------------------------------------------------

    Molecular point group: c1
  Charge       = 0
  Multiplicity = 1
  Basis Set: AUG-CC-PVTZ
    Blend: AUG-CC-PVTZ
  Basis Set: (AUG-CC-PVTZ AUX)
    Blend: AUG-CC-PVTZ-JKFIT

    Orbital Energies [Eh]
    ---------------------

    Doubly Occupied:

       1A    -20.622406     2A    -20.558771     3A    -20.527615
       4A    -15.593528     5A    -15.554321     6A    -11.391908
       7A    -11.352618     8A    -11.282213     9A    -11.238907
      10A    -11.231827    11A     -1.466481    12A     -1.410524
      13A     -1.363619    14A     -1.234038    15A     -1.203792
      16A     -1.058377    17A     -0.969868    18A     -0.874348
      19A     -0.808339    20A     -0.779964    21A     -0.736550
      22A     -0.711804    23A     -0.705335    24A     -0.683810
      25A     -0.658712    26A     -0.650087    27A     -0.618228
      28A     -0.603419    29A     -0.595970    30A     -0.579755
      31A     -0.564646    32A     -0.519864    33A     -0.507688
      34A     -0.494565    35A     -0.483261    36A     -0.460391
      37A     -0.433465    38A     -0.418255    39A     -0.408756

  @DF-RHF Final Energy:  -528.88451131676982

   => Energetics <=

    Nuclear Repulsion Energy =            548.0874510790515615
    One-Electron Energy =               -1811.2278706303839044
    Two-Electron Energy =                 734.2559082345625256
    Total Energy =                       -528.8845113167698173
  Basis Set: (AUG-CC-PVTZ AUX)
    Blend: AUG-CC-PVTZ-RI
    Molecular point group: c1

    Geometry (in Angstrom), charge = 0, multiplicity = 1:

       Center              X                  Y                   Z               Mass
    ------------   -----------------  -----------------  -----------------  -----------------
         O           -2.255802475841    -1.608195275473    -0.136318079539    15.994914619570
         O           -2.189952475841     0.007480724527     1.452061920461    15.994914619570
         O            2.580961524159    -1.212724275473    -0.554654079539    15.994914619570
         N           -1.462212475841     1.937364724527    -0.489372079539    14.003074004430
         N            3.353507524159     0.512767724527     0.714297920461    14.003074004430
         C            0.094208524159     0.090937724527    -0.980559079539    12.000000000000
         C           -1.369674475841     0.509897724527    -0.784771079539    12.000000000000
         C            0.965566524159     0.406981724527     0.230451920461    12.000000000000
         C           -1.989332475841    -0.351919275473     0.301706920461    12.000000000000
         C            2.453564924159    -0.209394275473     0.051993120461    12.000000000000
         H            0.155834524159    -0.978207275473    -1.200328079539     1.007825032230
         H            0.474827524159     0.632849724527    -1.852000079539     1.007825032230
         H           -1.906022475841     0.307004724527    -1.718303079539     1.007825032230
         H            1.015385524159     1.489792724527     0.389300920461     1.007825032230
         H            0.540429524159    -0.029577275473     1.144082920461     1.007825032230
         H           -1.301556475841     2.059374724527     0.511367920461     1.007825032230
         H           -2.423147475841     2.245118724527    -0.638445079539     1.007825032230
         H            3.215804524159     1.462385724527     1.026899920461     1.007825032230
         H            4.303289524159     0.201873724527     0.555662920461     1.007825032230
         H           -2.595152475841    -2.098740275473     0.641602920461     1.007825032230

  Basis Set: AUG-CC-PVTZ
    Blend: AUG-CC-PVTZ
  Basis Set: (AUG-CC-PVTZ AUX)
    Blend: AUG-CC-PVTZ-JKFIT
	 Reference Energy          =    -528.8845113167698173 [Eh]
	 Singles Energy            =      -0.0000000000000000 [Eh]
	 Same-Spin Energy          =      -0.5270605807834535 [Eh]
	 Opposite-Spin Energy      =      -1.6336786734777251 [Eh]
	 Correlation Energy        =      -2.1607392542611787 [Eh]
	 Total Energy              =    -531.0452505710310334 [Eh]

	 ================> DF-SCS-MP2 Energies <==================
	-----------------------------------------------------------
	 SCS Same-Spin Scale       =       0.3333333333333333 [-]
	 SCS Opposite-Spin Scale   =       1.2000000000000000 [-]
	 SCS Same-Spin Energy      =      -0.1756868602611512 [Eh]
	 SCS Opposite-Spin Energy  =      -1.9604144081732700 [Eh]
	 SCS Correlation Energy    =      -2.1361012684344209 [Eh]
	 SCS Total Energy          =    -531.0206125852042760 [Eh]
	-----------------------------------------------------------

  Dipole Moment: [D]
     X:     0.2011      Y:     1.7783      Z:     0.8575     Total:     1.9845

*** Psi4 exiting successfully. Buy a developer a beer!
