                               Psi4 1.3.2 release

  ==> Input File <==

--------------------------------------------------------------------------
#psi4
#
memory 32 gb

molecule  {
0 1
  O       -2.2580520    -1.6446380    -0.1299340
  O       -2.1922020    -0.0289620     1.4584460
  O        2.5787120    -1.2491670    -0.5482700
  N       -1.4644620     1.9009220    -0.4829880
  N        3.3829435     0.4447164     0.7038798
  C        0.0919590     0.0544950    -0.9741750
  C       -1.3719240     0.4734550    -0.7783870
  C        0.9633170     0.3705390     0.2368360
  C       -1.9915820    -0.3883620     0.3080910
  C        2.3594900    -0.2078000     0.0693900
  H        0.1535850    -1.0146500    -1.1939440
  H        0.4725780     0.5964070    -1.8456160
  H       -1.9082720     0.2705620    -1.7119190
  H        1.0131360     1.4533500     0.3956850
  H        0.5381800    -0.0660200     1.1504670
  H       -1.3038060     2.0229320     0.5177520
  H       -2.4253970     2.2086760    -0.6320610
  H        3.2135550     1.4259430     1.0332840
  H        4.3010400     0.1654310     0.5620470
  H       -2.5974020    -2.1351830     0.6479870
units angstrom
no_reorient  #important for SAPT in psi4, default
symmetry c1  #important for SAPT in psi4, default
}

set PROPERTIES_ORIGIN ["COM"]
properties('MP2/aug-cc-pvtz', properties = ['dipole'])
--------------------------------------------------------------------------

    Molecular point group: c1
  Charge       = 0
  Multiplicity = 1
  Basis Set: AUG-CC-PVTZ
    Blend: AUG-CC-PVTZ
  Basis Set: (AUG-CC-PVTZ AUX)
    Blend: AUG-CC-PVTZ-JKFIT

    Orbital Energies [Eh]
    ---------------------

    Doubly Occupied:

       1A    -20.625575     2A    -20.562697     3A    -20.520041
       4A    -15.588300     5A    -15.558539     6A    -11.395758
       7A    -11.356812     8A    -11.286897     9A    -11.248721
      10A    -11.238744    11A     -1.469935    12A     -1.376389
      13A     -1.367282    14A     -1.210383    15A     -1.207995
      16A     -1.072710    17A     -0.985082    18A     -0.886962
      19A     -0.804778    20A     -0.776833    21A     -0.727178
      22A     -0.714824    23A     -0.708763    24A     -0.692686
      25A     -0.656664    26A     -0.650811    27A     -0.620988
      28A     -0.604334    29A     -0.590257    30A     -0.585751
      31A     -0.554284    32A     -0.522610    33A     -0.510316
      34A     -0.502063    35A     -0.486996    36A     -0.464901
      37A     -0.427909    38A     -0.419811    39A     -0.414944

  @DF-RHF Final Energy:  -528.88862094786361

   => Energetics <=

    Nuclear Repulsion Energy =            548.2347116904235236
    One-Electron Energy =               -1811.4536184104106269
    Two-Electron Energy =                 734.3302857721233750
    Total Energy =                       -528.8886209478636147
  Basis Set: (AUG-CC-PVTZ AUX)
    Blend: AUG-CC-PVTZ-RI
    Molecular point group: c1

    Geometry (in Angstrom), charge = 0, multiplicity = 1:

       Center              X                  Y                   Z               Mass
    ------------   -----------------  -----------------  -----------------  -----------------
         O           -2.251296319450    -1.608289932256    -0.135612051911    15.994914619570
         O           -2.185446319450     0.007386067744     1.452767948089    15.994914619570
         O            2.585467680550    -1.212818932256    -0.553948051911    15.994914619570
         N           -1.457706319450     1.937270067744    -0.488666051911    14.003074004430
         N            3.389699180550     0.481064467744     0.698201748089    14.003074004430
         C            0.098714680550     0.090843067744    -0.979853051911    12.000000000000
         C           -1.365168319450     0.509803067744    -0.784065051911    12.000000000000
         C            0.970072680550     0.406887067744     0.231157948089    12.000000000000
         C           -1.984826319450    -0.352013932256     0.302412948089    12.000000000000
         C            2.366245680550    -0.171451932256     0.063711948089    12.000000000000
         H            0.160340680550    -0.978301932256    -1.199622051911     1.007825032230
         H            0.479333680550     0.632755067744    -1.851294051911     1.007825032230
         H           -1.901516319450     0.306910067744    -1.717597051911     1.007825032230
         H            1.019891680550     1.489698067744     0.390006948089     1.007825032230
         H            0.544935680550    -0.029671932256     1.144788948089     1.007825032230
         H           -1.297050319450     2.059280067744     0.512073948089     1.007825032230
         H           -2.418641319450     2.245024067744    -0.637739051911     1.007825032230
         H            3.220310680550     1.462291067744     1.027605948089     1.007825032230
         H            4.307795680550     0.201779067744     0.556368948089     1.007825032230
         H           -2.590646319450    -2.098834932256     0.642308948089     1.007825032230

  Basis Set: AUG-CC-PVTZ
    Blend: AUG-CC-PVTZ
  Basis Set: (AUG-CC-PVTZ AUX)
    Blend: AUG-CC-PVTZ-JKFIT
	 Reference Energy          =    -528.8886209478636147 [Eh]
	 Singles Energy            =      -0.0000000000000000 [Eh]
	 Same-Spin Energy          =      -0.5279389363884619 [Eh]
	 Opposite-Spin Energy      =      -1.6357971138809280 [Eh]
	 Correlation Energy        =      -2.1637360502693896 [Eh]
	 Total Energy              =    -531.0523569981329501 [Eh]

	 ================> DF-SCS-MP2 Energies <==================
	-----------------------------------------------------------
	 SCS Same-Spin Scale       =       0.3333333333333333 [-]
	 SCS Opposite-Spin Scale   =       1.2000000000000000 [-]
	 SCS Same-Spin Energy      =      -0.1759796454628206 [Eh]
	 SCS Opposite-Spin Energy  =      -1.9629565366571136 [Eh]
	 SCS Correlation Energy    =      -2.1389361821199344 [Eh]
	 SCS Total Energy          =    -531.0275571299835065 [Eh]
	-----------------------------------------------------------

  Dipole Moment: [D]
     X:    -0.4871      Y:     1.9578      Z:     0.8718     Total:     2.1978

*** Psi4 exiting successfully. Buy a developer a beer!
