                               Psi4 1.3.2 release

  ==> Input File <==

--------------------------------------------------------------------------
#psi4
#
memory 32 gb

molecule  {
0 1
  O       -2.2580520    -1.6446380    -0.1299340
  O       -2.1922020    -0.0289620     1.4584460
  O        2.5787120    -1.2491670    -0.5482700
  N       -1.4644620     1.9009220    -0.4829880
  N        3.3512580     0.4763250     0.7206820
  C        0.0919590     0.0544950    -0.9741750
  C       -1.3719240     0.4734550    -0.7783870
  C        0.9633170     0.3705390     0.2368360
  C       -1.9915820    -0.3883620     0.3080910
  C        2.3594900    -0.2078000     0.0693900
  H        0.1535850    -1.0146500    -1.1939440
  H        0.4725780     0.5964070    -1.8456160
  H       -1.9082720     0.2705620    -1.7119190
  H        1.0131360     1.4533500     0.3956850
  H        0.5381800    -0.0660200     1.1504670
  H       -1.3038060     2.0229320     0.5177520
  H       -2.4253970     2.2086760    -0.6320610
  H        3.2309928     1.4284059     1.0329875
  H        4.3010400     0.1654310     0.5620470
  H       -2.5974020    -2.1351830     0.6479870
units angstrom
no_reorient  #important for SAPT in psi4, default
symmetry c1  #important for SAPT in psi4, default
}

set PROPERTIES_ORIGIN ["COM"]
properties('MP2/aug-cc-pvtz', properties = ['dipole'])
--------------------------------------------------------------------------

    Molecular point group: c1
  Charge       = 0
  Multiplicity = 1
  Basis Set: AUG-CC-PVTZ
    Blend: AUG-CC-PVTZ
  Basis Set: (AUG-CC-PVTZ AUX)
    Blend: AUG-CC-PVTZ-JKFIT

    Orbital Energies [Eh]
    ---------------------

    Doubly Occupied:

       1A    -20.625150     2A    -20.562177     3A    -20.522803
       4A    -15.589575     5A    -15.557976     6A    -11.395233
       7A    -11.357942     8A    -11.286173     9A    -11.246486
      10A    -11.237711    11A     -1.469473    12A     -1.376831
      13A     -1.366795    14A     -1.212541    15A     -1.207595
      16A     -1.071334    17A     -0.983832    18A     -0.885541
      19A     -0.804044    20A     -0.777972    21A     -0.731373
      22A     -0.714182    23A     -0.706585    24A     -0.689167
      25A     -0.655727    26A     -0.651210    27A     -0.620493
      28A     -0.603858    29A     -0.591641    30A     -0.585038
      31A     -0.554317    32A     -0.522004    33A     -0.509510
      34A     -0.500617    35A     -0.486379    36A     -0.464283
      37A     -0.429312    38A     -0.420002    39A     -0.416253

  @DF-RHF Final Energy:  -528.89160853344447

   => Energetics <=

    Nuclear Repulsion Energy =            548.3494533076844846
    One-Electron Energy =               -1811.7038568826587834
    Two-Electron Energy =                 734.4627950415297164
    Total Energy =                       -528.8916085334444688
  Basis Set: (AUG-CC-PVTZ AUX)
    Blend: AUG-CC-PVTZ-RI
    Molecular point group: c1

    Geometry (in Angstrom), charge = 0, multiplicity = 1:

       Center              X                  Y                   Z               Mass
    ------------   -----------------  -----------------  -----------------  -----------------
         O           -2.248379069827    -1.611337117517    -0.137220766978    15.994914619570
         O           -2.182529069827     0.004338882483     1.451159233022    15.994914619570
         O            2.588384930173    -1.215866117517    -0.555556766978    15.994914619570
         N           -1.454789069827     1.934222882483    -0.490274766978    14.003074004430
         N            3.360930930173     0.509625882483     0.713395233022    14.003074004430
         C            0.101631930173     0.087795882483    -0.981461766978    12.000000000000
         C           -1.362251069827     0.506755882483    -0.785673766978    12.000000000000
         C            0.972989930173     0.403839882483     0.229549233022    12.000000000000
         C           -1.981909069827    -0.355061117517     0.300804233022    12.000000000000
         C            2.369162930173    -0.174499117517     0.062103233022    12.000000000000
         H            0.163257930173    -0.981349117517    -1.201230766978     1.007825032230
         H            0.482250930173     0.629707882483    -1.852902766978     1.007825032230
         H           -1.898599069827     0.303862882483    -1.719205766978     1.007825032230
         H            1.022808930173     1.486650882483     0.388398233022     1.007825032230
         H            0.547852930173    -0.032719117517     1.143180233022     1.007825032230
         H           -1.294133069827     2.056232882483     0.510465233022     1.007825032230
         H           -2.415724069827     2.241976882483    -0.639347766978     1.007825032230
         H            3.240665730173     1.461706782483     1.025700733022     1.007825032230
         H            4.310712930173     0.198731882483     0.554760233022     1.007825032230
         H           -2.587729069827    -2.101882117517     0.640700233022     1.007825032230

  Basis Set: AUG-CC-PVTZ
    Blend: AUG-CC-PVTZ
  Basis Set: (AUG-CC-PVTZ AUX)
    Blend: AUG-CC-PVTZ-JKFIT
	 Reference Energy          =    -528.8916085334444688 [Eh]
	 Singles Energy            =      -0.0000000000000000 [Eh]
	 Same-Spin Energy          =      -0.5280411135574538 [Eh]
	 Opposite-Spin Energy      =      -1.6359224036998139 [Eh]
	 Correlation Energy        =      -2.1639635172572675 [Eh]
	 Total Energy              =    -531.0555720507016986 [Eh]

	 ================> DF-SCS-MP2 Energies <==================
	-----------------------------------------------------------
	 SCS Same-Spin Scale       =       0.3333333333333333 [-]
	 SCS Opposite-Spin Scale   =       1.2000000000000000 [-]
	 SCS Same-Spin Energy      =      -0.1760137045191512 [Eh]
	 SCS Opposite-Spin Energy  =      -1.9631068844397765 [Eh]
	 SCS Correlation Energy    =      -2.1391205889589280 [Eh]
	 SCS Total Energy          =    -531.0307291224033861 [Eh]
	-----------------------------------------------------------

  Dipole Moment: [D]
     X:    -0.3908      Y:     1.9350      Z:     0.8571     Total:     2.1521

*** Psi4 exiting successfully. Buy a developer a beer!
