                               Psi4 1.3.2 release

  ==> Input File <==

--------------------------------------------------------------------------
#psi4
#
memory 32 gb

molecule  {
0 1
  O       -2.2580520    -1.6446380    -0.1299340
  O       -2.1922020    -0.0289620     1.4584460
  O        2.5787120    -1.2491670    -0.5482700
  N       -1.4644620     1.9009220    -0.4829880
  N        3.3512580     0.4763250     0.7206820
  C        0.0919590     0.0544950    -0.9741750
  C       -1.3719240     0.4734550    -0.7783870
  C        0.9633170     0.3705390     0.2368360
  C       -1.9915820    -0.3883620     0.3080910
  C        2.3145316    -0.3032258     0.0577463
  H        0.1535850    -1.0146500    -1.1939440
  H        0.4725780     0.5964070    -1.8456160
  H       -1.9082720     0.2705620    -1.7119190
  H        1.0131360     1.4533500     0.3956850
  H        0.5381800    -0.0660200     1.1504670
  H       -1.3038060     2.0229320     0.5177520
  H       -2.4253970     2.2086760    -0.6320610
  H        3.2135550     1.4259430     1.0332840
  H        4.3010400     0.1654310     0.5620470
  H       -2.5974020    -2.1351830     0.6479870
units angstrom
no_reorient  #important for SAPT in psi4, default
symmetry c1  #important for SAPT in psi4, default
}

set PROPERTIES_ORIGIN ["COM"]
properties('MP2/aug-cc-pvtz', properties = ['dipole'])
--------------------------------------------------------------------------

    Molecular point group: c1
  Charge       = 0
  Multiplicity = 1
  Basis Set: AUG-CC-PVTZ
    Blend: AUG-CC-PVTZ
  Basis Set: (AUG-CC-PVTZ AUX)
    Blend: AUG-CC-PVTZ-JKFIT

    Orbital Energies [Eh]
    ---------------------

    Doubly Occupied:

       1A    -20.626679     2A    -20.563323     3A    -20.541513
       4A    -15.568465     5A    -15.559095     6A    -11.396424
       7A    -11.357790     8A    -11.287408     9A    -11.246402
      10A    -11.239926    11A     -1.470864    12A     -1.434242
      13A     -1.368032    14A     -1.209247    15A     -1.178179
      16A     -1.073771    17A     -0.984593    18A     -0.884374
      19A     -0.797285    20A     -0.767959    21A     -0.725268
      22A     -0.714393    23A     -0.705287    24A     -0.683189
      25A     -0.662628    26A     -0.657568    27A     -0.625125
      28A     -0.615680    29A     -0.607564    30A     -0.584351
      31A     -0.563470    32A     -0.527153    33A     -0.514482
      34A     -0.503062    35A     -0.488591    36A     -0.465573
      37A     -0.434719    38A     -0.420010    39A     -0.411117

  @DF-RHF Final Energy:  -528.88218890498797

   => Energetics <=

    Nuclear Repulsion Energy =            548.9869812057055469
    One-Electron Energy =               -1812.8087394708850297
    Two-Electron Energy =                 734.9395693601916264
    Total Energy =                       -528.8821889049879701
  Basis Set: (AUG-CC-PVTZ AUX)
    Blend: AUG-CC-PVTZ-RI
    Molecular point group: c1

    Geometry (in Angstrom), charge = 0, multiplicity = 1:

       Center              X                  Y                   Z               Mass
    ------------   -----------------  -----------------  -----------------  -----------------
         O           -2.244565293399    -1.603480620553    -0.136266249290    15.994914619570
         O           -2.178715293399     0.012195379447     1.452113750710    15.994914619570
         O            2.592198706601    -1.208009620553    -0.554602249290    15.994914619570
         N           -1.450975293399     1.942079379447    -0.489320249290    14.003074004430
         N            3.364744706601     0.517482379447     0.714349750710    14.003074004430
         C            0.105445706601     0.095652379447    -0.980507249290    12.000000000000
         C           -1.358437293399     0.514612379447    -0.784719249290    12.000000000000
         C            0.976803706601     0.411696379447     0.230503750710    12.000000000000
         C           -1.978095293399    -0.347204620553     0.301758750710    12.000000000000
         C            2.328018306601    -0.262068420553     0.051414050710    12.000000000000
         H            0.167071706601    -0.973492620553    -1.200276249290     1.007825032230
         H            0.486064706601     0.637564379447    -1.851948249290     1.007825032230
         H           -1.894785293399     0.311719379447    -1.718251249290     1.007825032230
         H            1.026622706601     1.494507379447     0.389352750710     1.007825032230
         H            0.551666706601    -0.024862620553     1.144134750710     1.007825032230
         H           -1.290319293399     2.064089379447     0.511419750710     1.007825032230
         H           -2.411910293399     2.249833379447    -0.638393249290     1.007825032230
         H            3.227041706601     1.467100379447     1.026951750710     1.007825032230
         H            4.314526706601     0.206588379447     0.555714750710     1.007825032230
         H           -2.583915293399    -2.094025620553     0.641654750710     1.007825032230

  Basis Set: AUG-CC-PVTZ
    Blend: AUG-CC-PVTZ
  Basis Set: (AUG-CC-PVTZ AUX)
    Blend: AUG-CC-PVTZ-JKFIT
	 Reference Energy          =    -528.8821889049879701 [Eh]
	 Singles Energy            =      -0.0000000000000000 [Eh]
	 Same-Spin Energy          =      -0.5268380405134374 [Eh]
	 Opposite-Spin Energy      =      -1.6337489605499222 [Eh]
	 Correlation Energy        =      -2.1605870010633597 [Eh]
	 Total Energy              =    -531.0427759060513608 [Eh]

	 ================> DF-SCS-MP2 Energies <==================
	-----------------------------------------------------------
	 SCS Same-Spin Scale       =       0.3333333333333333 [-]
	 SCS Opposite-Spin Scale   =       1.2000000000000000 [-]
	 SCS Same-Spin Energy      =      -0.1756126801711458 [Eh]
	 SCS Opposite-Spin Energy  =      -1.9604987526599067 [Eh]
	 SCS Correlation Energy    =      -2.1361114328310524 [Eh]
	 SCS Total Energy          =    -531.0183003378190278 [Eh]
	-----------------------------------------------------------

  Dipole Moment: [D]
     X:    -0.8587      Y:     1.3199      Z:     0.4349     Total:     1.6336

*** Psi4 exiting successfully. Buy a developer a beer!
