                               Psi4 1.3.2 release

  ==> Input File <==

--------------------------------------------------------------------------
#psi4
#
memory 32 gb

molecule  {
0 1
  O       -2.2580520    -1.6446380    -0.1299340
  O       -2.1922020    -0.0289620     1.4584460
  O        2.5366190    -1.2524802    -0.5561305
  N       -1.4644620     1.9009220    -0.4829880
  N        3.3512580     0.4763250     0.7206820
  C        0.0919590     0.0544950    -0.9741750
  C       -1.3719240     0.4734550    -0.7783870
  C        0.9633170     0.3705390     0.2368360
  C       -1.9915820    -0.3883620     0.3080910
  C        2.3594900    -0.2078000     0.0693900
  H        0.1535850    -1.0146500    -1.1939440
  H        0.4725780     0.5964070    -1.8456160
  H       -1.9082720     0.2705620    -1.7119190
  H        1.0131360     1.4533500     0.3956850
  H        0.5381800    -0.0660200     1.1504670
  H       -1.3038060     2.0229320     0.5177520
  H       -2.4253970     2.2086760    -0.6320610
  H        3.2135550     1.4259430     1.0332840
  H        4.3010400     0.1654310     0.5620470
  H       -2.5974020    -2.1351830     0.6479870
units angstrom
no_reorient  #important for SAPT in psi4, default
symmetry c1  #important for SAPT in psi4, default
}

set PROPERTIES_ORIGIN ["COM"]
properties('MP2/aug-cc-pvtz', properties = ['dipole'])
--------------------------------------------------------------------------

    Molecular point group: c1
  Charge       = 0
  Multiplicity = 1
  Basis Set: AUG-CC-PVTZ
    Blend: AUG-CC-PVTZ
  Basis Set: (AUG-CC-PVTZ AUX)
    Blend: AUG-CC-PVTZ-JKFIT

    Orbital Energies [Eh]
    ---------------------

    Doubly Occupied:

       1A    -20.624508     2A    -20.561485     3A    -20.523205
       4A    -15.592107     5A    -15.557213     6A    -11.394534
       7A    -11.357931     8A    -11.285258     9A    -11.244599
      10A    -11.236318    11A     -1.468810    12A     -1.376675
      13A     -1.366127    14A     -1.215411    15A     -1.206897
      16A     -1.069799    17A     -0.982698    18A     -0.884667
      19A     -0.803729    20A     -0.777332    21A     -0.732345
      22A     -0.713814    23A     -0.706859    24A     -0.689266
      25A     -0.655034    26A     -0.651356    27A     -0.619907
      28A     -0.603346    29A     -0.591836    30A     -0.584305
      31A     -0.553945    32A     -0.520775    33A     -0.508568
      34A     -0.499461    35A     -0.485525    36A     -0.463538
      37A     -0.428661    38A     -0.420666    39A     -0.416527

  @DF-RHF Final Energy:  -528.89116623691166

   => Energetics <=

    Nuclear Repulsion Energy =            548.7600256717406637
    One-Electron Energy =               -1812.5523068070808677
    Two-Electron Energy =                 734.9011148984284318
    Total Energy =                       -528.8911662369116584
  Basis Set: (AUG-CC-PVTZ AUX)
    Blend: AUG-CC-PVTZ-RI
    Molecular point group: c1

    Geometry (in Angstrom), charge = 0, multiplicity = 1:

       Center              X                  Y                   Z               Mass
    ------------   -----------------  -----------------  -----------------  -----------------
         O           -2.243649472719    -1.610957321192    -0.136362069485    15.994914619570
         O           -2.177799472719     0.004718678808     1.452017930515    15.994914619570
         O            2.551021527281    -1.218799521192    -0.562558569485    15.994914619570
         N           -1.450059472719     1.934602678808    -0.489416069485    14.003074004430
         N            3.365660527281     0.510005678808     0.714253930515    14.003074004430
         C            0.106361527281     0.088175678808    -0.980603069485    12.000000000000
         C           -1.357521472719     0.507135678808    -0.784815069485    12.000000000000
         C            0.977719527281     0.404219678808     0.230407930515    12.000000000000
         C           -1.977179472719    -0.354681321192     0.301662930515    12.000000000000
         C            2.373892527281    -0.174119321192     0.062961930515    12.000000000000
         H            0.167987527281    -0.980969321192    -1.200372069485     1.007825032230
         H            0.486980527281     0.630087678808    -1.852044069485     1.007825032230
         H           -1.893869472719     0.304242678808    -1.718347069485     1.007825032230
         H            1.027538527281     1.487030678808     0.389256930515     1.007825032230
         H            0.552582527281    -0.032339321192     1.144038930515     1.007825032230
         H           -1.289403472719     2.056612678808     0.511323930515     1.007825032230
         H           -2.410994472719     2.242356678808    -0.638489069485     1.007825032230
         H            3.227957527281     1.459623678808     1.026855930515     1.007825032230
         H            4.315442527281     0.199111678808     0.555618930515     1.007825032230
         H           -2.582999472719    -2.101502321192     0.641558930515     1.007825032230

  Basis Set: AUG-CC-PVTZ
    Blend: AUG-CC-PVTZ
  Basis Set: (AUG-CC-PVTZ AUX)
    Blend: AUG-CC-PVTZ-JKFIT
	 Reference Energy          =    -528.8911662369116584 [Eh]
	 Singles Energy            =      -0.0000000000000000 [Eh]
	 Same-Spin Energy          =      -0.5281237438337171 [Eh]
	 Opposite-Spin Energy      =      -1.6360363345587192 [Eh]
	 Correlation Energy        =      -2.1641600783924364 [Eh]
	 Total Energy              =    -531.0553263153041144 [Eh]

	 ================> DF-SCS-MP2 Energies <==================
	-----------------------------------------------------------
	 SCS Same-Spin Scale       =       0.3333333333333333 [-]
	 SCS Opposite-Spin Scale   =       1.2000000000000000 [-]
	 SCS Same-Spin Energy      =      -0.1760412479445723 [Eh]
	 SCS Opposite-Spin Energy  =      -1.9632436014704631 [Eh]
	 SCS Correlation Energy    =      -2.1392848494150356 [Eh]
	 SCS Total Energy          =    -531.0304510863267069 [Eh]
	-----------------------------------------------------------

  Dipole Moment: [D]
     X:    -0.2564      Y:     1.9244      Z:     0.8808     Total:     2.1319

*** Psi4 exiting successfully. Buy a developer a beer!
