                               Psi4 1.3.2 release

  ==> Input File <==

--------------------------------------------------------------------------
#psi4
#
memory 32 gb

molecule  {
0 1
  O       -2.2580520    -1.6446380    -0.1299340
  O       -2.1922020    -0.0289620     1.4584460
  O        2.5787120    -1.2491670    -0.5482700
  N       -1.4644620     1.9009220    -0.4829880
  N        3.3512580     0.4763250     0.7206820
  C        0.0919590     0.0544950    -0.9741750
  C       -1.3719240     0.4734550    -0.7783870
  C        0.9633170     0.3705390     0.2368360
  C       -1.9915820    -0.3883620     0.3080910
  C        2.3453306    -0.1886317     0.0712555
  H        0.1535850    -1.0146500    -1.1939440
  H        0.4725780     0.5964070    -1.8456160
  H       -1.9082720     0.2705620    -1.7119190
  H        1.0131360     1.4533500     0.3956850
  H        0.5381800    -0.0660200     1.1504670
  H       -1.3038060     2.0229320     0.5177520
  H       -2.4253970     2.2086760    -0.6320610
  H        3.2135550     1.4259430     1.0332840
  H        4.3010400     0.1654310     0.5620470
  H       -2.5974020    -2.1351830     0.6479870
units angstrom
no_reorient  #important for SAPT in psi4, default
symmetry c1  #important for SAPT in psi4, default
}

set PROPERTIES_ORIGIN ["COM"]
properties('MP2/aug-cc-pvtz', properties = ['dipole'])
--------------------------------------------------------------------------

    Molecular point group: c1
  Charge       = 0
  Multiplicity = 1
  Basis Set: AUG-CC-PVTZ
    Blend: AUG-CC-PVTZ
  Basis Set: (AUG-CC-PVTZ AUX)
    Blend: AUG-CC-PVTZ-JKFIT

    Orbital Energies [Eh]
    ---------------------

    Doubly Occupied:

       1A    -20.625607     2A    -20.562821     3A    -20.519831
       4A    -15.591134     5A    -15.558664     6A    -11.395850
       7A    -11.359026     8A    -11.286909     9A    -11.247865
      10A    -11.238826    11A     -1.469999    12A     -1.367388
      13A     -1.364854    14A     -1.211517    15A     -1.208246
      16A     -1.074329    17A     -0.986871    18A     -0.887903
      19A     -0.804194    20A     -0.777770    21A     -0.732018
      22A     -0.714934    23A     -0.707867    24A     -0.690928
      25A     -0.657023    26A     -0.649495    27A     -0.621089
      28A     -0.604429    29A     -0.589064    30A     -0.584440
      31A     -0.552056    32A     -0.522284    33A     -0.509094
      34A     -0.501795    35A     -0.486830    36A     -0.464992
      37A     -0.428520    38A     -0.419805    39A     -0.414430

  @DF-RHF Final Energy:  -528.88905315883983

   => Energetics <=

    Nuclear Repulsion Energy =            548.3955453955762778
    One-Electron Energy =               -1811.7877997253631293
    Two-Electron Energy =                 734.5032011709469089
    Total Energy =                       -528.8890531588398289
  Basis Set: (AUG-CC-PVTZ AUX)
    Blend: AUG-CC-PVTZ-RI
    Molecular point group: c1

    Geometry (in Angstrom), charge = 0, multiplicity = 1:

       Center              X                  Y                   Z               Mass
    ------------   -----------------  -----------------  -----------------  -----------------
         O           -2.247095519800    -1.612894855342    -0.137376068911    15.994914619570
         O           -2.181245519800     0.002781144658     1.451003931089    15.994914619570
         O            2.589668480200    -1.217423855342    -0.555712068911    15.994914619570
         N           -1.453505519800     1.932665144658    -0.490430068911    14.003074004430
         N            3.362214480200     0.508068144658     0.713239931089    14.003074004430
         C            0.102915480200     0.086238144658    -0.981617068911    12.000000000000
         C           -1.360967519800     0.505198144658    -0.785829068911    12.000000000000
         C            0.974273480200     0.402282144658     0.229393931089    12.000000000000
         C           -1.980625519800    -0.356618855342     0.300648931089    12.000000000000
         C            2.356287080200    -0.156888555342     0.063813431089    12.000000000000
         H            0.164541480200    -0.982906855342    -1.201386068911     1.007825032230
         H            0.483534480200     0.628150144658    -1.853058068911     1.007825032230
         H           -1.897315519800     0.302305144658    -1.719361068911     1.007825032230
         H            1.024092480200     1.485093144658     0.388242931089     1.007825032230
         H            0.549136480200    -0.034276855342     1.143024931089     1.007825032230
         H           -1.292849519800     2.054675144658     0.510309931089     1.007825032230
         H           -2.414440519800     2.240419144658    -0.639503068911     1.007825032230
         H            3.224511480200     1.457686144658     1.025841931089     1.007825032230
         H            4.311996480200     0.197174144658     0.554604931089     1.007825032230
         H           -2.586445519800    -2.103439855342     0.640544931089     1.007825032230

  Basis Set: AUG-CC-PVTZ
    Blend: AUG-CC-PVTZ
  Basis Set: (AUG-CC-PVTZ AUX)
    Blend: AUG-CC-PVTZ-JKFIT
	 Reference Energy          =    -528.8890531588398289 [Eh]
	 Singles Energy            =      -0.0000000000000000 [Eh]
	 Same-Spin Energy          =      -0.5285583123587534 [Eh]
	 Opposite-Spin Energy      =      -1.6369483493398369 [Eh]
	 Correlation Energy        =      -2.1655066616985903 [Eh]
	 Total Energy              =    -531.0545598205384294 [Eh]

	 ================> DF-SCS-MP2 Energies <==================
	-----------------------------------------------------------
	 SCS Same-Spin Scale       =       0.3333333333333333 [-]
	 SCS Opposite-Spin Scale   =       1.2000000000000000 [-]
	 SCS Same-Spin Energy      =      -0.1761861041195845 [Eh]
	 SCS Opposite-Spin Energy  =      -1.9643380192078042 [Eh]
	 SCS Correlation Energy    =      -2.1405241233273884 [Eh]
	 SCS Total Energy          =    -531.0295772821672244 [Eh]
	-----------------------------------------------------------

  Dipole Moment: [D]
     X:    -0.4793      Y:     2.0164      Z:     0.8993     Total:     2.2593

*** Psi4 exiting successfully. Buy a developer a beer!
