                               Psi4 1.3.2 release

  ==> Input File <==

--------------------------------------------------------------------------
#psi4
#
memory 32 gb

molecule  {
0 1
  O       -2.2580520    -1.6446380    -0.1299340
  O       -2.1922020    -0.0289620     1.4584460
  O        2.5787120    -1.2491670    -0.5482700
  N       -1.4644620     1.9009220    -0.4829880
  N        3.3512580     0.4763250     0.7206820
  C        0.1124324     0.0415817    -0.9852437
  C       -1.3719240     0.4734550    -0.7783870
  C        0.9633170     0.3705390     0.2368360
  C       -1.9915820    -0.3883620     0.3080910
  C        2.3594900    -0.2078000     0.0693900
  H        0.1535850    -1.0146500    -1.1939440
  H        0.4725780     0.5964070    -1.8456160
  H       -1.9082720     0.2705620    -1.7119190
  H        1.0131360     1.4533500     0.3956850
  H        0.5381800    -0.0660200     1.1504670
  H       -1.3038060     2.0229320     0.5177520
  H       -2.4253970     2.2086760    -0.6320610
  H        3.2135550     1.4259430     1.0332840
  H        4.3010400     0.1654310     0.5620470
  H       -2.5974020    -2.1351830     0.6479870
units angstrom
no_reorient  #important for SAPT in psi4, default
symmetry c1  #important for SAPT in psi4, default
}

set PROPERTIES_ORIGIN ["COM"]
properties('MP2/aug-cc-pvtz', properties = ['dipole'])
--------------------------------------------------------------------------

    Molecular point group: c1
  Charge       = 0
  Multiplicity = 1
  Basis Set: AUG-CC-PVTZ
    Blend: AUG-CC-PVTZ
  Basis Set: (AUG-CC-PVTZ AUX)
    Blend: AUG-CC-PVTZ-JKFIT

    Orbital Energies [Eh]
    ---------------------

    Doubly Occupied:

       1A    -20.624966     2A    -20.561813     3A    -20.522511
       4A    -15.589447     5A    -15.558036     6A    -11.394944
       7A    -11.357186     8A    -11.286577     9A    -11.246698
      10A    -11.237466    11A     -1.469199    12A     -1.376720
      13A     -1.366510    14A     -1.212493    15A     -1.206211
      16A     -1.070827    17A     -0.982086    18A     -0.885919
      19A     -0.802714    20A     -0.778604    21A     -0.731272
      22A     -0.714046    23A     -0.707000    24A     -0.688883
      25A     -0.656060    26A     -0.650656    27A     -0.620804
      28A     -0.603554    29A     -0.591417    30A     -0.584176
      31A     -0.556305    32A     -0.520490    33A     -0.510919
      34A     -0.502405    35A     -0.485352    36A     -0.465008
      37A     -0.428980    38A     -0.419515    39A     -0.415313

  @DF-RHF Final Energy:  -528.89130202417380

   => Energetics <=

    Nuclear Repulsion Energy =            548.1180589123556501
    One-Electron Energy =               -1811.2525670901909507
    Two-Electron Energy =                 734.2432061536616175
    Total Energy =                       -528.8913020241737968
  Basis Set: (AUG-CC-PVTZ AUX)
    Blend: AUG-CC-PVTZ-RI
    Molecular point group: c1

    Geometry (in Angstrom), charge = 0, multiplicity = 1:

       Center              X                  Y                   Z               Mass
    ------------   -----------------  -----------------  -----------------  -----------------
         O           -2.249940703894    -1.610259259662    -0.136313487194    15.994914619570
         O           -2.184090703894     0.005416740338     1.452066512806    15.994914619570
         O            2.586823296106    -1.214788259662    -0.554649487194    15.994914619570
         N           -1.456350703894     1.935300740338    -0.489367487194    14.003074004430
         N            3.359369296106     0.510703740338     0.714302512806    14.003074004430
         C            0.120543696106     0.075960440338    -0.991623187194    12.000000000000
         C           -1.363812703894     0.507833740338    -0.784766487194    12.000000000000
         C            0.971428296106     0.404917740338     0.230456512806    12.000000000000
         C           -1.983470703894    -0.353983259662     0.301711512806    12.000000000000
         C            2.367601296106    -0.173421259662     0.063010512806    12.000000000000
         H            0.161696296106    -0.980271259662    -1.200323487194     1.007825032230
         H            0.480689296106     0.630785740338    -1.851995487194     1.007825032230
         H           -1.900160703894     0.304940740338    -1.718298487194     1.007825032230
         H            1.021247296106     1.487728740338     0.389305512806     1.007825032230
         H            0.546291296106    -0.031641259662     1.144087512806     1.007825032230
         H           -1.295694703894     2.057310740338     0.511372512806     1.007825032230
         H           -2.417285703894     2.243054740338    -0.638440487194     1.007825032230
         H            3.221666296106     1.460321740338     1.026904512806     1.007825032230
         H            4.309151296106     0.199809740338     0.555667512806     1.007825032230
         H           -2.589290703894    -2.100804259662     0.641607512806     1.007825032230

  Basis Set: AUG-CC-PVTZ
    Blend: AUG-CC-PVTZ
  Basis Set: (AUG-CC-PVTZ AUX)
    Blend: AUG-CC-PVTZ-JKFIT
	 Reference Energy          =    -528.8913020241737968 [Eh]
	 Singles Energy            =      -0.0000000000000000 [Eh]
	 Same-Spin Energy          =      -0.5279258535045226 [Eh]
	 Opposite-Spin Energy      =      -1.6357789366136437 [Eh]
	 Correlation Energy        =      -2.1637047901181665 [Eh]
	 Total Energy              =    -531.0550068142919145 [Eh]

	 ================> DF-SCS-MP2 Energies <==================
	-----------------------------------------------------------
	 SCS Same-Spin Scale       =       0.3333333333333333 [-]
	 SCS Opposite-Spin Scale   =       1.2000000000000000 [-]
	 SCS Same-Spin Energy      =      -0.1759752845015075 [Eh]
	 SCS Opposite-Spin Energy  =      -1.9629347239363724 [Eh]
	 SCS Correlation Energy    =      -2.1389100084378798 [Eh]
	 SCS Total Energy          =    -531.0302120326116437 [Eh]
	-----------------------------------------------------------

  Dipole Moment: [D]
     X:    -0.3925      Y:     1.9365      Z:     0.8522     Total:     2.1518

*** Psi4 exiting successfully. Buy a developer a beer!
