                               Psi4 1.3.2 release

  ==> Input File <==

--------------------------------------------------------------------------
#psi4
#
memory 32 gb

molecule  {
0 1
  O       -2.2580520    -1.6446380    -0.1299340
  O       -2.1922020    -0.0289620     1.4584460
  O        2.5787120    -1.2491670    -0.5482700
  N       -1.4644620     1.9009220    -0.4829880
  N        3.3512580     0.4763250     0.7206820
  C        0.0919590     0.0544950    -0.9741750
  C       -1.3719240     0.4734550    -0.7783870
  C        0.9633170     0.3705390     0.2368360
  C       -1.9915820    -0.3883620     0.3080910
  C        2.3594900    -0.2078000     0.0693900
  H        0.1535850    -1.0146500    -1.1939440
  H        0.4725780     0.5964070    -1.8456160
  H       -1.9082720     0.2705620    -1.7119190
  H        1.0131360     1.4533500     0.3956850
  H        0.5381800    -0.0660200     1.1504670
  H       -1.3038060     2.0229320     0.5177520
  H       -2.4253970     2.2086760    -0.6320610
  H        3.1862651     1.6141378     1.0952353
  H        4.3010400     0.1654310     0.5620470
  H       -2.5974020    -2.1351830     0.6479870
units angstrom
no_reorient  #important for SAPT in psi4, default
symmetry c1  #important for SAPT in psi4, default
}

set PROPERTIES_ORIGIN ["COM"]
properties('MP2/aug-cc-pvtz', properties = ['dipole'])
--------------------------------------------------------------------------

    Molecular point group: c1
  Charge       = 0
  Multiplicity = 1
  Basis Set: AUG-CC-PVTZ
    Blend: AUG-CC-PVTZ
  Basis Set: (AUG-CC-PVTZ AUX)
    Blend: AUG-CC-PVTZ-JKFIT

    Orbital Energies [Eh]
    ---------------------

    Doubly Occupied:

       1A    -20.624901     2A    -20.561920     3A    -20.522521
       4A    -15.604657     5A    -15.557833     6A    -11.394979
       7A    -11.357174     8A    -11.285855     9A    -11.245481
      10A    -11.237096    11A     -1.469219    12A     -1.375604
      13A     -1.366545    14A     -1.207756    15A     -1.192082
      16A     -1.070148    17A     -0.982647    18A     -0.883684
      19A     -0.798590    20A     -0.769698    21A     -0.719273
      22A     -0.712067    23A     -0.691133    24A     -0.680064
      25A     -0.654904    26A     -0.647995    27A     -0.620077
      28A     -0.603267    29A     -0.584978    30A     -0.581154
      31A     -0.553304    32A     -0.520946    33A     -0.508813
      34A     -0.499426    35A     -0.485991    36A     -0.463981
      37A     -0.427261    38A     -0.419080    39A     -0.414296

  @DF-RHF Final Energy:  -528.86121188377945

   => Energetics <=

    Nuclear Repulsion Energy =            547.4815017103192076
    One-Electron Energy =               -1810.0926290376960424
    Two-Electron Energy =                 733.7499154435973878
    Total Energy =                       -528.8612118837794469
  Basis Set: (AUG-CC-PVTZ AUX)
    Blend: AUG-CC-PVTZ-RI
    Molecular point group: c1

    Geometry (in Angstrom), charge = 0, multiplicity = 1:

       Center              X                  Y                   Z               Mass
    ------------   -----------------  -----------------  -----------------  -----------------
         O           -2.248070464635    -1.612618601445    -0.137650254617    15.994914619570
         O           -2.182220464635     0.003057398555     1.450729745383    15.994914619570
         O            2.588693535365    -1.217147601445    -0.555986254617    15.994914619570
         N           -1.454480464635     1.932941398555    -0.490704254617    14.003074004430
         N            3.361239535365     0.508344398555     0.712965745383    14.003074004430
         C            0.101940535365     0.086514398555    -0.981891254617    12.000000000000
         C           -1.361942464635     0.505474398555    -0.786103254617    12.000000000000
         C            0.973298535365     0.402558398555     0.229119745383    12.000000000000
         C           -1.981600464635    -0.356342601445     0.300374745383    12.000000000000
         C            2.369471535365    -0.175780601445     0.061673745383    12.000000000000
         H            0.163566535365    -0.982630601445    -1.201660254617     1.007825032230
         H            0.482559535365     0.628426398555    -1.853332254617     1.007825032230
         H           -1.898290464635     0.302581398555    -1.719635254617     1.007825032230
         H            1.023117535365     1.485369398555     0.387968745383     1.007825032230
         H            0.548161535365    -0.034000601445     1.142750745383     1.007825032230
         H           -1.293824464635     2.054951398555     0.510035745383     1.007825032230
         H           -2.415415464635     2.240695398555    -0.639777254617     1.007825032230
         H            3.196246635365     1.646157198555     1.087519045383     1.007825032230
         H            4.311021535365     0.197450398555     0.554330745383     1.007825032230
         H           -2.587420464635    -2.103163601445     0.640270745383     1.007825032230

  Basis Set: AUG-CC-PVTZ
    Blend: AUG-CC-PVTZ
  Basis Set: (AUG-CC-PVTZ AUX)
    Blend: AUG-CC-PVTZ-JKFIT
	 Reference Energy          =    -528.8612118837794469 [Eh]
	 Singles Energy            =      -0.0000000000000000 [Eh]
	 Same-Spin Energy          =      -0.5293976167219865 [Eh]
	 Opposite-Spin Energy      =      -1.6398901309314733 [Eh]
	 Correlation Energy        =      -2.1692877476534598 [Eh]
	 Total Energy              =    -531.0304996314329173 [Eh]

	 ================> DF-SCS-MP2 Energies <==================
	-----------------------------------------------------------
	 SCS Same-Spin Scale       =       0.3333333333333333 [-]
	 SCS Opposite-Spin Scale   =       1.2000000000000000 [-]
	 SCS Same-Spin Energy      =      -0.1764658722406622 [Eh]
	 SCS Opposite-Spin Energy  =      -1.9678681571177679 [Eh]
	 SCS Correlation Energy    =      -2.1443340293584301 [Eh]
	 SCS Total Energy          =    -531.0055459131378939 [Eh]
	-----------------------------------------------------------

  Dipole Moment: [D]
     X:    -0.4086      Y:     2.0814      Z:     0.9124     Total:     2.3090

*** Psi4 exiting successfully. Buy a developer a beer!
