                               Psi4 1.3.2 release

  ==> Input File <==

--------------------------------------------------------------------------
#psi4
#
memory 32 gb

molecule  {
0 1
  O       -2.2580520    -1.6446380    -0.1299340
  O       -2.1922020    -0.0289620     1.4584460
  O        2.5787120    -1.2491670    -0.5482700
  N       -1.4644620     1.9009220    -0.4829880
  N        3.3512580     0.4763250     0.7206820
  C        0.0919590     0.0544950    -0.9741750
  C       -1.3719240     0.4734550    -0.7783870
  C        0.9633170     0.3705390     0.2368360
  C       -1.9915820    -0.3883620     0.3080910
  C        2.3976463    -0.1095566     0.0818495
  H        0.1535850    -1.0146500    -1.1939440
  H        0.4725780     0.5964070    -1.8456160
  H       -1.9082720     0.2705620    -1.7119190
  H        1.0131360     1.4533500     0.3956850
  H        0.5381800    -0.0660200     1.1504670
  H       -1.3038060     2.0229320     0.5177520
  H       -2.4253970     2.2086760    -0.6320610
  H        3.2135550     1.4259430     1.0332840
  H        4.3010400     0.1654310     0.5620470
  H       -2.5974020    -2.1351830     0.6479870
units angstrom
no_reorient  #important for SAPT in psi4, default
symmetry c1  #important for SAPT in psi4, default
}

set PROPERTIES_ORIGIN ["COM"]
properties('MP2/aug-cc-pvtz', properties = ['dipole'])
--------------------------------------------------------------------------

    Molecular point group: c1
  Charge       = 0
  Multiplicity = 1
  Basis Set: AUG-CC-PVTZ
    Blend: AUG-CC-PVTZ
  Basis Set: (AUG-CC-PVTZ AUX)
    Blend: AUG-CC-PVTZ-JKFIT

    Orbital Energies [Eh]
    ---------------------

    Doubly Occupied:

       1A    -20.624061     2A    -20.561513     3A    -20.503248
       4A    -15.608772     5A    -15.557325     6A    -11.394513
       7A    -11.356692     8A    -11.285475     9A    -11.249227
      10A    -11.236329    11A     -1.468540    12A     -1.366026
      13A     -1.341371    14A     -1.230280    15A     -1.207125
      16A     -1.069675    17A     -0.983999    18A     -0.888192
      19A     -0.818713    20A     -0.784072    21A     -0.746338
      22A     -0.716688    23A     -0.710640    24A     -0.687105
      25A     -0.655928    26A     -0.642466    27A     -0.620112
      28A     -0.603762    29A     -0.587408    30A     -0.563375
      31A     -0.553269    32A     -0.517858    33A     -0.508303
      34A     -0.499954    35A     -0.484984    36A     -0.463576
      37A     -0.418168    38A     -0.413381    39A     -0.405809

  @DF-RHF Final Energy:  -528.87145952499100

   => Energetics <=

    Nuclear Repulsion Energy =            547.9173198770714635
    One-Electron Energy =               -1810.9090156598688282
    Two-Electron Energy =                 734.1202362578062548
    Total Energy =                       -528.8714595249909962
  Basis Set: (AUG-CC-PVTZ AUX)
    Blend: AUG-CC-PVTZ-RI
    Molecular point group: c1

    Geometry (in Angstrom), charge = 0, multiplicity = 1:

       Center              X                  Y                   Z               Mass
    ------------   -----------------  -----------------  -----------------  -----------------
         O           -2.251393404970    -1.619391102158    -0.138246396470    15.994914619570
         O           -2.185543404970    -0.003715102158     1.450133603530    15.994914619570
         O            2.585370595030    -1.223920102158    -0.556582396470    15.994914619570
         N           -1.457803404970     1.926168897842    -0.491300396470    14.003074004430
         N            3.357916595030     0.501571897842     0.712369603530    14.003074004430
         C            0.098617595030     0.079741897842    -0.982487396470    12.000000000000
         C           -1.365265404970     0.498701897842    -0.786699396470    12.000000000000
         C            0.969975595030     0.395785897842     0.228523603530    12.000000000000
         C           -1.984923404970    -0.363115102158     0.299778603530    12.000000000000
         C            2.404304895030    -0.084309702158     0.073537103530    12.000000000000
         H            0.160243595030    -0.989403102158    -1.202256396470     1.007825032230
         H            0.479236595030     0.621653897842    -1.853928396470     1.007825032230
         H           -1.901613404970     0.295808897842    -1.720231396470     1.007825032230
         H            1.019794595030     1.478596897842     0.387372603530     1.007825032230
         H            0.544838595030    -0.040773102158     1.142154603530     1.007825032230
         H           -1.297147404970     2.048178897842     0.509439603530     1.007825032230
         H           -2.418738404970     2.233922897842    -0.640373396470     1.007825032230
         H            3.220213595030     1.451189897842     1.024971603530     1.007825032230
         H            4.307698595030     0.190677897842     0.553734603530     1.007825032230
         H           -2.590743404970    -2.109936102158     0.639674603530     1.007825032230

  Basis Set: AUG-CC-PVTZ
    Blend: AUG-CC-PVTZ
  Basis Set: (AUG-CC-PVTZ AUX)
    Blend: AUG-CC-PVTZ-JKFIT
	 Reference Energy          =    -528.8714595249909962 [Eh]
	 Singles Energy            =      -0.0000000000000000 [Eh]
	 Same-Spin Energy          =      -0.5296600680712427 [Eh]
	 Opposite-Spin Energy      =      -1.6389258971504201 [Eh]
	 Correlation Energy        =      -2.1685859652216628 [Eh]
	 Total Energy              =    -531.0400454902126057 [Eh]

	 ================> DF-SCS-MP2 Energies <==================
	-----------------------------------------------------------
	 SCS Same-Spin Scale       =       0.3333333333333333 [-]
	 SCS Opposite-Spin Scale   =       1.2000000000000000 [-]
	 SCS Same-Spin Energy      =      -0.1765533560237476 [Eh]
	 SCS Opposite-Spin Energy  =      -1.9667110765805040 [Eh]
	 SCS Correlation Energy    =      -2.1432644326042514 [Eh]
	 SCS Total Energy          =    -531.0147239575952653 [Eh]
	-----------------------------------------------------------

  Dipole Moment: [D]
     X:    -0.0635      Y:     2.4870      Z:     1.2587     Total:     2.7881

*** Psi4 exiting successfully. Buy a developer a beer!
