                               Psi4 1.4a3.dev225

  ==> Input File <==

--------------------------------------------------------------------------
#psi4
#
memory 32 gb

molecule  {
0 1
  O       -2.2574700    -1.6449290    -0.1296770
  O       -2.1921770    -0.0290210     1.4584970
  O        2.5788390    -1.2486470    -0.5488970
  N       -1.4647530     1.9008340    -0.4830500
  N        3.3509580     0.4760520     0.7213670
  C        0.0918810     0.0546190    -0.9743850
  C       -1.3720140     0.4733420    -0.7784070
  C        0.9632520     0.3707540     0.2365710
  C       -1.9914170    -0.3885060     0.3082000
  C        2.3558810    -0.1906776     0.0792954
  H        0.1537030    -1.0145040    -1.1942090
  H        0.4723450     0.5966220    -1.8458350
  H       -1.9085090     0.2703120    -1.7118280
  H        1.0130710     1.4535820     0.3953090
  H        0.5380840    -0.0656780     1.1502640
  H       -1.3040640     2.0229100     0.5176770
  H       -2.4257360     2.2084470    -0.6320870
  H        3.2131660     1.4254870     1.0344650
  H        4.3007880     0.1652150     0.5629740
  H       -2.5967120    -2.1354700     0.6482930
units angstrom
no_reorient  #important for SAPT in psi4, default
symmetry c1  #important for SAPT in psi4, default
}

set PROPERTIES_ORIGIN ["COM"]
properties('MP2/aug-cc-pvtz', properties = ['dipole'])
--------------------------------------------------------------------------

    Molecular point group: c1
  Charge       = 0
  Multiplicity = 1
  Basis Set: AUG-CC-PVTZ
    Blend: AUG-CC-PVTZ
  Basis Set: (AUG-CC-PVTZ AUX)
    Blend: AUG-CC-PVTZ-JKFIT

    Orbital Energies [Eh]
    ---------------------

    Doubly Occupied:

       1A    -20.625255     2A    -20.562426     3A    -20.518710
       4A    -15.592755     5A    -15.558270     6A    -11.395465
       7A    -11.358261     8A    -11.286503     9A    -11.247467
      10A    -11.238146    11A     -1.469631    12A     -1.367013
      13A     -1.364665    14A     -1.215358    15A     -1.208057
      16A     -1.072615    17A     -0.985423    18A     -0.887084
      19A     -0.805299    20A     -0.778794    21A     -0.733336
      22A     -0.714796    23A     -0.708208    24A     -0.690141
      25A     -0.656314    26A     -0.649131    27A     -0.620661
      28A     -0.604045    29A     -0.587681    30A     -0.583997
      31A     -0.552857    32A     -0.521408    33A     -0.509178
      34A     -0.501227    35A     -0.486531    36A     -0.464573
      37A     -0.427202    38A     -0.419493    39A     -0.414886

  @DF-RHF Final Energy:  -528.88951022200047

   => Energetics <=

    Nuclear Repulsion Energy =            548.3301019255914071
    One-Electron Energy =               -1811.6734992694982793
    Two-Electron Energy =                 734.4538871219064049
    Total Energy =                       -528.8895102220004674
  Basis Set: (AUG-CC-PVTZ AUX)
    Blend: AUG-CC-PVTZ-RI
    Molecular point group: c1

    Geometry (in Angstrom), charge = 0, multiplicity = 1:

       Center              X                  Y                   Z               Mass
    ------------   -----------------  -----------------  -----------------  -----------------
         O           -2.247391076458    -1.613004900747    -0.137781904533    15.994914619570
         O           -2.182098076458     0.002903099253     1.450392095467    15.994914619570
         O            2.588917923542    -1.216722900747    -0.557001904533    15.994914619570
         N           -1.454674076458     1.932758099253    -0.491154904533    14.003074004430
         N            3.361036923542     0.507976099253     0.713262095467    14.003074004430
         C            0.101959923542     0.086543099253    -0.982489904533    12.000000000000
         C           -1.361935076458     0.505266099253    -0.786511904533    12.000000000000
         C            0.973330923542     0.402678099253     0.228466095467    12.000000000000
         C           -1.981338076458    -0.356581900747     0.300095095467    12.000000000000
         C            2.365959923542    -0.158753500747     0.071190495467    12.000000000000
         H            0.163781923542    -0.982579900747    -1.202313904533     1.007825032230
         H            0.482423923542     0.628546099253    -1.853939904533     1.007825032230
         H           -1.898430076458     0.302236099253    -1.719932904533     1.007825032230
         H            1.023149923542     1.485506099253     0.387204095467     1.007825032230
         H            0.548162923542    -0.033753900747     1.142159095467     1.007825032230
         H           -1.293985076458     2.054834099253     0.509572095467     1.007825032230
         H           -2.415657076458     2.240371099253    -0.640191904533     1.007825032230
         H            3.223244923542     1.457411099253     1.026360095467     1.007825032230
         H            4.310866923542     0.197139099253     0.554869095467     1.007825032230
         H           -2.586633076458    -2.103545900747     0.640188095467     1.007825032230

  Basis Set: AUG-CC-PVTZ
    Blend: AUG-CC-PVTZ
  Basis Set: (AUG-CC-PVTZ AUX)
    Blend: AUG-CC-PVTZ-JKFIT
	 Reference Energy          =    -528.8895102220004674 [Eh]
	 Singles Energy            =      -0.0000000000000000 [Eh]
	 Same-Spin Energy          =      -0.5284798185366184 [Eh]
	 Opposite-Spin Energy      =      -1.6367271898360838 [Eh]
	 Correlation Energy        =      -2.1652070083727022 [Eh]
	 Total Energy              =    -531.0547172303731713 [Eh]

	 ================> DF-SCS-MP2 Energies <==================
	-----------------------------------------------------------
	 SCS Same-Spin Scale       =       0.3333333333333333 [-]
	 SCS Opposite-Spin Scale   =       1.2000000000000000 [-]
	 SCS Same-Spin Energy      =      -0.1761599395122061 [Eh]
	 SCS Opposite-Spin Energy  =      -1.9640726278033005 [Eh]
	 SCS Correlation Energy    =      -2.1402325673155067 [Eh]
	 SCS Total Energy          =    -531.0297427893159465 [Eh]
	-----------------------------------------------------------

  Dipole Moment: [D]
     X:    -0.3990      Y:     2.0431      Z:     0.9380     Total:     2.2833

*** Psi4 exiting successfully. Buy a developer a beer!
