                               Psi4 1.4a3.dev225

  ==> Input File <==

--------------------------------------------------------------------------
#psi4
#
memory 32 gb

molecule  {
0 1
  O       -2.2574700    -1.6449290    -0.1296770
  O       -2.1921770    -0.0290210     1.4584970
  O        2.5788390    -1.2486470    -0.5488970
  N       -1.4647530     1.9008340    -0.4830500
  N        3.3509580     0.4760520     0.7213670
  C        0.0918810     0.0546190    -0.9743850
  C       -1.3720140     0.4733420    -0.7784070
  C        0.9632520     0.3707540     0.2365710
  C       -1.9914170    -0.3885060     0.3082000
  C        2.3594470    -0.2075990     0.0692480
  H        0.1537030    -1.0145040    -1.1942090
  H        0.4723450     0.5966220    -1.8458350
  H       -1.9085090     0.2703120    -1.7118280
  H        1.0130710     1.4535820     0.3953090
  H        0.5380840    -0.0656780     1.1502640
  H       -1.3040640     2.0229100     0.5176770
  H       -2.4257360     2.2084470    -0.6320870
  H        3.2199929     1.3784471     1.0189525
  H        4.3007880     0.1652150     0.5629740
  H       -2.5967120    -2.1354700     0.6482930
units angstrom
no_reorient  #important for SAPT in psi4, default
symmetry c1  #important for SAPT in psi4, default
}

set PROPERTIES_ORIGIN ["COM"]
properties('MP2/aug-cc-pvtz', properties = ['dipole'])
--------------------------------------------------------------------------

    Molecular point group: c1
  Charge       = 0
  Multiplicity = 1
  Basis Set: AUG-CC-PVTZ
    Blend: AUG-CC-PVTZ
  Basis Set: (AUG-CC-PVTZ AUX)
    Blend: AUG-CC-PVTZ-JKFIT

    Orbital Energies [Eh]
    ---------------------

    Doubly Occupied:

       1A    -20.625265     2A    -20.562308     3A    -20.522756
       4A    -15.584869     5A    -15.558082     6A    -11.395361
       7A    -11.357778     8A    -11.286324     9A    -11.246894
      10A    -11.237952    11A     -1.469594    12A     -1.377221
      13A     -1.366922    14A     -1.219934    15A     -1.207898
      16A     -1.071752    17A     -0.984233    18A     -0.886137
      19A     -0.806634    20A     -0.780893    21A     -0.738421
      22A     -0.715015    23A     -0.708808    24A     -0.689802
      25A     -0.656036    26A     -0.651488    27A     -0.620670
      28A     -0.604113    29A     -0.593432    30A     -0.585256
      31A     -0.554650    32A     -0.522298    33A     -0.509789
      34A     -0.501009    35A     -0.486557    36A     -0.464423
      37A     -0.429554    38A     -0.420421    39A     -0.416726

  @DF-RHF Final Energy:  -528.89113842756899

   => Energetics <=

    Nuclear Repulsion Energy =            548.6527145853385719
    One-Electron Energy =               -1812.2531541056248443
    Two-Electron Energy =                 734.7093010927172827
    Total Energy =                       -528.8911384275689898
  Basis Set: (AUG-CC-PVTZ AUX)
    Blend: AUG-CC-PVTZ-RI
    Molecular point group: c1

    Geometry (in Angstrom), charge = 0, multiplicity = 1:

       Center              X                  Y                   Z               Mass
    ------------   -----------------  -----------------  -----------------  -----------------
         O           -2.247731136788    -1.611290200538    -0.136849451013    15.994914619570
         O           -2.182438136788     0.004617799462     1.451324548987    15.994914619570
         O            2.588577863212    -1.215008200538    -0.556069451013    15.994914619570
         N           -1.455014136788     1.934472799462    -0.490222451013    14.003074004430
         N            3.360696863212     0.509690799462     0.714194548987    14.003074004430
         C            0.101619863212     0.088257799462    -0.981557451013    12.000000000000
         C           -1.362275136788     0.506980799462    -0.785579451013    12.000000000000
         C            0.972990863212     0.404392799462     0.229398548987    12.000000000000
         C           -1.981678136788    -0.354867200538     0.301027548987    12.000000000000
         C            2.369185863212    -0.173960200538     0.062075548987    12.000000000000
         H            0.163441863212    -0.980865200538    -1.201381451013     1.007825032230
         H            0.482083863212     0.630260799462    -1.853007451013     1.007825032230
         H           -1.898770136788     0.303950799462    -1.719000451013     1.007825032230
         H            1.022809863212     1.487220799462     0.388136548987     1.007825032230
         H            0.547822863212    -0.032039200538     1.143091548987     1.007825032230
         H           -1.294325136788     2.056548799462     0.510504548987     1.007825032230
         H           -2.415997136788     2.242085799462    -0.639259451013     1.007825032230
         H            3.229731763212     1.412085899462     1.011780048987     1.007825032230
         H            4.310526863212     0.198853799462     0.555801548987     1.007825032230
         H           -2.586973136788    -2.101831200538     0.641120548987     1.007825032230

  Basis Set: AUG-CC-PVTZ
    Blend: AUG-CC-PVTZ
  Basis Set: (AUG-CC-PVTZ AUX)
    Blend: AUG-CC-PVTZ-JKFIT
	 Reference Energy          =    -528.8911384275689898 [Eh]
	 Singles Energy            =      -0.0000000000000000 [Eh]
	 Same-Spin Energy          =      -0.5277398117250264 [Eh]
	 Opposite-Spin Energy      =      -1.6351236892582190 [Eh]
	 Correlation Energy        =      -2.1628635009832453 [Eh]
	 Total Energy              =    -531.0540019285522249 [Eh]

	 ================> DF-SCS-MP2 Energies <==================
	-----------------------------------------------------------
	 SCS Same-Spin Scale       =       0.3333333333333333 [-]
	 SCS Opposite-Spin Scale   =       1.2000000000000000 [-]
	 SCS Same-Spin Energy      =      -0.1759132705750088 [Eh]
	 SCS Opposite-Spin Energy  =      -1.9621484271098628 [Eh]
	 SCS Correlation Energy    =      -2.1380616976848716 [Eh]
	 SCS Total Energy          =    -531.0292001252538512 [Eh]
	-----------------------------------------------------------

  Dipole Moment: [D]
     X:    -0.4055      Y:     1.8905      Z:     0.8463     Total:     2.1107

*** Psi4 exiting successfully. Buy a developer a beer!
