                               Psi4 1.3.2 release

  ==> Input File <==

--------------------------------------------------------------------------
#psi4
#
memory 32 gb

molecule  {
0 1
  O       -2.2580520    -1.6446380    -0.1299340
  O       -2.1922020    -0.0289620     1.4584460
  O        2.5787120    -1.2491670    -0.5482700
  N       -1.4644620     1.9009220    -0.4829880
  N        3.3512580     0.4763250     0.7206820
  C        0.0518146     0.0806064    -0.9509345
  C       -1.3719240     0.4734550    -0.7783870
  C        0.9633170     0.3705390     0.2368360
  C       -1.9915820    -0.3883620     0.3080910
  C        2.3594900    -0.2078000     0.0693900
  H        0.1535850    -1.0146500    -1.1939440
  H        0.4725780     0.5964070    -1.8456160
  H       -1.9082720     0.2705620    -1.7119190
  H        1.0131360     1.4533500     0.3956850
  H        0.5381800    -0.0660200     1.1504670
  H       -1.3038060     2.0229320     0.5177520
  H       -2.4253970     2.2086760    -0.6320610
  H        3.2135550     1.4259430     1.0332840
  H        4.3010400     0.1654310     0.5620470
  H       -2.5974020    -2.1351830     0.6479870
units angstrom
no_reorient  #important for SAPT in psi4, default
symmetry c1  #important for SAPT in psi4, default
}

set PROPERTIES_ORIGIN ["COM"]
properties('MP2/aug-cc-pvtz', properties = ['dipole'])
--------------------------------------------------------------------------

    Molecular point group: c1
  Charge       = 0
  Multiplicity = 1
  Basis Set: AUG-CC-PVTZ
    Blend: AUG-CC-PVTZ
  Basis Set: (AUG-CC-PVTZ AUX)
    Blend: AUG-CC-PVTZ-JKFIT

    Orbital Energies [Eh]
    ---------------------

    Doubly Occupied:

       1A    -20.625559     2A    -20.562975     3A    -20.522900
       4A    -15.590053     5A    -15.557989     6A    -11.395887
       7A    -11.358542     8A    -11.285236     9A    -11.246769
      10A    -11.239029    11A     -1.470084    12A     -1.376840
      13A     -1.367437    14A     -1.213428    15A     -1.210661
      16A     -1.072932    17A     -0.987550    18A     -0.884851
      19A     -0.805107    20A     -0.775383    21A     -0.733452
      22A     -0.714947    23A     -0.707363    24A     -0.690853
      25A     -0.655813    26A     -0.651802    27A     -0.620190
      28A     -0.604662    29A     -0.592616    30A     -0.587000
      31A     -0.551215    32A     -0.528725    33A     -0.507345
      34A     -0.495266    35A     -0.485226    36A     -0.462140
      37A     -0.429346    38A     -0.421240    39A     -0.417309

  @DF-RHF Final Energy:  -528.88807120349838

   => Energetics <=

    Nuclear Repulsion Energy =            548.9335088229280473
    One-Electron Energy =               -1812.8317121311379196
    Two-Electron Energy =                 735.0101321047113743
    Total Energy =                       -528.8880712034983844
  Basis Set: (AUG-CC-PVTZ AUX)
    Blend: AUG-CC-PVTZ-RI
    Molecular point group: c1

    Geometry (in Angstrom), charge = 0, multiplicity = 1:

       Center              X                  Y                   Z               Mass
    ------------   -----------------  -----------------  -----------------  -----------------
         O           -2.244960777340    -1.613465250969    -0.139132086617    15.994914619570
         O           -2.179110777340     0.002210749031     1.449247913383    15.994914619570
         O            2.591803222660    -1.217994250969    -0.557468086617    15.994914619570
         N           -1.451370777340     1.932094749031    -0.492186086617    14.003074004430
         N            3.364349222660     0.507497749031     0.711483913383    14.003074004430
         C            0.064905822660     0.111779149031    -0.960132586617    12.000000000000
         C           -1.358832777340     0.504627749031    -0.787585086617    12.000000000000
         C            0.976408222660     0.401711749031     0.227637913383    12.000000000000
         C           -1.978490777340    -0.357189250969     0.298892913383    12.000000000000
         C            2.372581222660    -0.176627250969     0.060191913383    12.000000000000
         H            0.166676222660    -0.983477250969    -1.203142086617     1.007825032230
         H            0.485669222660     0.627579749031    -1.854814086617     1.007825032230
         H           -1.895180777340     0.301734749031    -1.721117086617     1.007825032230
         H            1.026227222660     1.484522749031     0.386486913383     1.007825032230
         H            0.551271222660    -0.034847250969     1.141268913383     1.007825032230
         H           -1.290714777340     2.054104749031     0.508553913383     1.007825032230
         H           -2.412305777340     2.239848749031    -0.641259086617     1.007825032230
         H            3.226646222660     1.457115749031     1.024085913383     1.007825032230
         H            4.314131222660     0.196603749031     0.552848913383     1.007825032230
         H           -2.584310777340    -2.104010250969     0.638788913383     1.007825032230

  Basis Set: AUG-CC-PVTZ
    Blend: AUG-CC-PVTZ
  Basis Set: (AUG-CC-PVTZ AUX)
    Blend: AUG-CC-PVTZ-JKFIT
	 Reference Energy          =    -528.8880712034983844 [Eh]
	 Singles Energy            =      -0.0000000000000000 [Eh]
	 Same-Spin Energy          =      -0.5284712165999099 [Eh]
	 Opposite-Spin Energy      =      -1.6365195643820507 [Eh]
	 Correlation Energy        =      -2.1649907809819604 [Eh]
	 Total Energy              =    -531.0530619844803368 [Eh]

	 ================> DF-SCS-MP2 Energies <==================
	-----------------------------------------------------------
	 SCS Same-Spin Scale       =       0.3333333333333333 [-]
	 SCS Opposite-Spin Scale   =       1.2000000000000000 [-]
	 SCS Same-Spin Energy      =      -0.1761570721999700 [Eh]
	 SCS Opposite-Spin Energy  =      -1.9638234772584608 [Eh]
	 SCS Correlation Energy    =      -2.1399805494584307 [Eh]
	 SCS Total Energy          =    -531.0280517529567987 [Eh]
	-----------------------------------------------------------

  Dipole Moment: [D]
     X:    -0.4215      Y:     1.9206      Z:     0.8757     Total:     2.1525

*** Psi4 exiting successfully. Buy a developer a beer!
