                               Psi4 1.3.2 release

  ==> Input File <==

--------------------------------------------------------------------------
#psi4
#
memory 32 gb

molecule  {
0 1
  O       -2.2580520    -1.6446380    -0.1299340
  O       -2.1922020    -0.0289620     1.4584460
  O        2.5996615    -1.2470343    -0.5440569
  N       -1.4644620     1.9009220    -0.4829880
  N        3.3512580     0.4763250     0.7206820
  C        0.0919590     0.0544950    -0.9741750
  C       -1.3719240     0.4734550    -0.7783870
  C        0.9633170     0.3705390     0.2368360
  C       -1.9915820    -0.3883620     0.3080910
  C        2.3594900    -0.2078000     0.0693900
  H        0.1535850    -1.0146500    -1.1939440
  H        0.4725780     0.5964070    -1.8456160
  H       -1.9082720     0.2705620    -1.7119190
  H        1.0131360     1.4533500     0.3956850
  H        0.5381800    -0.0660200     1.1504670
  H       -1.3038060     2.0229320     0.5177520
  H       -2.4253970     2.2086760    -0.6320610
  H        3.2135550     1.4259430     1.0332840
  H        4.3010400     0.1654310     0.5620470
  H       -2.5974020    -2.1351830     0.6479870
units angstrom
no_reorient  #important for SAPT in psi4, default
symmetry c1  #important for SAPT in psi4, default
}

set PROPERTIES_ORIGIN ["COM"]
properties('MP2/aug-cc-pvtz', properties = ['dipole'])
--------------------------------------------------------------------------

    Molecular point group: c1
  Charge       = 0
  Multiplicity = 1
  Basis Set: AUG-CC-PVTZ
    Blend: AUG-CC-PVTZ
  Basis Set: (AUG-CC-PVTZ AUX)
    Blend: AUG-CC-PVTZ-JKFIT

    Orbital Energies [Eh]
    ---------------------

    Doubly Occupied:

       1A    -20.625531     2A    -20.562593     3A    -20.522275
       4A    -15.588358     5A    -15.558438     6A    -11.395652
       7A    -11.357430     8A    -11.286704     9A    -11.247625
      10A    -11.238510    11A     -1.469868    12A     -1.376785
      13A     -1.367196    14A     -1.211400    15A     -1.207915
      16A     -1.072172    17A     -0.984423    18A     -0.885858
      19A     -0.803379    20A     -0.777695    21A     -0.731770
      22A     -0.714626    23A     -0.707220    24A     -0.689511
      25A     -0.656220    26A     -0.650849    27A     -0.620859
      28A     -0.604210    29A     -0.591716    30A     -0.585515
      31A     -0.554511    32A     -0.522686    33A     -0.510062
      34A     -0.501365    35A     -0.486880    36A     -0.464731
      37A     -0.429247    38A     -0.419950    39A     -0.415715

  @DF-RHF Final Energy:  -528.89167513425173

   => Energetics <=

    Nuclear Repulsion Energy =            548.2027307370144626
    One-Electron Energy =               -1811.3939156546109643
    Two-Electron Energy =                 734.2995097833447744
    Total Energy =                       -528.8916751342517273
  Basis Set: (AUG-CC-PVTZ AUX)
    Blend: AUG-CC-PVTZ-RI
    Molecular point group: c1

    Geometry (in Angstrom), charge = 0, multiplicity = 1:

       Center              X                  Y                   Z               Mass
    ------------   -----------------  -----------------  -----------------  -----------------
         O           -2.250552774743    -1.611553660051    -0.137684157082    15.994914619570
         O           -2.184702774743     0.004122339949     1.450695842918    15.994914619570
         O            2.607160725257    -1.213949960051    -0.551807057082    15.994914619570
         N           -1.456962774743     1.934006339949    -0.490738157082    14.003074004430
         N            3.358757225257     0.509409339949     0.712931842918    14.003074004430
         C            0.099458225257     0.087579339949    -0.981925157082    12.000000000000
         C           -1.364424774743     0.506539339949    -0.786137157082    12.000000000000
         C            0.970816225257     0.403623339949     0.229085842918    12.000000000000
         C           -1.984082774743    -0.355277660051     0.300340842918    12.000000000000
         C            2.366989225257    -0.174715660051     0.061639842918    12.000000000000
         H            0.161084225257    -0.981565660051    -1.201694157082     1.007825032230
         H            0.480077225257     0.629491339949    -1.853366157082     1.007825032230
         H           -1.900772774743     0.303646339949    -1.719669157082     1.007825032230
         H            1.020635225257     1.486434339949     0.387934842918     1.007825032230
         H            0.545679225257    -0.032935660051     1.142716842918     1.007825032230
         H           -1.296306774743     2.056016339949     0.510001842918     1.007825032230
         H           -2.417897774743     2.241760339949    -0.639811157082     1.007825032230
         H            3.221054225257     1.459027339949     1.025533842918     1.007825032230
         H            4.308539225257     0.198515339949     0.554296842918     1.007825032230
         H           -2.589902774743    -2.102098660051     0.640236842918     1.007825032230

  Basis Set: AUG-CC-PVTZ
    Blend: AUG-CC-PVTZ
  Basis Set: (AUG-CC-PVTZ AUX)
    Blend: AUG-CC-PVTZ-JKFIT
	 Reference Energy          =    -528.8916751342517273 [Eh]
	 Singles Energy            =      -0.0000000000000000 [Eh]
	 Same-Spin Energy          =      -0.5280231146712541 [Eh]
	 Opposite-Spin Energy      =      -1.6358821269410218 [Eh]
	 Correlation Energy        =      -2.1639052416122757 [Eh]
	 Total Energy              =    -531.0555803758639968 [Eh]

	 ================> DF-SCS-MP2 Energies <==================
	-----------------------------------------------------------
	 SCS Same-Spin Scale       =       0.3333333333333333 [-]
	 SCS Opposite-Spin Scale   =       1.2000000000000000 [-]
	 SCS Same-Spin Energy      =      -0.1760077048904180 [Eh]
	 SCS Opposite-Spin Energy  =      -1.9630585523292261 [Eh]
	 SCS Correlation Energy    =      -2.1390662572196439 [Eh]
	 SCS Total Energy          =    -531.0307413914713379 [Eh]
	-----------------------------------------------------------

  Dipole Moment: [D]
     X:    -0.4782      Y:     1.9327      Z:     0.8483     Total:     2.1642

*** Psi4 exiting successfully. Buy a developer a beer!
