                               Psi4 1.3.2 release

  ==> Input File <==

--------------------------------------------------------------------------
#psi4
#
memory 32 gb

molecule  {
0 1
  O       -2.2580520    -1.6446380    -0.1299340
  O       -2.1922020    -0.0289620     1.4584460
  O        2.5787120    -1.2491670    -0.5482700
  N       -1.4644620     1.9009220    -0.4829880
  N        3.3512580     0.4763250     0.7206820
  C        0.0919590     0.0544950    -0.9741750
  C       -1.3719240     0.4734550    -0.7783870
  C        0.9633170     0.3705390     0.2368360
  C       -1.9915820    -0.3883620     0.3080910
  C        2.3238572    -0.0385340     0.1697858
  H        0.1535850    -1.0146500    -1.1939440
  H        0.4725780     0.5964070    -1.8456160
  H       -1.9082720     0.2705620    -1.7119190
  H        1.0131360     1.4533500     0.3956850
  H        0.5381800    -0.0660200     1.1504670
  H       -1.3038060     2.0229320     0.5177520
  H       -2.4253970     2.2086760    -0.6320610
  H        3.2135550     1.4259430     1.0332840
  H        4.3010400     0.1654310     0.5620470
  H       -2.5974020    -2.1351830     0.6479870
units angstrom
no_reorient  #important for SAPT in psi4, default
symmetry c1  #important for SAPT in psi4, default
}

set PROPERTIES_ORIGIN ["COM"]
properties('MP2/aug-cc-pvtz', properties = ['dipole'])
--------------------------------------------------------------------------

    Molecular point group: c1
  Charge       = 0
  Multiplicity = 1
  Basis Set: AUG-CC-PVTZ
    Blend: AUG-CC-PVTZ
  Basis Set: (AUG-CC-PVTZ AUX)
    Blend: AUG-CC-PVTZ-JKFIT

    Orbital Energies [Eh]
    ---------------------

    Doubly Occupied:

       1A    -20.625735     2A    -20.563969     3A    -20.484053
       4A    -15.620478     5A    -15.559999     6A    -11.396870
       7A    -11.360682     8A    -11.288626     9A    -11.253847
      10A    -11.241435    11A     -1.470505    12A     -1.368216
      13A     -1.325653    14A     -1.210540    15A     -1.193752
      16A     -1.084078    17A     -0.999465    18A     -0.900396
      19A     -0.825683    20A     -0.787754    21A     -0.750343
      22A     -0.723845    23A     -0.714034    24A     -0.693820
      25A     -0.663314    26A     -0.646958    27A     -0.624611
      28A     -0.607995    29A     -0.595668    30A     -0.558063
      31A     -0.534172    32A     -0.519768    33A     -0.512993
      34A     -0.491932    35A     -0.479471    36A     -0.466310
      37A     -0.421254    38A     -0.395860    39A     -0.379910

  @DF-RHF Final Energy:  -528.82607552967147

   => Energetics <=

    Nuclear Repulsion Energy =            548.1282671353393425
    One-Electron Energy =               -1811.2245674104415230
    Two-Electron Energy =                 734.2702247454308235
    Total Energy =                       -528.8260755296714706
  Basis Set: (AUG-CC-PVTZ AUX)
    Blend: AUG-CC-PVTZ-RI
    Molecular point group: c1

    Geometry (in Angstrom), charge = 0, multiplicity = 1:

       Center              X                  Y                   Z               Mass
    ------------   -----------------  -----------------  -----------------  -----------------
         O           -2.245331418251    -1.625225812948    -0.145470616344    15.994914619570
         O           -2.179481418251    -0.009549812948     1.442909383656    15.994914619570
         O            2.591432581749    -1.229754812948    -0.563806616344    15.994914619570
         N           -1.451741418251     1.920334187052    -0.498524616344    14.003074004430
         N            3.363978581749     0.495737187052     0.705145383656    14.003074004430
         C            0.104679581749     0.073907187052    -0.989711616344    12.000000000000
         C           -1.359203418251     0.492867187052    -0.793923616344    12.000000000000
         C            0.976037581749     0.389951187052     0.221299383656    12.000000000000
         C           -1.978861418251    -0.368949812948     0.292554383656    12.000000000000
         C            2.336577781749    -0.019121812948     0.154249183656    12.000000000000
         H            0.166305581749    -0.995237812948    -1.209480616344     1.007825032230
         H            0.485298581749     0.615819187052    -1.861152616344     1.007825032230
         H           -1.895551418251     0.289974187052    -1.727455616344     1.007825032230
         H            1.025856581749     1.472762187052     0.380148383656     1.007825032230
         H            0.550900581749    -0.046607812948     1.134930383656     1.007825032230
         H           -1.291085418251     2.042344187052     0.502215383656     1.007825032230
         H           -2.412676418251     2.228088187052    -0.647597616344     1.007825032230
         H            3.226275581749     1.445355187052     1.017747383656     1.007825032230
         H            4.313760581749     0.184843187052     0.546510383656     1.007825032230
         H           -2.584681418251    -2.115770812948     0.632450383656     1.007825032230

  Basis Set: AUG-CC-PVTZ
    Blend: AUG-CC-PVTZ
  Basis Set: (AUG-CC-PVTZ AUX)
    Blend: AUG-CC-PVTZ-JKFIT
	 Reference Energy          =    -528.8260755296714706 [Eh]
	 Singles Energy            =      -0.0000000000000000 [Eh]
	 Same-Spin Energy          =      -0.5324425295762931 [Eh]
	 Opposite-Spin Energy      =      -1.6441974971297733 [Eh]
	 Correlation Energy        =      -2.1766400267060666 [Eh]
	 Total Energy              =    -531.0027155563775523 [Eh]

	 ================> DF-SCS-MP2 Energies <==================
	-----------------------------------------------------------
	 SCS Same-Spin Scale       =       0.3333333333333333 [-]
	 SCS Opposite-Spin Scale   =       1.2000000000000000 [-]
	 SCS Same-Spin Energy      =      -0.1774808431920977 [Eh]
	 SCS Opposite-Spin Energy  =      -1.9730369965557277 [Eh]
	 SCS Correlation Energy    =      -2.1505178397478253 [Eh]
	 SCS Total Energy          =    -530.9765933694193336 [Eh]
	-----------------------------------------------------------

  Dipole Moment: [D]
     X:    -0.3642      Y:     2.9567      Z:     1.5588     Total:     3.3623

*** Psi4 exiting successfully. Buy a developer a beer!
