                               Psi4 1.3.2 release

  ==> Input File <==

--------------------------------------------------------------------------
#psi4
#
memory 32 gb

molecule  {
0 1
  O       -2.2580520    -1.6446380    -0.1299340
  O       -2.1922020    -0.0289620     1.4584460
  O        2.5787120    -1.2491670    -0.5482700
  N       -1.4644620     1.9009220    -0.4829880
  N        3.3512580     0.4763250     0.7206820
  C        0.0919590     0.0544950    -0.9741750
  C       -1.3719240     0.4734550    -0.7783870
  C        0.9633170     0.3705390     0.2368360
  C       -1.9915820    -0.3883620     0.3080910
  C        2.2676646    -0.1697630     0.0804028
  H        0.1535850    -1.0146500    -1.1939440
  H        0.4725780     0.5964070    -1.8456160
  H       -1.9082720     0.2705620    -1.7119190
  H        1.0131360     1.4533500     0.3956850
  H        0.5381800    -0.0660200     1.1504670
  H       -1.3038060     2.0229320     0.5177520
  H       -2.4253970     2.2086760    -0.6320610
  H        3.2135550     1.4259430     1.0332840
  H        4.3010400     0.1654310     0.5620470
  H       -2.5974020    -2.1351830     0.6479870
units angstrom
no_reorient  #important for SAPT in psi4, default
symmetry c1  #important for SAPT in psi4, default
}

set PROPERTIES_ORIGIN ["COM"]
properties('MP2/aug-cc-pvtz', properties = ['dipole'])
--------------------------------------------------------------------------

    Molecular point group: c1
  Charge       = 0
  Multiplicity = 1
  Basis Set: AUG-CC-PVTZ
    Blend: AUG-CC-PVTZ
  Basis Set: (AUG-CC-PVTZ AUX)
    Blend: AUG-CC-PVTZ-JKFIT

    Orbital Energies [Eh]
    ---------------------

    Doubly Occupied:

       1A    -20.627939     2A    -20.565638     3A    -20.519030
       4A    -15.586718     5A    -15.561596     6A    -11.398585
       7A    -11.365498     8A    -11.290128     9A    -11.250716
      10A    -11.244050    11A     -1.472512    12A     -1.370018
      13A     -1.344395    14A     -1.212028    15A     -1.191830
      16A     -1.088978    17A     -0.999086    18A     -0.896528
      19A     -0.803544    20A     -0.773812    21A     -0.727208
      22A     -0.716688    23A     -0.706228    24A     -0.697105
      25A     -0.662689    26A     -0.650653    27A     -0.624459
      28A     -0.608049    29A     -0.594724    30A     -0.578221
      31A     -0.547709    32A     -0.526241    33A     -0.505995
      34A     -0.505247    35A     -0.488443    36A     -0.467962
      37A     -0.429549    38A     -0.422599    39A     -0.405516

  @DF-RHF Final Energy:  -528.87164362709700

   => Energetics <=

    Nuclear Repulsion Energy =            548.7679604461461622
    One-Electron Energy =               -1812.4233772213622160
    Two-Electron Energy =                 734.7837731481190531
    Total Energy =                       -528.8716436270970007
  Basis Set: (AUG-CC-PVTZ AUX)
    Blend: AUG-CC-PVTZ-RI
    Molecular point group: c1

    Geometry (in Angstrom), charge = 0, multiplicity = 1:

       Center              X                  Y                   Z               Mass
    ------------   -----------------  -----------------  -----------------  -----------------
         O           -2.240715034600    -1.614444973297    -0.138127545906    15.994914619570
         O           -2.174865034600     0.001231026703     1.450252454094    15.994914619570
         O            2.596048965400    -1.218973973297    -0.556463545906    15.994914619570
         N           -1.447125034600     1.931115026703    -0.491181545906    14.003074004430
         N            3.368594965400     0.506518026703     0.712488454094    14.003074004430
         C            0.109295965400     0.084688026703    -0.982368545906    12.000000000000
         C           -1.354587034600     0.503648026703    -0.786580545906    12.000000000000
         C            0.980653965400     0.400732026703     0.228642454094    12.000000000000
         C           -1.974245034600    -0.358168973297     0.299897454094    12.000000000000
         C            2.285001565400    -0.139569973297     0.072209254094    12.000000000000
         H            0.170921965400    -0.984456973297    -1.202137545906     1.007825032230
         H            0.489914965400     0.626600026703    -1.853809545906     1.007825032230
         H           -1.890935034600     0.300755026703    -1.720112545906     1.007825032230
         H            1.030472965400     1.483543026703     0.387491454094     1.007825032230
         H            0.555516965400    -0.035826973297     1.142273454094     1.007825032230
         H           -1.286469034600     2.053125026703     0.509558454094     1.007825032230
         H           -2.408060034600     2.238869026703    -0.640254545906     1.007825032230
         H            3.230891965400     1.456136026703     1.025090454094     1.007825032230
         H            4.318376965400     0.195624026703     0.553853454094     1.007825032230
         H           -2.580065034600    -2.104989973297     0.639793454094     1.007825032230

  Basis Set: AUG-CC-PVTZ
    Blend: AUG-CC-PVTZ
  Basis Set: (AUG-CC-PVTZ AUX)
    Blend: AUG-CC-PVTZ-JKFIT
	 Reference Energy          =    -528.8716436270970007 [Eh]
	 Singles Energy            =      -0.0000000000000000 [Eh]
	 Same-Spin Energy          =      -0.5302290633657600 [Eh]
	 Opposite-Spin Energy      =      -1.6403287295394380 [Eh]
	 Correlation Energy        =      -2.1705577929051980 [Eh]
	 Total Energy              =    -531.0422014200022431 [Eh]

	 ================> DF-SCS-MP2 Energies <==================
	-----------------------------------------------------------
	 SCS Same-Spin Scale       =       0.3333333333333333 [-]
	 SCS Opposite-Spin Scale   =       1.2000000000000000 [-]
	 SCS Same-Spin Energy      =      -0.1767430211219200 [Eh]
	 SCS Opposite-Spin Energy  =      -1.9683944754473255 [Eh]
	 SCS Correlation Energy    =      -2.1451374965692454 [Eh]
	 SCS Total Energy          =    -531.0167811236661919 [Eh]
	-----------------------------------------------------------

  Dipole Moment: [D]
     X:    -0.9764      Y:     2.0372      Z:     0.8418     Total:     2.4109

*** Psi4 exiting successfully. Buy a developer a beer!
