                               Psi4 1.3.2 release

  ==> Input File <==

--------------------------------------------------------------------------
#psi4
#
memory 32 gb

molecule  {
0 1
  O       -2.2580520    -1.6446380    -0.1299340
  O       -2.1922020    -0.0289620     1.4584460
  O        2.5787120    -1.2491670    -0.5482700
  N       -1.4644620     1.9009220    -0.4829880
  N        3.3512580     0.4763250     0.7206820
  C        0.1753825     0.0034587    -1.0162033
  C       -1.3719240     0.4734550    -0.7783870
  C        0.9633170     0.3705390     0.2368360
  C       -1.9915820    -0.3883620     0.3080910
  C        2.3594900    -0.2078000     0.0693900
  H        0.1535850    -1.0146500    -1.1939440
  H        0.4725780     0.5964070    -1.8456160
  H       -1.9082720     0.2705620    -1.7119190
  H        1.0131360     1.4533500     0.3956850
  H        0.5381800    -0.0660200     1.1504670
  H       -1.3038060     2.0229320     0.5177520
  H       -2.4253970     2.2086760    -0.6320610
  H        3.2135550     1.4259430     1.0332840
  H        4.3010400     0.1654310     0.5620470
  H       -2.5974020    -2.1351830     0.6479870
units angstrom
no_reorient  #important for SAPT in psi4, default
symmetry c1  #important for SAPT in psi4, default
}

set PROPERTIES_ORIGIN ["COM"]
properties('MP2/aug-cc-pvtz', properties = ['dipole'])
--------------------------------------------------------------------------

    Molecular point group: c1
  Charge       = 0
  Multiplicity = 1
  Basis Set: AUG-CC-PVTZ
    Blend: AUG-CC-PVTZ
  Basis Set: (AUG-CC-PVTZ AUX)
    Blend: AUG-CC-PVTZ-JKFIT

    Orbital Energies [Eh]
    ---------------------

    Doubly Occupied:

       1A    -20.624101     2A    -20.560394     3A    -20.522510
       4A    -15.589130     5A    -15.557915     6A    -11.393748
       7A    -11.356299     8A    -11.286968     9A    -11.247533
      10A    -11.237815    11A     -1.468079    12A     -1.377065
      13A     -1.365349    14A     -1.212230    15A     -1.202329
      16A     -1.069946    17A     -0.977102    18A     -0.887842
      19A     -0.800561    20A     -0.781272    21A     -0.729544
      22A     -0.713033    23A     -0.706676    24A     -0.687967
      25A     -0.657813    26A     -0.649608    27A     -0.621846
      28A     -0.602423    29A     -0.590941    30A     -0.581406
      31A     -0.563321    32A     -0.524645    33A     -0.515625
      34A     -0.499315    35A     -0.477766    36A     -0.465902
      37A     -0.428895    38A     -0.418839    39A     -0.410300

  @DF-RHF Final Energy:  -528.88235315051668

   => Energetics <=

    Nuclear Repulsion Energy =            547.3752925433549308
    One-Electron Energy =               -1809.7871781059238856
    Two-Electron Energy =                 733.5295324120521627
    Total Energy =                       -528.8823531505166784
  Basis Set: (AUG-CC-PVTZ AUX)
    Blend: AUG-CC-PVTZ-RI
    Molecular point group: c1

    Geometry (in Angstrom), charge = 0, multiplicity = 1:

       Center              X                  Y                   Z               Mass
    ------------   -----------------  -----------------  -----------------  -----------------
         O           -2.255112235600    -1.607127345604    -0.133770067040    15.994914619570
         O           -2.189262235600     0.008548654396     1.454609932960    15.994914619570
         O            2.581651764400    -1.211656345604    -0.552106067040    15.994914619570
         N           -1.461522235600     1.938432654396    -0.486824067040    14.003074004430
         N            3.354197764400     0.513835654396     0.716845932960    14.003074004430
         C            0.178322264400     0.040969354396    -1.020039367040    12.000000000000
         C           -1.368984235600     0.510965654396    -0.782223067040    12.000000000000
         C            0.966256764400     0.408049654396     0.232999932960    12.000000000000
         C           -1.988642235600    -0.350851345604     0.304254932960    12.000000000000
         C            2.362429764400    -0.170289345604     0.065553932960    12.000000000000
         H            0.156524764400    -0.977139345604    -1.197780067040     1.007825032230
         H            0.475517764400     0.633917654396    -1.849452067040     1.007825032230
         H           -1.905332235600     0.308072654396    -1.715755067040     1.007825032230
         H            1.016075764400     1.490860654396     0.391848932960     1.007825032230
         H            0.541119764400    -0.028509345604     1.146630932960     1.007825032230
         H           -1.300866235600     2.060442654396     0.513915932960     1.007825032230
         H           -2.422457235600     2.246186654396    -0.635897067040     1.007825032230
         H            3.216494764400     1.463453654396     1.029447932960     1.007825032230
         H            4.303979764400     0.202941654396     0.558210932960     1.007825032230
         H           -2.594462235600    -2.097672345604     0.644150932960     1.007825032230

  Basis Set: AUG-CC-PVTZ
    Blend: AUG-CC-PVTZ
  Basis Set: (AUG-CC-PVTZ AUX)
    Blend: AUG-CC-PVTZ-JKFIT
	 Reference Energy          =    -528.8823531505166784 [Eh]
	 Singles Energy            =      -0.0000000000000000 [Eh]
	 Same-Spin Energy          =      -0.5278897563602281 [Eh]
	 Opposite-Spin Energy      =      -1.6359741423288110 [Eh]
	 Correlation Energy        =      -2.1638638986890388 [Eh]
	 Total Energy              =    -531.0462170492056657 [Eh]

	 ================> DF-SCS-MP2 Energies <==================
	-----------------------------------------------------------
	 SCS Same-Spin Scale       =       0.3333333333333333 [-]
	 SCS Opposite-Spin Scale   =       1.2000000000000000 [-]
	 SCS Same-Spin Energy      =      -0.1759632521200760 [Eh]
	 SCS Opposite-Spin Energy  =      -1.9631689707945732 [Eh]
	 SCS Correlation Energy    =      -2.1391322229146494 [Eh]
	 SCS Total Energy          =    -531.0214853734313465 [Eh]
	-----------------------------------------------------------

  Dipole Moment: [D]
     X:    -0.3425      Y:     1.9535      Z:     0.8313     Total:     2.1505

*** Psi4 exiting successfully. Buy a developer a beer!
