                               Psi4 1.3.2 release

  ==> Input File <==

--------------------------------------------------------------------------
#psi4
#
memory 32 gb

molecule  {
0 1
  O       -2.2580520    -1.6446380    -0.1299340
  O       -2.1922020    -0.0289620     1.4584460
  O        2.4951323    -1.2515872    -0.5678829
  N       -1.4644620     1.9009220    -0.4829880
  N        3.3512580     0.4763250     0.7206820
  C        0.0919590     0.0544950    -0.9741750
  C       -1.3719240     0.4734550    -0.7783870
  C        0.9633170     0.3705390     0.2368360
  C       -1.9915820    -0.3883620     0.3080910
  C        2.3594900    -0.2078000     0.0693900
  H        0.1535850    -1.0146500    -1.1939440
  H        0.4725780     0.5964070    -1.8456160
  H       -1.9082720     0.2705620    -1.7119190
  H        1.0131360     1.4533500     0.3956850
  H        0.5381800    -0.0660200     1.1504670
  H       -1.3038060     2.0229320     0.5177520
  H       -2.4253970     2.2086760    -0.6320610
  H        3.2135550     1.4259430     1.0332840
  H        4.3010400     0.1654310     0.5620470
  H       -2.5974020    -2.1351830     0.6479870
units angstrom
no_reorient  #important for SAPT in psi4, default
symmetry c1  #important for SAPT in psi4, default
}

set PROPERTIES_ORIGIN ["COM"]
properties('MP2/aug-cc-pvtz', properties = ['dipole'])
--------------------------------------------------------------------------

    Molecular point group: c1
  Charge       = 0
  Multiplicity = 1
  Basis Set: AUG-CC-PVTZ
    Blend: AUG-CC-PVTZ
  Basis Set: (AUG-CC-PVTZ AUX)
    Blend: AUG-CC-PVTZ-JKFIT

    Orbital Energies [Eh]
    ---------------------

    Doubly Occupied:

       1A    -20.623823     2A    -20.560733     3A    -20.523766
       4A    -15.594523     5A    -15.556364     6A    -11.393772
       7A    -11.358313     8A    -11.284250     9A    -11.242575
      10A    -11.234783    11A     -1.468099    12A     -1.376793
      13A     -1.365405    14A     -1.218109    15A     -1.206027
      16A     -1.068154    17A     -0.981514    18A     -0.883887
      19A     -0.804031    20A     -0.776997    21A     -0.732782
      22A     -0.713282    23A     -0.706551    24A     -0.689020
      25A     -0.654307    26A     -0.651642    27A     -0.619299
      28A     -0.602783    29A     -0.592013    30A     -0.583425
      31A     -0.553513    32A     -0.519436    33A     -0.507553
      34A     -0.498131    35A     -0.484587    36A     -0.462732
      37A     -0.428319    38A     -0.421543    39A     -0.416149

  @DF-RHF Final Energy:  -528.88991942354107

   => Energetics <=

    Nuclear Repulsion Energy =            549.1673831053103640
    One-Electron Energy =               -1813.3966300770846374
    Two-Electron Energy =                 735.3393275482332001
    Total Energy =                       -528.8899194235410732
  Basis Set: (AUG-CC-PVTZ AUX)
    Blend: AUG-CC-PVTZ-RI
    Molecular point group: c1

    Geometry (in Angstrom), charge = 0, multiplicity = 1:

       Center              X                  Y                   Z               Mass
    ------------   -----------------  -----------------  -----------------  -----------------
         O           -2.239106581494    -1.611055106793    -0.135075154044    15.994914619570
         O           -2.173256581494     0.004620893207     1.453304845956    15.994914619570
         O            2.514077718506    -1.218004306793    -0.573024054044    15.994914619570
         N           -1.445516581494     1.934504893207    -0.488129154044    14.003074004430
         N            3.370203418506     0.509907893207     0.715540845956    14.003074004430
         C            0.110904418506     0.088077893207    -0.979316154044    12.000000000000
         C           -1.352978581494     0.507037893207    -0.783528154044    12.000000000000
         C            0.982262418506     0.404121893207     0.231694845956    12.000000000000
         C           -1.972636581494    -0.354779106793     0.302949845956    12.000000000000
         C            2.378435418506    -0.174217106793     0.064248845956    12.000000000000
         H            0.172530418506    -0.981067106793    -1.199085154044     1.007825032230
         H            0.491523418506     0.629989893207    -1.850757154044     1.007825032230
         H           -1.889326581494     0.304144893207    -1.717060154044     1.007825032230
         H            1.032081418506     1.486932893207     0.390543845956     1.007825032230
         H            0.557125418506    -0.032437106793     1.145325845956     1.007825032230
         H           -1.284860581494     2.056514893207     0.512610845956     1.007825032230
         H           -2.406451581494     2.242258893207    -0.637202154044     1.007825032230
         H            3.232500418506     1.459525893207     1.028142845956     1.007825032230
         H            4.319985418506     0.199013893207     0.556905845956     1.007825032230
         H           -2.578456581494    -2.101600106793     0.642845845956     1.007825032230

  Basis Set: AUG-CC-PVTZ
    Blend: AUG-CC-PVTZ
  Basis Set: (AUG-CC-PVTZ AUX)
    Blend: AUG-CC-PVTZ-JKFIT
	 Reference Energy          =    -528.8899194235410732 [Eh]
	 Singles Energy            =      -0.0000000000000000 [Eh]
	 Same-Spin Energy          =      -0.5282264083498154 [Eh]
	 Opposite-Spin Energy      =      -1.6362044981753163 [Eh]
	 Correlation Energy        =      -2.1644309065251317 [Eh]
	 Total Energy              =    -531.0543503300661996 [Eh]

	 ================> DF-SCS-MP2 Energies <==================
	-----------------------------------------------------------
	 SCS Same-Spin Scale       =       0.3333333333333333 [-]
	 SCS Opposite-Spin Scale   =       1.2000000000000000 [-]
	 SCS Same-Spin Energy      =      -0.1760754694499385 [Eh]
	 SCS Opposite-Spin Energy  =      -1.9634453978103794 [Eh]
	 SCS Correlation Energy    =      -2.1395208672603179 [Eh]
	 SCS Total Energy          =    -531.0294402908014035 [Eh]
	-----------------------------------------------------------

  Dipole Moment: [D]
     X:    -0.1091      Y:     1.9085      Z:     0.9067     Total:     2.1157

*** Psi4 exiting successfully. Buy a developer a beer!
