                               Psi4 1.3.2 release

  ==> Input File <==

--------------------------------------------------------------------------
#psi4
#
memory 32 gb

molecule  {
0 1
  O       -2.2580520    -1.6446380    -0.1299340
  O       -2.1922020    -0.0289620     1.4584460
  O        2.5787120    -1.2491670    -0.5482700
  N       -1.4644620     1.9009220    -0.4829880
  N        3.3512580     0.4763250     0.7206820
  C        0.0919590     0.0544950    -0.9741750
  C       -1.3719240     0.4734550    -0.7783870
  C        0.9633170     0.3705390     0.2368360
  C       -1.9915820    -0.3883620     0.3080910
  C        2.3696746    -0.1834848     0.0724307
  H        0.1535850    -1.0146500    -1.1939440
  H        0.4725780     0.5964070    -1.8456160
  H       -1.9082720     0.2705620    -1.7119190
  H        1.0131360     1.4533500     0.3956850
  H        0.5381800    -0.0660200     1.1504670
  H       -1.3038060     2.0229320     0.5177520
  H       -2.4253970     2.2086760    -0.6320610
  H        3.2135550     1.4259430     1.0332840
  H        4.3010400     0.1654310     0.5620470
  H       -2.5974020    -2.1351830     0.6479870
units angstrom
no_reorient  #important for SAPT in psi4, default
symmetry c1  #important for SAPT in psi4, default
}

set PROPERTIES_ORIGIN ["COM"]
properties('MP2/aug-cc-pvtz', properties = ['dipole'])
--------------------------------------------------------------------------

    Molecular point group: c1
  Charge       = 0
  Multiplicity = 1
  Basis Set: AUG-CC-PVTZ
    Blend: AUG-CC-PVTZ
  Basis Set: (AUG-CC-PVTZ AUX)
    Blend: AUG-CC-PVTZ-JKFIT

    Orbital Energies [Eh]
    ---------------------

    Doubly Occupied:

       1A    -20.624881     2A    -20.562019     3A    -20.517802
       4A    -15.594567     5A    -15.557832     6A    -11.395062
       7A    -11.357496     8A    -11.286009     9A    -11.247086
      10A    -11.237371    11A     -1.469245    12A     -1.366621
      13A     -1.364573    14A     -1.219591    15A     -1.207640
      16A     -1.070909    17A     -0.983817    18A     -0.885977
      19A     -0.806489    20A     -0.779676    21A     -0.734838
      22A     -0.714683    23A     -0.708474    24A     -0.689166
      25A     -0.655666    26A     -0.648623    27A     -0.620236
      28A     -0.603625    29A     -0.586433    30A     -0.583317
      31A     -0.553719    32A     -0.520861    33A     -0.509013
      34A     -0.500614    35A     -0.486061    36A     -0.464110
      37A     -0.425835    38A     -0.419265    39A     -0.415416

  @DF-RHF Final Energy:  -528.88936672589648

   => Energetics <=

    Nuclear Repulsion Energy =            548.2515004574044042
    One-Electron Energy =               -1811.5324979253655329
    Two-Electron Energy =                 734.3916307420647627
    Total Energy =                       -528.8893667258964797
  Basis Set: (AUG-CC-PVTZ AUX)
    Blend: AUG-CC-PVTZ-RI
    Molecular point group: c1

    Geometry (in Angstrom), charge = 0, multiplicity = 1:

       Center              X                  Y                   Z               Mass
    ------------   -----------------  -----------------  -----------------  -----------------
         O           -2.249095449393    -1.613317687975    -0.137472614970    15.994914619570
         O           -2.183245449393     0.002358312025     1.450907385030    15.994914619570
         O            2.587668550607    -1.217846687975    -0.555808614970    15.994914619570
         N           -1.455505449393     1.932242312025    -0.490526614970    14.003074004430
         N            3.360214550607     0.507645312025     0.713143385030    14.003074004430
         C            0.100915550607     0.085815312025    -0.981713614970    12.000000000000
         C           -1.362967449393     0.504775312025    -0.785925614970    12.000000000000
         C            0.972273550607     0.401859312025     0.229297385030    12.000000000000
         C           -1.982625449393    -0.357041687975     0.300552385030    12.000000000000
         C            2.378631150607    -0.152164487975     0.064892085030    12.000000000000
         H            0.162541550607    -0.983329687975    -1.201482614970     1.007825032230
         H            0.481534550607     0.627727312025    -1.853154614970     1.007825032230
         H           -1.899315449393     0.301882312025    -1.719457614970     1.007825032230
         H            1.022092550607     1.484670312025     0.388146385030     1.007825032230
         H            0.547136550607    -0.034699687975     1.142928385030     1.007825032230
         H           -1.294849449393     2.054252312025     0.510213385030     1.007825032230
         H           -2.416440449393     2.239996312025    -0.639599614970     1.007825032230
         H            3.222511550607     1.457263312025     1.025745385030     1.007825032230
         H            4.309996550607     0.196751312025     0.554508385030     1.007825032230
         H           -2.588445449393    -2.103862687975     0.640448385030     1.007825032230

  Basis Set: AUG-CC-PVTZ
    Blend: AUG-CC-PVTZ
  Basis Set: (AUG-CC-PVTZ AUX)
    Blend: AUG-CC-PVTZ-JKFIT
	 Reference Energy          =    -528.8893667258964797 [Eh]
	 Singles Energy            =      -0.0000000000000000 [Eh]
	 Same-Spin Energy          =      -0.5284288184955729 [Eh]
	 Opposite-Spin Energy      =      -1.6366193934532407 [Eh]
	 Correlation Energy        =      -2.1650482119488137 [Eh]
	 Total Energy              =    -531.0544149378453085 [Eh]

	 ================> DF-SCS-MP2 Energies <==================
	-----------------------------------------------------------
	 SCS Same-Spin Scale       =       0.3333333333333333 [-]
	 SCS Opposite-Spin Scale   =       1.2000000000000000 [-]
	 SCS Same-Spin Energy      =      -0.1761429394985243 [Eh]
	 SCS Opposite-Spin Energy  =      -1.9639432721438888 [Eh]
	 SCS Correlation Energy    =      -2.1400862116424131 [Eh]
	 SCS Total Energy          =    -531.0294529375388493 [Eh]
	-----------------------------------------------------------

  Dipole Moment: [D]
     X:    -0.3093      Y:     2.0750      Z:     0.9615     Total:     2.3077

*** Psi4 exiting successfully. Buy a developer a beer!
