                               Psi4 1.3.2 release

  ==> Input File <==

--------------------------------------------------------------------------
#psi4
#
memory 32 gb

molecule  {
0 1
  O       -2.2580520    -1.6446380    -0.1299340
  O       -2.1922020    -0.0289620     1.4584460
  O        2.5787120    -1.2491670    -0.5482700
  N       -1.4644620     1.9009220    -0.4829880
  N        3.3512580     0.4763250     0.7206820
  C       -0.0250951     0.1338567    -0.9001421
  C       -1.3719240     0.4734550    -0.7783870
  C        0.9633170     0.3705390     0.2368360
  C       -1.9915820    -0.3883620     0.3080910
  C        2.3594900    -0.2078000     0.0693900
  H        0.1535850    -1.0146500    -1.1939440
  H        0.4725780     0.5964070    -1.8456160
  H       -1.9082720     0.2705620    -1.7119190
  H        1.0131360     1.4533500     0.3956850
  H        0.5381800    -0.0660200     1.1504670
  H       -1.3038060     2.0229320     0.5177520
  H       -2.4253970     2.2086760    -0.6320610
  H        3.2135550     1.4259430     1.0332840
  H        4.3010400     0.1654310     0.5620470
  H       -2.5974020    -2.1351830     0.6479870
units angstrom
no_reorient  #important for SAPT in psi4, default
symmetry c1  #important for SAPT in psi4, default
}

set PROPERTIES_ORIGIN ["COM"]
properties('MP2/aug-cc-pvtz', properties = ['dipole'])
--------------------------------------------------------------------------

    Molecular point group: c1
  Charge       = 0
  Multiplicity = 1
  Basis Set: AUG-CC-PVTZ
    Blend: AUG-CC-PVTZ
  Basis Set: (AUG-CC-PVTZ AUX)
    Blend: AUG-CC-PVTZ-JKFIT

    Orbital Energies [Eh]
    ---------------------

    Doubly Occupied:

       1A    -20.626019     2A    -20.564224     3A    -20.523886
       4A    -15.591238     5A    -15.557838     6A    -11.396901
       7A    -11.360949     8A    -11.282315     9A    -11.248343
      10A    -11.243602    11A     -1.471003    12A     -1.377564
      13A     -1.368414    14A     -1.220282    15A     -1.213568
      16A     -1.077600    17A     -0.995463    18A     -0.884968
      19A     -0.808780    20A     -0.770515    21A     -0.737023
      22A     -0.716219    23A     -0.708365    24A     -0.693939
      25A     -0.657434    26A     -0.653569    27A     -0.620208
      28A     -0.606300    29A     -0.595523    30A     -0.590033
      31A     -0.552309    32A     -0.540791    33A     -0.502451
      34A     -0.493510    35A     -0.469034    36A     -0.451336
      37A     -0.429880    38A     -0.423071    39A     -0.418318

  @DF-RHF Final Energy:  -528.86143406459928

   => Energetics <=

    Nuclear Repulsion Energy =            550.1357069803592594
    One-Electron Energy =               -1815.1087150567545905
    Two-Electron Energy =                 736.1115740117959376
    Total Energy =                       -528.8614340645992797
  Basis Set: (AUG-CC-PVTZ AUX)
    Blend: AUG-CC-PVTZ-RI
    Molecular point group: c1

    Geometry (in Angstrom), charge = 0, multiplicity = 1:

       Center              X                  Y                   Z               Mass
    ------------   -----------------  -----------------  -----------------  -----------------
         O           -2.238642424359    -1.617839916216    -0.143304828312    15.994914619570
         O           -2.172792424359    -0.002163916216     1.445075171688    15.994914619570
         O            2.598121575641    -1.222368916216    -0.561640828312    15.994914619570
         N           -1.445052424359     1.927720083784    -0.496358828312    14.003074004430
         N            3.370667575641     0.503123083784     0.707311171688    14.003074004430
         C           -0.005685524359     0.160654783784    -0.913512928312    12.000000000000
         C           -1.352514424359     0.500253083784    -0.791757828312    12.000000000000
         C            0.982726575641     0.397337083784     0.223465171688    12.000000000000
         C           -1.972172424359    -0.361563916216     0.294720171688    12.000000000000
         C            2.378899575641    -0.181001916216     0.056019171688    12.000000000000
         H            0.172994575641    -0.987851916216    -1.207314828312     1.007825032230
         H            0.491987575641     0.623205083784    -1.858986828312     1.007825032230
         H           -1.888862424359     0.297360083784    -1.725289828312     1.007825032230
         H            1.032545575641     1.480148083784     0.382314171688     1.007825032230
         H            0.557589575641    -0.039221916216     1.137096171688     1.007825032230
         H           -1.284396424359     2.049730083784     0.504381171688     1.007825032230
         H           -2.405987424359     2.235474083784    -0.645431828312     1.007825032230
         H            3.232964575641     1.452741083784     1.019913171688     1.007825032230
         H            4.320449575641     0.192229083784     0.548676171688     1.007825032230
         H           -2.577992424359    -2.108384916216     0.634616171688     1.007825032230

  Basis Set: AUG-CC-PVTZ
    Blend: AUG-CC-PVTZ
  Basis Set: (AUG-CC-PVTZ AUX)
    Blend: AUG-CC-PVTZ-JKFIT
	 Reference Energy          =    -528.8614340645992797 [Eh]
	 Singles Energy            =      -0.0000000000000000 [Eh]
	 Same-Spin Energy          =      -0.5300336089834559 [Eh]
	 Opposite-Spin Energy      =      -1.6390327414190953 [Eh]
	 Correlation Energy        =      -2.1690663504025514 [Eh]
	 Total Energy              =    -531.0305004150018249 [Eh]

	 ================> DF-SCS-MP2 Energies <==================
	-----------------------------------------------------------
	 SCS Same-Spin Scale       =       0.3333333333333333 [-]
	 SCS Opposite-Spin Scale   =       1.2000000000000000 [-]
	 SCS Same-Spin Energy      =      -0.1766778696611520 [Eh]
	 SCS Opposite-Spin Energy  =      -1.9668392897029143 [Eh]
	 SCS Correlation Energy    =      -2.1435171593640661 [Eh]
	 SCS Total Energy          =    -531.0049512239633032 [Eh]
	-----------------------------------------------------------

  Dipole Moment: [D]
     X:    -0.4323      Y:     1.9035      Z:     0.9145     Total:     2.1555

*** Psi4 exiting successfully. Buy a developer a beer!
