                               Psi4 1.3.2 release

  ==> Input File <==

--------------------------------------------------------------------------
#psi4
#
memory 32 gb

molecule  {
0 1
  O       -2.2580520    -1.6446380    -0.1299340
  O       -2.1922020    -0.0289620     1.4584460
  O        2.5787120    -1.2491670    -0.5482700
  N       -1.4644620     1.9009220    -0.4829880
  N        3.3512580     0.4763250     0.7206820
  C        0.0919590     0.0544950    -0.9741750
  C       -1.3719240     0.4734550    -0.7783870
  C        0.9633170     0.3705390     0.2368360
  C       -1.9915820    -0.3883620     0.3080910
  C        2.3773064    -0.2924330     0.0191921
  H        0.1535850    -1.0146500    -1.1939440
  H        0.4725780     0.5964070    -1.8456160
  H       -1.9082720     0.2705620    -1.7119190
  H        1.0131360     1.4533500     0.3956850
  H        0.5381800    -0.0660200     1.1504670
  H       -1.3038060     2.0229320     0.5177520
  H       -2.4253970     2.2086760    -0.6320610
  H        3.2135550     1.4259430     1.0332840
  H        4.3010400     0.1654310     0.5620470
  H       -2.5974020    -2.1351830     0.6479870
units angstrom
no_reorient  #important for SAPT in psi4, default
symmetry c1  #important for SAPT in psi4, default
}

set PROPERTIES_ORIGIN ["COM"]
properties('MP2/aug-cc-pvtz', properties = ['dipole'])
--------------------------------------------------------------------------

    Molecular point group: c1
  Charge       = 0
  Multiplicity = 1
  Basis Set: AUG-CC-PVTZ
    Blend: AUG-CC-PVTZ
  Basis Set: (AUG-CC-PVTZ AUX)
    Blend: AUG-CC-PVTZ-JKFIT

    Orbital Energies [Eh]
    ---------------------

    Doubly Occupied:

       1A    -20.624798     2A    -20.561146     3A    -20.542211
       4A    -15.573659     5A    -15.556680     6A    -11.394264
       7A    -11.353471     8A    -11.284695     9A    -11.241673
      10A    -11.235936    11A     -1.468871    12A     -1.451498
      13A     -1.365967    14A     -1.206610    15A     -1.191582
      16A     -1.065625    17A     -0.976236    18A     -0.877154
      19A     -0.795882    20A     -0.771182    21A     -0.727529
      22A     -0.712770    23A     -0.704732    24A     -0.684489
      25A     -0.667547    26A     -0.654553    27A     -0.624095
      28A     -0.614834    29A     -0.607553    30A     -0.581942
      31A     -0.568625    32A     -0.526086    33A     -0.512293
      34A     -0.499302    35A     -0.486330    36A     -0.463117
      37A     -0.430040    38A     -0.421242    39A     -0.412276

  @DF-RHF Final Energy:  -528.88019444904774

   => Energetics <=

    Nuclear Repulsion Energy =            548.8142512292441779
    One-Electron Energy =               -1812.5119031915423875
    Two-Electron Energy =                 734.8174575132503605
    Total Energy =                       -528.8801944490477354
  Basis Set: (AUG-CC-PVTZ AUX)
    Blend: AUG-CC-PVTZ-RI
    Molecular point group: c1

    Geometry (in Angstrom), charge = 0, multiplicity = 1:

       Center              X                  Y                   Z               Mass
    ------------   -----------------  -----------------  -----------------  -----------------
         O           -2.249722423705    -1.604367280103    -0.133098910912    15.994914619570
         O           -2.183872423705     0.011308719897     1.455281089088    15.994914619570
         O            2.587041576295    -1.208896280103    -0.551434910912    15.994914619570
         N           -1.456132423705     1.941192719897    -0.486152910912    14.003074004430
         N            3.359587576295     0.516595719897     0.717517089088    14.003074004430
         C            0.100288576295     0.094765719897    -0.977339910912    12.000000000000
         C           -1.363594423705     0.513725719897    -0.781551910912    12.000000000000
         C            0.971646576295     0.410809719897     0.233671089088    12.000000000000
         C           -1.983252423705    -0.348091280103     0.304926089088    12.000000000000
         C            2.385635976295    -0.252162280103     0.016027189088    12.000000000000
         H            0.161914576295    -0.974379280103    -1.197108910912     1.007825032230
         H            0.480907576295     0.636677719897    -1.848780910912     1.007825032230
         H           -1.899942423705     0.310832719897    -1.715083910912     1.007825032230
         H            1.021465576295     1.493620719897     0.392520089088     1.007825032230
         H            0.546509576295    -0.025749280103     1.147302089088     1.007825032230
         H           -1.295476423705     2.063202719897     0.514587089088     1.007825032230
         H           -2.417067423705     2.248946719897    -0.635225910912     1.007825032230
         H            3.221884576295     1.466213719897     1.030119089088     1.007825032230
         H            4.309369576295     0.205701719897     0.558882089088     1.007825032230
         H           -2.589072423705    -2.094912280103     0.644822089088     1.007825032230

  Basis Set: AUG-CC-PVTZ
    Blend: AUG-CC-PVTZ
  Basis Set: (AUG-CC-PVTZ AUX)
    Blend: AUG-CC-PVTZ-JKFIT
	 Reference Energy          =    -528.8801944490477354 [Eh]
	 Singles Energy            =      -0.0000000000000000 [Eh]
	 Same-Spin Energy          =      -0.5261278167536296 [Eh]
	 Opposite-Spin Energy      =      -1.6322670307463483 [Eh]
	 Correlation Energy        =      -2.1583948474999781 [Eh]
	 Total Energy              =    -531.0385892965476842 [Eh]

	 ================> DF-SCS-MP2 Energies <==================
	-----------------------------------------------------------
	 SCS Same-Spin Scale       =       0.3333333333333333 [-]
	 SCS Opposite-Spin Scale   =       1.2000000000000000 [-]
	 SCS Same-Spin Energy      =      -0.1753759389178765 [Eh]
	 SCS Opposite-Spin Energy  =      -1.9587204368956179 [Eh]
	 SCS Correlation Energy    =      -2.1340963758134945 [Eh]
	 SCS Total Energy          =    -531.0142908248611775 [Eh]
	-----------------------------------------------------------

  Dipole Moment: [D]
     X:    -0.4250      Y:     1.3047      Z:     0.4450     Total:     1.4425

*** Psi4 exiting successfully. Buy a developer a beer!
