                               Psi4 1.3.2 release

  ==> Input File <==

--------------------------------------------------------------------------
#psi4
#
memory 32 gb

molecule  {
0 1
  O       -2.2580520    -1.6446380    -0.1299340
  O       -2.1922020    -0.0289620     1.4584460
  O        2.5787120    -1.2491670    -0.5482700
  N       -1.4644620     1.9009220    -0.4829880
  N        3.3512580     0.4763250     0.7206820
  C        0.0919590     0.0544950    -0.9741750
  C       -1.3719240     0.4734550    -0.7783870
  C        0.9633170     0.3705390     0.2368360
  C       -1.9915820    -0.3883620     0.3080910
  C        2.3594900    -0.2078000     0.0693900
  H        0.1535850    -1.0146500    -1.1939440
  H        0.4725780     0.5964070    -1.8456160
  H       -1.9082720     0.2705620    -1.7119190
  H        1.0131360     1.4533500     0.3956850
  H        0.5381800    -0.0660200     1.1504670
  H       -1.3038060     2.0229320     0.5177520
  H       -2.4253970     2.2086760    -0.6320610
  H        3.1788105     1.4201503     1.0335913
  H        4.3010400     0.1654310     0.5620470
  H       -2.5974020    -2.1351830     0.6479870
units angstrom
no_reorient  #important for SAPT in psi4, default
symmetry c1  #important for SAPT in psi4, default
}

set PROPERTIES_ORIGIN ["COM"]
properties('MP2/aug-cc-pvtz', properties = ['dipole'])
--------------------------------------------------------------------------

    Molecular point group: c1
  Charge       = 0
  Multiplicity = 1
  Basis Set: AUG-CC-PVTZ
    Blend: AUG-CC-PVTZ
  Basis Set: (AUG-CC-PVTZ AUX)
    Blend: AUG-CC-PVTZ-JKFIT

    Orbital Energies [Eh]
    ---------------------

    Doubly Occupied:

       1A    -20.625278     2A    -20.562331     3A    -20.522197
       4A    -15.589690     5A    -15.558155     6A    -11.395385
       7A    -11.356898     8A    -11.286344     9A    -11.246898
      10A    -11.237952    11A     -1.469611    12A     -1.376480
      13A     -1.366941    14A     -1.213013    15A     -1.207785
      16A     -1.071518    17A     -0.983914    18A     -0.885324
      19A     -0.802442    20A     -0.776750    21A     -0.733188
      22A     -0.714728    23A     -0.708085    24A     -0.689913
      25A     -0.656009    26A     -0.650650    27A     -0.620642
      28A     -0.604051    29A     -0.591891    30A     -0.585298
      31A     -0.554336    32A     -0.522168    33A     -0.509695
      34A     -0.501001    35A     -0.486551    36A     -0.464447
      37A     -0.428611    38A     -0.420039    39A     -0.416187

  @DF-RHF Final Energy:  -528.89161675575792

   => Energetics <=

    Nuclear Repulsion Energy =            548.4478632994412237
    One-Electron Energy =               -1811.8941705679592360
    Two-Electron Energy =                 734.5546905127600894
    Total Energy =                       -528.8916167557579229
  Basis Set: (AUG-CC-PVTZ AUX)
    Blend: AUG-CC-PVTZ-RI
    Molecular point group: c1

    Geometry (in Angstrom), charge = 0, multiplicity = 1:

       Center              X                  Y                   Z               Mass
    ------------   -----------------  -----------------  -----------------  -----------------
         O           -2.248019030551    -1.611280156819    -0.137224932983    15.994914619570
         O           -2.182169030551     0.004395843181     1.451155067017    15.994914619570
         O            2.588744969449    -1.215809156819    -0.555560932983    15.994914619570
         N           -1.454429030551     1.934279843181    -0.490278932983    14.003074004430
         N            3.361290969449     0.509682843181     0.713391067017    14.003074004430
         C            0.101991969449     0.087852843181    -0.981465932983    12.000000000000
         C           -1.361891030551     0.506812843181    -0.785677932983    12.000000000000
         C            0.973349969449     0.403896843181     0.229545067017    12.000000000000
         C           -1.981549030551    -0.355004156819     0.300800067017    12.000000000000
         C            2.369522969449    -0.174442156819     0.062099067017    12.000000000000
         H            0.163617969449    -0.981292156819    -1.201234932983     1.007825032230
         H            0.482610969449     0.629764843181    -1.852906932983     1.007825032230
         H           -1.898239030551     0.303919843181    -1.719209932983     1.007825032230
         H            1.023168969449     1.486707843181     0.388394067017     1.007825032230
         H            0.548212969449    -0.032662156819     1.143176067017     1.007825032230
         H           -1.293773030551     2.056289843181     0.510461067017     1.007825032230
         H           -2.415364030551     2.242033843181    -0.639351932983     1.007825032230
         H            3.188843469449     1.453508143181     1.026300367017     1.007825032230
         H            4.311072969449     0.198788843181     0.554756067017     1.007825032230
         H           -2.587369030551    -2.101825156819     0.640696067017     1.007825032230

  Basis Set: AUG-CC-PVTZ
    Blend: AUG-CC-PVTZ
  Basis Set: (AUG-CC-PVTZ AUX)
    Blend: AUG-CC-PVTZ-JKFIT
	 Reference Energy          =    -528.8916167557579229 [Eh]
	 Singles Energy            =      -0.0000000000000000 [Eh]
	 Same-Spin Energy          =      -0.5280787701834303 [Eh]
	 Opposite-Spin Energy      =      -1.6359332397738022 [Eh]
	 Correlation Energy        =      -2.1640120099572324 [Eh]
	 Total Energy              =    -531.0556287657151415 [Eh]

	 ================> DF-SCS-MP2 Energies <==================
	-----------------------------------------------------------
	 SCS Same-Spin Scale       =       0.3333333333333333 [-]
	 SCS Opposite-Spin Scale   =       1.2000000000000000 [-]
	 SCS Same-Spin Energy      =      -0.1760262567278101 [Eh]
	 SCS Opposite-Spin Energy  =      -1.9631198877285625 [Eh]
	 SCS Correlation Energy    =      -2.1391461444563724 [Eh]
	 SCS Total Energy          =    -531.0307629002143130 [Eh]
	-----------------------------------------------------------

  Dipole Moment: [D]
     X:    -0.4318      Y:     1.9220      Z:     0.8641     Total:     2.1511

*** Psi4 exiting successfully. Buy a developer a beer!
