                               Psi4 1.3.2 release

  ==> Input File <==

--------------------------------------------------------------------------
#psi4
#
memory 32 gb

molecule  {
0 1
  O       -2.2580520    -1.6446380    -0.1299340
  O       -2.1922020    -0.0289620     1.4584460
  O        2.5787120    -1.2491670    -0.5482700
  N       -1.4644620     1.9009220    -0.4829880
  N        3.3512580     0.4763250     0.7206820
  C        0.0127807     0.1070711    -0.9262468
  C       -1.3719240     0.4734550    -0.7783870
  C        0.9633170     0.3705390     0.2368360
  C       -1.9915820    -0.3883620     0.3080910
  C        2.3594900    -0.2078000     0.0693900
  H        0.1535850    -1.0146500    -1.1939440
  H        0.4725780     0.5964070    -1.8456160
  H       -1.9082720     0.2705620    -1.7119190
  H        1.0131360     1.4533500     0.3956850
  H        0.5381800    -0.0660200     1.1504670
  H       -1.3038060     2.0229320     0.5177520
  H       -2.4253970     2.2086760    -0.6320610
  H        3.2135550     1.4259430     1.0332840
  H        4.3010400     0.1654310     0.5620470
  H       -2.5974020    -2.1351830     0.6479870
units angstrom
no_reorient  #important for SAPT in psi4, default
symmetry c1  #important for SAPT in psi4, default
}

set PROPERTIES_ORIGIN ["COM"]
properties('MP2/aug-cc-pvtz', properties = ['dipole'])
--------------------------------------------------------------------------

    Molecular point group: c1
  Charge       = 0
  Multiplicity = 1
  Basis Set: AUG-CC-PVTZ
    Blend: AUG-CC-PVTZ
  Basis Set: (AUG-CC-PVTZ AUX)
    Blend: AUG-CC-PVTZ-JKFIT

    Orbital Energies [Eh]
    ---------------------

    Doubly Occupied:

       1A    -20.625828     2A    -20.563634     3A    -20.523336
       4A    -15.590598     5A    -15.557911     6A    -11.396416
       7A    -11.359670     8A    -11.283905     9A    -11.247340
      10A    -11.240995    11A     -1.470572    12A     -1.377134
      13A     -1.367953    14A     -1.215872    15A     -1.212677
      16A     -1.075014    17A     -0.991433    18A     -0.884686
      19A     -0.806869    20A     -0.772992    21A     -0.735145
      22A     -0.715550    23A     -0.707730    24A     -0.692450
      25A     -0.656380    26A     -0.652640    27A     -0.620084
      28A     -0.605447    29A     -0.593841    30A     -0.588705
      31A     -0.549860    32A     -0.536286    33A     -0.504881
      34A     -0.493493    35A     -0.477760    36A     -0.458175
      37A     -0.429654    38A     -0.422354    39A     -0.417912

  @DF-RHF Final Energy:  -528.87814547977382

   => Energetics <=

    Nuclear Repulsion Energy =            549.5183954584540515
    One-Electron Energy =               -1813.9467189984443394
    Two-Electron Energy =                 735.5501780602164672
    Total Energy =                       -528.8781454797738206
  Basis Set: (AUG-CC-PVTZ AUX)
    Blend: AUG-CC-PVTZ-RI
    Molecular point group: c1

    Geometry (in Angstrom), charge = 0, multiplicity = 1:

       Center              X                  Y                   Z               Mass
    ------------   -----------------  -----------------  -----------------  -----------------
         O           -2.241754030227    -1.615639402164    -0.141160252153    15.994914619570
         O           -2.175904030227     0.000036597836     1.447219747847    15.994914619570
         O            2.595009969773    -1.220168402164    -0.559496252153    15.994914619570
         N           -1.448164030227     1.929920597836    -0.494214252153    14.003074004430
         N            3.367555969773     0.505323597836     0.709455747847    14.003074004430
         C            0.029078669773     0.136069697836    -0.937473052153    12.000000000000
         C           -1.355626030227     0.502453597836    -0.789613252153    12.000000000000
         C            0.979614969773     0.399537597836     0.225609747847    12.000000000000
         C           -1.975284030227    -0.359363402164     0.296864747847    12.000000000000
         C            2.375787969773    -0.178801402164     0.058163747847    12.000000000000
         H            0.169882969773    -0.985651402164    -1.205170252153     1.007825032230
         H            0.488875969773     0.625405597836    -1.856842252153     1.007825032230
         H           -1.891974030227     0.299560597836    -1.723145252153     1.007825032230
         H            1.029433969773     1.482348597836     0.384458747847     1.007825032230
         H            0.554477969773    -0.037021402164     1.139240747847     1.007825032230
         H           -1.287508030227     2.051930597836     0.506525747847     1.007825032230
         H           -2.409099030227     2.237674597836    -0.643287252153     1.007825032230
         H            3.229852969773     1.454941597836     1.022057747847     1.007825032230
         H            4.317337969773     0.194429597836     0.550820747847     1.007825032230
         H           -2.581104030227    -2.106184402164     0.636760747847     1.007825032230

  Basis Set: AUG-CC-PVTZ
    Blend: AUG-CC-PVTZ
  Basis Set: (AUG-CC-PVTZ AUX)
    Blend: AUG-CC-PVTZ-JKFIT
	 Reference Energy          =    -528.8781454797738206 [Eh]
	 Singles Energy            =      -0.0000000000000000 [Eh]
	 Same-Spin Energy          =      -0.5291301644778583 [Eh]
	 Opposite-Spin Energy      =      -1.6375535526174385 [Eh]
	 Correlation Energy        =      -2.1666837170952968 [Eh]
	 Total Energy              =    -531.0448291968691592 [Eh]

	 ================> DF-SCS-MP2 Energies <==================
	-----------------------------------------------------------
	 SCS Same-Spin Scale       =       0.3333333333333333 [-]
	 SCS Opposite-Spin Scale   =       1.2000000000000000 [-]
	 SCS Same-Spin Energy      =      -0.1763767214926194 [Eh]
	 SCS Opposite-Spin Energy  =      -1.9650642631409261 [Eh]
	 SCS Correlation Energy    =      -2.1414409846335456 [Eh]
	 SCS Total Energy          =    -531.0195864644073254 [Eh]
	-----------------------------------------------------------

  Dipole Moment: [D]
     X:    -0.4303      Y:     1.9112      Z:     0.8937     Total:     2.1533

*** Psi4 exiting successfully. Buy a developer a beer!
