                               Psi4 1.3.2 release

  ==> Input File <==

--------------------------------------------------------------------------
#psi4
#
memory 32 gb

molecule  {
0 1
  O       -2.2580520    -1.6446380    -0.1299340
  O       -2.1922020    -0.0289620     1.4584460
  O        2.5787120    -1.2491670    -0.5482700
  N       -1.4644620     1.9009220    -0.4829880
  N        3.3512580     0.4763250     0.7206820
  C        0.0717510     0.0675046    -0.9627374
  C       -1.3719240     0.4734550    -0.7783870
  C        0.9633170     0.3705390     0.2368360
  C       -1.9915820    -0.3883620     0.3080910
  C        2.3594900    -0.2078000     0.0693900
  H        0.1535850    -1.0146500    -1.1939440
  H        0.4725780     0.5964070    -1.8456160
  H       -1.9082720     0.2705620    -1.7119190
  H        1.0131360     1.4533500     0.3956850
  H        0.5381800    -0.0660200     1.1504670
  H       -1.3038060     2.0229320     0.5177520
  H       -2.4253970     2.2086760    -0.6320610
  H        3.2135550     1.4259430     1.0332840
  H        4.3010400     0.1654310     0.5620470
  H       -2.5974020    -2.1351830     0.6479870
units angstrom
no_reorient  #important for SAPT in psi4, default
symmetry c1  #important for SAPT in psi4, default
}

set PROPERTIES_ORIGIN ["COM"]
properties('MP2/aug-cc-pvtz', properties = ['dipole'])
--------------------------------------------------------------------------

    Molecular point group: c1
  Charge       = 0
  Multiplicity = 1
  Basis Set: AUG-CC-PVTZ
    Blend: AUG-CC-PVTZ
  Basis Set: (AUG-CC-PVTZ AUX)
    Blend: AUG-CC-PVTZ-JKFIT

    Orbital Energies [Eh]
    ---------------------

    Doubly Occupied:

       1A    -20.625389     2A    -20.562613     3A    -20.522732
       4A    -15.589822     5A    -15.558018     6A    -11.395596
       7A    -11.358043     8A    -11.285779     9A    -11.246641
      10A    -11.238313    11A     -1.469812    12A     -1.376754
      13A     -1.367150    14A     -1.212970    15A     -1.209164
      16A     -1.072093    17A     -0.985677    18A     -0.885101
      19A     -0.804279    20A     -0.776513    21A     -0.732677
      22A     -0.714652    23A     -0.707229    24A     -0.690110
      25A     -0.655740    26A     -0.651407    27A     -0.620335
      28A     -0.604288    29A     -0.592140    30A     -0.586072
      31A     -0.552607    32A     -0.525019    33A     -0.508478
      34A     -0.497860    35A     -0.486573    36A     -0.463404
      37A     -0.429202    38A     -0.420612    39A     -0.416866

  @DF-RHF Final Energy:  -528.89063407960975

   => Energetics <=

    Nuclear Repulsion Energy =            548.6534513144541734
    One-Electron Energy =               -1812.2927122932408111
    Two-Electron Energy =                 734.7486268991769975
    Total Energy =                       -528.8906340796097538
  Basis Set: (AUG-CC-PVTZ AUX)
    Blend: AUG-CC-PVTZ-RI
    Molecular point group: c1

    Geometry (in Angstrom), charge = 0, multiplicity = 1:

       Center              X                  Y                   Z               Mass
    ------------   -----------------  -----------------  -----------------  -----------------
         O           -2.246598609920    -1.612388900429    -0.138162444447    15.994914619570
         O           -2.180748609920     0.003287099571     1.450217555553    15.994914619570
         O            2.590165390080    -1.216917900429    -0.556498444447    15.994914619570
         N           -1.453008609920     1.933171099571    -0.491216444447    14.003074004430
         N            3.362711390080     0.508574099571     0.712453555553    14.003074004430
         C            0.083204390080     0.099753699571    -0.970965844447    12.000000000000
         C           -1.360470609920     0.505704099571    -0.786615444447    12.000000000000
         C            0.974770390080     0.402788099571     0.228607555553    12.000000000000
         C           -1.980128609920    -0.356112900429     0.299862555553    12.000000000000
         C            2.370943390080    -0.175550900429     0.061161555553    12.000000000000
         H            0.165038390080    -0.982400900429    -1.202172444447     1.007825032230
         H            0.484031390080     0.628656099571    -1.853844444447     1.007825032230
         H           -1.896818609920     0.302811099571    -1.720147444447     1.007825032230
         H            1.024589390080     1.485599099571     0.387456555553     1.007825032230
         H            0.549633390080    -0.033770900429     1.142238555553     1.007825032230
         H           -1.292352609920     2.055181099571     0.509523555553     1.007825032230
         H           -2.413943609920     2.240925099571    -0.640289444447     1.007825032230
         H            3.225008390080     1.458192099571     1.025055555553     1.007825032230
         H            4.312493390080     0.197680099571     0.553818555553     1.007825032230
         H           -2.585948609920    -2.102933900429     0.639758555553     1.007825032230

  Basis Set: AUG-CC-PVTZ
    Blend: AUG-CC-PVTZ
  Basis Set: (AUG-CC-PVTZ AUX)
    Blend: AUG-CC-PVTZ-JKFIT
	 Reference Energy          =    -528.8906340796097538 [Eh]
	 Singles Energy            =      -0.0000000000000000 [Eh]
	 Same-Spin Energy          =      -0.5282312728909999 [Eh]
	 Opposite-Spin Energy      =      -1.6361660925292392 [Eh]
	 Correlation Energy        =      -2.1643973654202391 [Eh]
	 Total Energy              =    -531.0550314450299538 [Eh]

	 ================> DF-SCS-MP2 Energies <==================
	-----------------------------------------------------------
	 SCS Same-Spin Scale       =       0.3333333333333333 [-]
	 SCS Opposite-Spin Scale   =       1.2000000000000000 [-]
	 SCS Same-Spin Energy      =      -0.1760770909636666 [Eh]
	 SCS Opposite-Spin Energy  =      -1.9633993110350869 [Eh]
	 SCS Correlation Energy    =      -2.1394764019987536 [Eh]
	 SCS Total Energy          =    -531.0301104816085171 [Eh]
	-----------------------------------------------------------

  Dipole Moment: [D]
     X:    -0.4141      Y:     1.9257      Z:     0.8675     Total:     2.1523

*** Psi4 exiting successfully. Buy a developer a beer!
