                               Psi4 1.3.2 release

  ==> Input File <==

--------------------------------------------------------------------------
#psi4
#
memory 32 gb

molecule  {
0 1
  O       -2.2580520    -1.6446380    -0.1299340
  O       -2.1922020    -0.0289620     1.4584460
  O        2.5787120    -1.2491670    -0.5482700
  N       -1.4644620     1.9009220    -0.4829880
  N        3.3512580     0.4763250     0.7206820
  C        0.0919590     0.0544950    -0.9741750
  C       -1.3719240     0.4734550    -0.7783870
  C        0.9633170     0.3705390     0.2368360
  C       -1.9915820    -0.3883620     0.3080910
  C        2.3314777    -0.1692609     0.0733188
  H        0.1535850    -1.0146500    -1.1939440
  H        0.4725780     0.5964070    -1.8456160
  H       -1.9082720     0.2705620    -1.7119190
  H        1.0131360     1.4533500     0.3956850
  H        0.5381800    -0.0660200     1.1504670
  H       -1.3038060     2.0229320     0.5177520
  H       -2.4253970     2.2086760    -0.6320610
  H        3.2135550     1.4259430     1.0332840
  H        4.3010400     0.1654310     0.5620470
  H       -2.5974020    -2.1351830     0.6479870
units angstrom
no_reorient  #important for SAPT in psi4, default
symmetry c1  #important for SAPT in psi4, default
}

set PROPERTIES_ORIGIN ["COM"]
properties('MP2/aug-cc-pvtz', properties = ['dipole'])
--------------------------------------------------------------------------

    Molecular point group: c1
  Charge       = 0
  Multiplicity = 1
  Basis Set: AUG-CC-PVTZ
    Blend: AUG-CC-PVTZ
  Basis Set: (AUG-CC-PVTZ AUX)
    Blend: AUG-CC-PVTZ-JKFIT

    Orbital Energies [Eh]
    ---------------------

    Doubly Occupied:

       1A    -20.626006     2A    -20.563396     3A    -20.517052
       4A    -15.592769     5A    -15.559269     6A    -11.396398
       7A    -11.360503     8A    -11.287568     9A    -11.248930
      10A    -11.239852    11A     -1.470463    12A     -1.367898
      13A     -1.353705    14A     -1.210377    15A     -1.208493
      16A     -1.077413    17A     -0.989894    18A     -0.890283
      19A     -0.804929    20A     -0.777997    21A     -0.732064
      22A     -0.715511    23A     -0.708655    24A     -0.692520
      25A     -0.658312    26A     -0.648626    27A     -0.621769
      28A     -0.605112    29A     -0.589454    30A     -0.580180
      31A     -0.550202    32A     -0.522638    33A     -0.508464
      34A     -0.502737    35A     -0.487180    36A     -0.465616
      37A     -0.427363    38A     -0.420261    39A     -0.411456

  @DF-RHF Final Energy:  -528.88478455756012

   => Energetics <=

    Nuclear Repulsion Energy =            548.4139516238517444
    One-Electron Energy =               -1811.8148398845412430
    Two-Electron Energy =                 734.5161037031293745
    Total Energy =                       -528.8847845575601241
  Basis Set: (AUG-CC-PVTZ AUX)
    Blend: AUG-CC-PVTZ-RI
    Molecular point group: c1

    Geometry (in Angstrom), charge = 0, multiplicity = 1:

       Center              X                  Y                   Z               Mass
    ------------   -----------------  -----------------  -----------------  -----------------
         O           -2.245957464236    -1.614486222255    -0.137545574938    15.994914619570
         O           -2.180107464236     0.001189777745     1.450834425062    15.994914619570
         O            2.590806535764    -1.219015222255    -0.555881574938    15.994914619570
         N           -1.452367464236     1.931073777745    -0.490599574938    14.003074004430
         N            3.363352535764     0.506476777745     0.713070425062    14.003074004430
         C            0.104053535764     0.084646777745    -0.981786574938    12.000000000000
         C           -1.359829464236     0.503606777745    -0.785998574938    12.000000000000
         C            0.975411535764     0.400690777745     0.229224425062    12.000000000000
         C           -1.979487464236    -0.358210222255     0.300479425062    12.000000000000
         C            2.343572235764    -0.139109122255     0.065707225062    12.000000000000
         H            0.165679535764    -0.984498222255    -1.201555574938     1.007825032230
         H            0.484672535764     0.626558777745    -1.853227574938     1.007825032230
         H           -1.896177464236     0.300713777745    -1.719530574938     1.007825032230
         H            1.025230535764     1.483501777745     0.388073425062     1.007825032230
         H            0.550274535764    -0.035868222255     1.142855425062     1.007825032230
         H           -1.291711464236     2.053083777745     0.510140425062     1.007825032230
         H           -2.413302464236     2.238827777745    -0.639672574938     1.007825032230
         H            3.225649535764     1.456094777745     1.025672425062     1.007825032230
         H            4.313134535764     0.195582777745     0.554435425062     1.007825032230
         H           -2.585307464236    -2.105031222255     0.640375425062     1.007825032230

  Basis Set: AUG-CC-PVTZ
    Blend: AUG-CC-PVTZ
  Basis Set: (AUG-CC-PVTZ AUX)
    Blend: AUG-CC-PVTZ-JKFIT
	 Reference Energy          =    -528.8847845575601241 [Eh]
	 Singles Energy            =      -0.0000000000000000 [Eh]
	 Same-Spin Energy          =      -0.5291182965552282 [Eh]
	 Opposite-Spin Energy      =      -1.6380704364593628 [Eh]
	 Correlation Energy        =      -2.1671887330145911 [Eh]
	 Total Energy              =    -531.0519732905746650 [Eh]

	 ================> DF-SCS-MP2 Energies <==================
	-----------------------------------------------------------
	 SCS Same-Spin Scale       =       0.3333333333333333 [-]
	 SCS Opposite-Spin Scale   =       1.2000000000000000 [-]
	 SCS Same-Spin Energy      =      -0.1763727655184094 [Eh]
	 SCS Opposite-Spin Energy  =      -1.9656845237512353 [Eh]
	 SCS Correlation Energy    =      -2.1420572892696446 [Eh]
	 SCS Total Energy          =    -531.0268418468298250 [Eh]
	-----------------------------------------------------------

  Dipole Moment: [D]
     X:    -0.5491      Y:     2.0984      Z:     0.9388     Total:     2.3635

*** Psi4 exiting successfully. Buy a developer a beer!
