                               Psi4 1.3.2 release

  ==> Input File <==

--------------------------------------------------------------------------
#psi4
#
memory 32 gb

molecule  {
0 1
  O       -2.2580520    -1.6446380    -0.1299340
  O       -2.1922020    -0.0289620     1.4584460
  O        2.5370303    -1.2510126    -0.5584589
  N       -1.4644620     1.9009220    -0.4829880
  N        3.3512580     0.4763250     0.7206820
  C        0.0919590     0.0544950    -0.9741750
  C       -1.3719240     0.4734550    -0.7783870
  C        0.9633170     0.3705390     0.2368360
  C       -1.9915820    -0.3883620     0.3080910
  C        2.3594900    -0.2078000     0.0693900
  H        0.1535850    -1.0146500    -1.1939440
  H        0.4725780     0.5964070    -1.8456160
  H       -1.9082720     0.2705620    -1.7119190
  H        1.0131360     1.4533500     0.3956850
  H        0.5381800    -0.0660200     1.1504670
  H       -1.3038060     2.0229320     0.5177520
  H       -2.4253970     2.2086760    -0.6320610
  H        3.2135550     1.4259430     1.0332840
  H        4.3010400     0.1654310     0.5620470
  H       -2.5974020    -2.1351830     0.6479870
units angstrom
no_reorient  #important for SAPT in psi4, default
symmetry c1  #important for SAPT in psi4, default
}

set PROPERTIES_ORIGIN ["COM"]
properties('MP2/aug-cc-pvtz', properties = ['dipole'])
--------------------------------------------------------------------------

    Molecular point group: c1
  Charge       = 0
  Multiplicity = 1
  Basis Set: AUG-CC-PVTZ
    Blend: AUG-CC-PVTZ
  Basis Set: (AUG-CC-PVTZ AUX)
    Blend: AUG-CC-PVTZ-JKFIT

    Orbital Energies [Eh]
    ---------------------

    Doubly Occupied:

       1A    -20.624511     2A    -20.561486     3A    -20.523218
       4A    -15.592092     5A    -15.557209     6A    -11.394533
       7A    -11.357937     8A    -11.285251     9A    -11.244600
      10A    -11.236304    11A     -1.468812    12A     -1.376683
      13A     -1.366129    14A     -1.215408    15A     -1.206893
      16A     -1.069793    17A     -0.982698    18A     -0.884666
      19A     -0.803729    20A     -0.777321    21A     -0.732344
      22A     -0.713815    23A     -0.706857    24A     -0.689265
      25A     -0.655037    26A     -0.651359    27A     -0.619916
      28A     -0.603347    29A     -0.591850    30A     -0.584299
      31A     -0.553920    32A     -0.520766    33A     -0.508573
      34A     -0.499457    35A     -0.485526    36A     -0.463538
      37A     -0.428678    38A     -0.420658    39A     -0.416527

  @DF-RHF Final Energy:  -528.89116747934736

   => Energetics <=

    Nuclear Repulsion Energy =            548.7607070942642622
    One-Electron Energy =               -1812.5537401063190828
    Two-Electron Energy =                 734.9018655327074612
    Total Energy =                       -528.8911674793473594
  Basis Set: (AUG-CC-PVTZ AUX)
    Blend: AUG-CC-PVTZ-RI
    Molecular point group: c1

    Geometry (in Angstrom), charge = 0, multiplicity = 1:

       Center              X                  Y                   Z               Mass
    ------------   -----------------  -----------------  -----------------  -----------------
         O           -2.243694511037    -1.611118026844    -0.136107104209    15.994914619570
         O           -2.177844511037     0.004557973156     1.452272895791    15.994914619570
         O            2.551387788963    -1.217492626844    -0.564632004209    15.994914619570
         N           -1.450104511037     1.934441973156    -0.489161104209    14.003074004430
         N            3.365615488963     0.509844973156     0.714508895791    14.003074004430
         C            0.106316488963     0.088014973156    -0.980348104209    12.000000000000
         C           -1.357566511037     0.506974973156    -0.784560104209    12.000000000000
         C            0.977674488963     0.404058973156     0.230662895791    12.000000000000
         C           -1.977224511037    -0.354842026844     0.301917895791    12.000000000000
         C            2.373847488963    -0.174280026844     0.063216895791    12.000000000000
         H            0.167942488963    -0.981130026844    -1.200117104209     1.007825032230
         H            0.486935488963     0.629926973156    -1.851789104209     1.007825032230
         H           -1.893914511037     0.304081973156    -1.718092104209     1.007825032230
         H            1.027493488963     1.486869973156     0.389511895791     1.007825032230
         H            0.552537488963    -0.032500026844     1.144293895791     1.007825032230
         H           -1.289448511037     2.056451973156     0.511578895791     1.007825032230
         H           -2.411039511037     2.242195973156    -0.638234104209     1.007825032230
         H            3.227912488963     1.459462973156     1.027110895791     1.007825032230
         H            4.315397488963     0.198950973156     0.555873895791     1.007825032230
         H           -2.583044511037    -2.101663026844     0.641813895791     1.007825032230

  Basis Set: AUG-CC-PVTZ
    Blend: AUG-CC-PVTZ
  Basis Set: (AUG-CC-PVTZ AUX)
    Blend: AUG-CC-PVTZ-JKFIT
	 Reference Energy          =    -528.8911674793473594 [Eh]
	 Singles Energy            =      -0.0000000000000000 [Eh]
	 Same-Spin Energy          =      -0.5281239805439429 [Eh]
	 Opposite-Spin Energy      =      -1.6360344212263174 [Eh]
	 Correlation Energy        =      -2.1641584017702602 [Eh]
	 Total Energy              =    -531.0553258811175965 [Eh]

	 ================> DF-SCS-MP2 Energies <==================
	-----------------------------------------------------------
	 SCS Same-Spin Scale       =       0.3333333333333333 [-]
	 SCS Opposite-Spin Scale   =       1.2000000000000000 [-]
	 SCS Same-Spin Energy      =      -0.1760413268479810 [Eh]
	 SCS Opposite-Spin Energy  =      -1.9632413054715807 [Eh]
	 SCS Correlation Energy    =      -2.1392826323195617 [Eh]
	 SCS Total Energy          =    -531.0304501116669371 [Eh]
	-----------------------------------------------------------

  Dipole Moment: [D]
     X:    -0.2572      Y:     1.9218      Z:     0.8843     Total:     2.1311

*** Psi4 exiting successfully. Buy a developer a beer!
