                               Psi4 1.4a3.dev225

  ==> Input File <==

--------------------------------------------------------------------------
#psi4
#
memory 32 gb

molecule  {
0 1
  O       -2.2574700    -1.6449290    -0.1296770
  O       -2.1921770    -0.0290210     1.4584970
  O        2.5788390    -1.2486470    -0.5488970
  N       -1.4647530     1.9008340    -0.4830500
  N        3.3509580     0.4760520     0.7213670
  C        0.0918810     0.0546190    -0.9743850
  C       -1.3720140     0.4733420    -0.7784070
  C        0.9632520     0.3707540     0.2365710
  C       -1.9914170    -0.3885060     0.3082000
  C        2.3778122    -0.2152065     0.0670471
  H        0.1537030    -1.0145040    -1.1942090
  H        0.4723450     0.5966220    -1.8458350
  H       -1.9085090     0.2703120    -1.7118280
  H        1.0130710     1.4535820     0.3953090
  H        0.5380840    -0.0656780     1.1502640
  H       -1.3040640     2.0229100     0.5176770
  H       -2.4257360     2.2084470    -0.6320870
  H        3.2131660     1.4254870     1.0344650
  H        4.3007880     0.1652150     0.5629740
  H       -2.5967120    -2.1354700     0.6482930
units angstrom
no_reorient  #important for SAPT in psi4, default
symmetry c1  #important for SAPT in psi4, default
}

set PROPERTIES_ORIGIN ["COM"]
properties('MP2/aug-cc-pvtz', properties = ['dipole'])
--------------------------------------------------------------------------

    Molecular point group: c1
  Charge       = 0
  Multiplicity = 1
  Basis Set: AUG-CC-PVTZ
    Blend: AUG-CC-PVTZ
  Basis Set: (AUG-CC-PVTZ AUX)
    Blend: AUG-CC-PVTZ-JKFIT

    Orbital Energies [Eh]
    ---------------------

    Doubly Occupied:

       1A    -20.624646     2A    -20.561555     3A    -20.523416
       4A    -15.590272     5A    -15.557314     6A    -11.394626
       7A    -11.356262     8A    -11.285449     9A    -11.245405
      10A    -11.236581    11A     -1.468924    12A     -1.383360
      13A     -1.366218    14A     -1.216784    15A     -1.206996
      16A     -1.068502    17A     -0.980928    18A     -0.883221
      19A     -0.803979    20A     -0.778293    21A     -0.732930
      22A     -0.713879    23A     -0.706913    24A     -0.688080
      25A     -0.654661    26A     -0.651965    27A     -0.619951
      28A     -0.603448    29A     -0.592603    30A     -0.584296
      31A     -0.556404    32A     -0.521480    33A     -0.509530
      34A     -0.499583    35A     -0.485845    36A     -0.463573
      37A     -0.428177    38A     -0.421042    39A     -0.416219

  @DF-RHF Final Energy:  -528.89231105575061

   => Energetics <=

    Nuclear Repulsion Energy =            548.3217313459937259
    One-Electron Energy =               -1811.6614593278391112
    Two-Electron Energy =                 734.4474169260948884
    Total Energy =                       -528.8923110557506106
  Basis Set: (AUG-CC-PVTZ AUX)
    Blend: AUG-CC-PVTZ-RI
    Molecular point group: c1

    Geometry (in Angstrom), charge = 0, multiplicity = 1:

       Center              X                  Y                   Z               Mass
    ------------   -----------------  -----------------  -----------------  -----------------
         O           -2.249192787593    -1.610989781088    -0.136775671473    15.994914619570
         O           -2.183899787593     0.004918218912     1.451398328527    15.994914619570
         O            2.587116212407    -1.214707781088    -0.555995671473    15.994914619570
         N           -1.456475787593     1.934773218912    -0.490148671473    14.003074004430
         N            3.359235212407     0.509991218912     0.714268328527    14.003074004430
         C            0.100158212407     0.088558218912    -0.981483671473    12.000000000000
         C           -1.363736787593     0.507281218912    -0.785505671473    12.000000000000
         C            0.971529212407     0.404693218912     0.229472328527    12.000000000000
         C           -1.983139787593    -0.354566781088     0.301101328527    12.000000000000
         C            2.386089412407    -0.181267281088     0.059948428527    12.000000000000
         H            0.161980212407    -0.980564781088    -1.201307671473     1.007825032230
         H            0.480622212407     0.630561218912    -1.852933671473     1.007825032230
         H           -1.900231787593     0.304251218912    -1.718926671473     1.007825032230
         H            1.021348212407     1.487521218912     0.388210328527     1.007825032230
         H            0.546361212407    -0.031738781088     1.143165328527     1.007825032230
         H           -1.295786787593     2.056849218912     0.510578328527     1.007825032230
         H           -2.417458787593     2.242386218912    -0.639185671473     1.007825032230
         H            3.221443212407     1.459426218912     1.027366328527     1.007825032230
         H            4.309065212407     0.199154218912     0.555875328527     1.007825032230
         H           -2.588434787593    -2.101530781088     0.641194328527     1.007825032230

  Basis Set: AUG-CC-PVTZ
    Blend: AUG-CC-PVTZ
  Basis Set: (AUG-CC-PVTZ AUX)
    Blend: AUG-CC-PVTZ-JKFIT
	 Reference Energy          =    -528.8923110557506106 [Eh]
	 Singles Energy            =      -0.0000000000000000 [Eh]
	 Same-Spin Energy          =      -0.5277567006416432 [Eh]
	 Opposite-Spin Energy      =      -1.6352957047906016 [Eh]
	 Correlation Energy        =      -2.1630524054322446 [Eh]
	 Total Energy              =    -531.0553634611828784 [Eh]

	 ================> DF-SCS-MP2 Energies <==================
	-----------------------------------------------------------
	 SCS Same-Spin Scale       =       0.3333333333333333 [-]
	 SCS Opposite-Spin Scale   =       1.2000000000000000 [-]
	 SCS Same-Spin Energy      =      -0.1759189002138810 [Eh]
	 SCS Opposite-Spin Energy  =      -1.9623548457487219 [Eh]
	 SCS Correlation Energy    =      -2.1382737459626031 [Eh]
	 SCS Total Energy          =    -531.0305848017131893 [Eh]
	-----------------------------------------------------------

  Dipole Moment: [D]
     X:    -0.2880      Y:     1.9038      Z:     0.8631     Total:     2.1101

*** Psi4 exiting successfully. Buy a developer a beer!
