                               Psi4 1.3.2 release

  ==> Input File <==

--------------------------------------------------------------------------
#psi4
#
memory 32 gb

molecule  {
0 1
  O       -2.2580520    -1.6446380    -0.1299340
  O       -2.1922020    -0.0289620     1.4584460
  O        2.5787120    -1.2491670    -0.5482700
  N       -1.4644620     1.9009220    -0.4829880
  N        3.3512580     0.4763250     0.7206820
  C        0.0919590     0.0544950    -0.9741750
  C       -1.3719240     0.4734550    -0.7783870
  C        0.9633170     0.3705390     0.2368360
  C       -1.9915820    -0.3883620     0.3080910
  C        2.3951228    -0.3770660    -0.0310058
  H        0.1535850    -1.0146500    -1.1939440
  H        0.4725780     0.5964070    -1.8456160
  H       -1.9082720     0.2705620    -1.7119190
  H        1.0131360     1.4533500     0.3956850
  H        0.5381800    -0.0660200     1.1504670
  H       -1.3038060     2.0229320     0.5177520
  H       -2.4253970     2.2086760    -0.6320610
  H        3.2135550     1.4259430     1.0332840
  H        4.3010400     0.1654310     0.5620470
  H       -2.5974020    -2.1351830     0.6479870
units angstrom
no_reorient  #important for SAPT in psi4, default
symmetry c1  #important for SAPT in psi4, default
}

set PROPERTIES_ORIGIN ["COM"]
properties('MP2/aug-cc-pvtz', properties = ['dipole'])
--------------------------------------------------------------------------

    Molecular point group: c1
  Charge       = 0
  Multiplicity = 1
  Basis Set: AUG-CC-PVTZ
    Blend: AUG-CC-PVTZ
  Basis Set: (AUG-CC-PVTZ AUX)
    Blend: AUG-CC-PVTZ-JKFIT

    Orbital Energies [Eh]
    ---------------------

    Doubly Occupied:

       1A    -20.624304     2A    -20.562912     3A    -20.559897
       4A    -15.556816     5A    -15.555073     6A    -11.393072
       7A    -11.349061     8A    -11.282928     9A    -11.235561
      10A    -11.234098    11A     -1.542794    12A     -1.468096
      13A     -1.364935    14A     -1.204745    15A     -1.166500
      16A     -1.060473    17A     -0.969275    18A     -0.868989
      19A     -0.790679    20A     -0.767549    21A     -0.732232
      22A     -0.715440    23A     -0.711129    24A     -0.690248
      25A     -0.671862    26A     -0.664125    27A     -0.639182
      28A     -0.636792    29A     -0.612937    30A     -0.581115
      31A     -0.578326    32A     -0.529789    33A     -0.512863
      34A     -0.498372    35A     -0.485926    36A     -0.461823
      37A     -0.420996    38A     -0.417004    39A     -0.394686

  @DF-RHF Final Energy:  -528.81428067758384

   => Energetics <=

    Nuclear Repulsion Energy =            549.5822365023568636
    One-Electron Energy =               -1813.7678240835427914
    Two-Electron Energy =                 735.3713069036020897
    Total Energy =                       -528.8142806775838380
  Basis Set: (AUG-CC-PVTZ AUX)
    Blend: AUG-CC-PVTZ-RI
    Molecular point group: c1

    Geometry (in Angstrom), charge = 0, multiplicity = 1:

       Center              X                  Y                   Z               Mass
    ------------   -----------------  -----------------  -----------------  -----------------
         O           -2.251186092190    -1.597414435822    -0.128975009101    15.994914619570
         O           -2.185336092190     0.018261564178     1.459404990899    15.994914619570
         O            2.585577907810    -1.201943435822    -0.547311009101    15.994914619570
         N           -1.457596092190     1.948145564178    -0.482029009101    14.003074004430
         N            3.358123907810     0.523548564178     0.721640990899    14.003074004430
         C            0.098824907810     0.101718564178    -0.973216009101    12.000000000000
         C           -1.365058092190     0.520678564178    -0.777428009101    12.000000000000
         C            0.970182907810     0.417762564178     0.237794990899    12.000000000000
         C           -1.984716092190    -0.341138435822     0.309049990899    12.000000000000
         C            2.401988707810    -0.329842435822    -0.030046809101    12.000000000000
         H            0.160450907810    -0.967426435822    -1.192985009101     1.007825032230
         H            0.479443907810     0.643630564178    -1.844657009101     1.007825032230
         H           -1.901406092190     0.317785564178    -1.710960009101     1.007825032230
         H            1.020001907810     1.500573564178     0.396643990899     1.007825032230
         H            0.545045907810    -0.018796435822     1.151425990899     1.007825032230
         H           -1.296940092190     2.070155564178     0.518710990899     1.007825032230
         H           -2.418531092190     2.255899564178    -0.631102009101     1.007825032230
         H            3.220420907810     1.473166564178     1.034242990899     1.007825032230
         H            4.307905907810     0.212654564178     0.563005990899     1.007825032230
         H           -2.590536092190    -2.087959435822     0.648945990899     1.007825032230

  Basis Set: AUG-CC-PVTZ
    Blend: AUG-CC-PVTZ
  Basis Set: (AUG-CC-PVTZ AUX)
    Blend: AUG-CC-PVTZ-JKFIT
	 Reference Energy          =    -528.8142806775838380 [Eh]
	 Singles Energy            =      -0.0000000000000000 [Eh]
	 Same-Spin Energy          =      -0.5246408239760635 [Eh]
	 Opposite-Spin Energy      =      -1.6293712982069788 [Eh]
	 Correlation Energy        =      -2.1540121221830422 [Eh]
	 Total Energy              =    -530.9682927997669140 [Eh]

	 ================> DF-SCS-MP2 Energies <==================
	-----------------------------------------------------------
	 SCS Same-Spin Scale       =       0.3333333333333333 [-]
	 SCS Opposite-Spin Scale   =       1.2000000000000000 [-]
	 SCS Same-Spin Energy      =      -0.1748802746586878 [Eh]
	 SCS Opposite-Spin Energy  =      -1.9552455578483745 [Eh]
	 SCS Correlation Energy    =      -2.1301258325070624 [Eh]
	 SCS Total Energy          =    -530.9444065100908574 [Eh]
	-----------------------------------------------------------

  Dipole Moment: [D]
     X:    -0.4349      Y:     0.5785      Z:    -0.0269     Total:     0.7242

*** Psi4 exiting successfully. Buy a developer a beer!
