                               Psi4 1.3.2 release

  ==> Input File <==

--------------------------------------------------------------------------
#psi4
#
memory 32 gb

molecule  {
0 1
  O       -2.2580520    -1.6446380    -0.1299340
  O       -2.1922020    -0.0289620     1.4584460
  O        2.5787120    -1.2491670    -0.5482700
  N       -1.4644620     1.9009220    -0.4829880
  N        3.3512580     0.4763250     0.7206820
  C        0.0919590     0.0544950    -0.9741750
  C       -1.3719240     0.4734550    -0.7783870
  C        0.9633170     0.3705390     0.2368360
  C       -1.9915820    -0.3883620     0.3080910
  C        2.3887106    -0.2455056     0.0662547
  H        0.1535850    -1.0146500    -1.1939440
  H        0.4725780     0.5964070    -1.8456160
  H       -1.9082720     0.2705620    -1.7119190
  H        1.0131360     1.4533500     0.3956850
  H        0.5381800    -0.0660200     1.1504670
  H       -1.3038060     2.0229320     0.5177520
  H       -2.4253970     2.2086760    -0.6320610
  H        3.2135550     1.4259430     1.0332840
  H        4.3010400     0.1654310     0.5620470
  H       -2.5974020    -2.1351830     0.6479870
units angstrom
no_reorient  #important for SAPT in psi4, default
symmetry c1  #important for SAPT in psi4, default
}

set PROPERTIES_ORIGIN ["COM"]
properties('MP2/aug-cc-pvtz', properties = ['dipole'])
--------------------------------------------------------------------------

    Molecular point group: c1
  Charge       = 0
  Multiplicity = 1
  Basis Set: AUG-CC-PVTZ
    Blend: AUG-CC-PVTZ
  Basis Set: (AUG-CC-PVTZ AUX)
    Blend: AUG-CC-PVTZ-JKFIT

    Orbital Energies [Eh]
    ---------------------

    Doubly Occupied:

       1A    -20.624299     2A    -20.560967     3A    -20.528215
       4A    -15.587015     5A    -15.556684     6A    -11.394073
       7A    -11.354986     8A    -11.284778     9A    -11.243490
      10A    -11.235653    11A     -1.468489    12A     -1.402145
      13A     -1.365702    14A     -1.214585    15A     -1.206245
      16A     -1.065894    17A     -0.977885    18A     -0.880401
      19A     -0.802176    20A     -0.777353    21A     -0.731750
      22A     -0.713162    23A     -0.705657    24A     -0.686982
      25A     -0.656199    26A     -0.653590    27A     -0.619917
      28A     -0.603760    29A     -0.598905    30A     -0.582944
      31A     -0.559922    32A     -0.521978    33A     -0.509940
      34A     -0.498506    35A     -0.485537    36A     -0.462923
      37A     -0.429402    38A     -0.422319    39A     -0.415061

  @DF-RHF Final Energy:  -528.89182143863377

   => Energetics <=

    Nuclear Repulsion Energy =            548.3667811329167989
    One-Electron Energy =               -1811.7382232654028940
    Two-Electron Energy =                 734.4796206938524392
    Total Energy =                       -528.8918214386337695
  Basis Set: (AUG-CC-PVTZ AUX)
    Blend: AUG-CC-PVTZ-RI
    Molecular point group: c1

    Geometry (in Angstrom), charge = 0, multiplicity = 1:

       Center              X                  Y                   Z               Mass
    ------------   -----------------  -----------------  -----------------  -----------------
         O           -2.250659311524    -1.608222500936    -0.136965238813    15.994914619570
         O           -2.184809311524     0.007453499064     1.451414761187    15.994914619570
         O            2.586104688476    -1.212751500936    -0.555301238813    15.994914619570
         N           -1.457069311524     1.937337499064    -0.490019238813    14.003074004430
         N            3.358650688476     0.512740499064     0.713650761187    14.003074004430
         C            0.099351688476     0.090910499064    -0.981206238813    12.000000000000
         C           -1.364531311524     0.509870499064    -0.785418238813    12.000000000000
         C            0.970709688476     0.406954499064     0.229804761187    12.000000000000
         C           -1.984189311524    -0.351946500936     0.301059761187    12.000000000000
         C            2.396103288476    -0.209090100936     0.059223461187    12.000000000000
         H            0.160977688476    -0.978234500936    -1.200975238813     1.007825032230
         H            0.479970688476     0.632822499064    -1.852647238813     1.007825032230
         H           -1.900879311524     0.306977499064    -1.718950238813     1.007825032230
         H            1.020528688476     1.489765499064     0.388653761187     1.007825032230
         H            0.545572688476    -0.029604500936     1.143435761187     1.007825032230
         H           -1.296413311524     2.059347499064     0.510720761187     1.007825032230
         H           -2.418004311524     2.245091499064    -0.639092238813     1.007825032230
         H            3.220947688476     1.462358499064     1.026252761187     1.007825032230
         H            4.308432688476     0.201846499064     0.555015761187     1.007825032230
         H           -2.590009311524    -2.098767500936     0.640955761187     1.007825032230

  Basis Set: AUG-CC-PVTZ
    Blend: AUG-CC-PVTZ
  Basis Set: (AUG-CC-PVTZ AUX)
    Blend: AUG-CC-PVTZ-JKFIT
	 Reference Energy          =    -528.8918214386337695 [Eh]
	 Singles Energy            =      -0.0000000000000000 [Eh]
	 Same-Spin Energy          =      -0.5271966721027382 [Eh]
	 Opposite-Spin Energy      =      -1.6341650407737809 [Eh]
	 Correlation Energy        =      -2.1613617128765190 [Eh]
	 Total Energy              =    -531.0531831515103249 [Eh]

	 ================> DF-SCS-MP2 Energies <==================
	-----------------------------------------------------------
	 SCS Same-Spin Scale       =       0.3333333333333333 [-]
	 SCS Opposite-Spin Scale   =       1.2000000000000000 [-]
	 SCS Same-Spin Energy      =      -0.1757322240342461 [Eh]
	 SCS Opposite-Spin Energy  =      -1.9609980489285370 [Eh]
	 SCS Correlation Energy    =      -2.1367302729627831 [Eh]
	 SCS Total Energy          =    -531.0285517115966059 [Eh]
	-----------------------------------------------------------

  Dipole Moment: [D]
     X:    -0.2373      Y:     1.7498      Z:     0.7801     Total:     1.9305

*** Psi4 exiting successfully. Buy a developer a beer!
