                               Psi4 1.4a2.dev612

  ==> Input File <==

--------------------------------------------------------------------------
#psi4
#
memory 32 gb

molecule  {
0 1
  O        2.4822540     0.5405090    -0.0540980
  O        1.5746620    -1.5220150     0.0896580
  N       -1.1191790    -1.6921850    -0.1509940
  C       -1.0966210    -0.3229200    -0.0500550
  C        0.1245012     0.3877196    -0.3272546
  C       -2.3003260     0.4165330    -0.0467730
  C        0.1050810     1.8109880     0.0359760
  C       -2.2954060     1.8037730     0.0119910
  C       -1.0915490     2.5140600     0.0407670
  C        1.4212810    -0.3016580     0.0102200
  C       -2.3257850    -2.4585570     0.0736050
  C        3.7618060    -0.1198990    -0.0066490
  H       -3.2501560    -0.1077310    -0.0690300
  H        1.0507040     2.3420820     0.0640380
  H       -0.2300450    -2.1418000     0.0381510
  H       -3.2442430     2.3364260     0.0191250
  H       -1.0894800     3.5992760     0.0899090
  H       -2.7979590    -2.2384410     1.0412790
  H       -2.0612830    -3.5169920     0.0485590
  H       -3.0612710    -2.2783540    -0.7172980
  H        3.8686140    -0.8046650    -0.8491430
  H        3.8704280    -0.6765840     0.9253170
  H        4.4925120     0.6845290    -0.0653970
units angstrom
no_reorient  #important for SAPT in psi4, default
symmetry c1  #important for SAPT in psi4, default
}

set PROPERTIES_ORIGIN ["COM"]
properties('MP2/aug-cc-pvtz', properties = ['dipole'])
--------------------------------------------------------------------------

    Molecular point group: c1
  Charge       = 0
  Multiplicity = 1
  Basis Set: AUG-CC-PVTZ
    Blend: AUG-CC-PVTZ
  Basis Set: (AUG-CC-PVTZ AUX)
    Blend: AUG-CC-PVTZ-JKFIT

    Orbital Energies [Eh]
    ---------------------

    Doubly Occupied:

       1A    -20.600862     2A    -20.539868     3A    -15.564911
       4A    -11.385177     5A    -11.302005     6A    -11.283067
       7A    -11.258781     8A    -11.257346     9A    -11.256233
      10A    -11.244498    11A    -11.229087    12A    -11.224273
      13A     -1.451732    14A     -1.347958    15A     -1.246703
      16A     -1.137709    17A     -1.039662    18A     -1.009516
      19A     -0.966394    20A     -0.922118    21A     -0.861766
      22A     -0.804425    23A     -0.780766    24A     -0.723646
      25A     -0.696291    26A     -0.672276    27A     -0.666368
      28A     -0.659248    29A     -0.629907    30A     -0.617146
      31A     -0.612464    32A     -0.577797    33A     -0.572428
      34A     -0.553107    35A     -0.541786    36A     -0.533646
      37A     -0.525559    38A     -0.501248    39A     -0.497815
      40A     -0.463438    41A     -0.439790    42A     -0.426025
      43A     -0.345966    44A     -0.294189

  @DF-RHF Final Energy:  -551.57055349161328

   => Energetics <=

    Nuclear Repulsion Energy =            686.5531103332795055
    One-Electron Energy =               -2113.7173322174226087
    Two-Electron Energy =                 875.5936683925297075
    Total Energy =                       -551.5705534916132819
  Basis Set: (AUG-CC-PVTZ AUX)
    Blend: AUG-CC-PVTZ-RI
    Molecular point group: c1

    Geometry (in Angstrom), charge = 0, multiplicity = 1:

       Center              X                  Y                   Z               Mass
    ------------   -----------------  -----------------  -----------------  -----------------
         O            2.467821528234     0.525113962782    -0.029176292254    15.994914619570
         O            1.560229528234    -1.537410037218     0.114579707746    15.994914619570
         N           -1.133611471766    -1.707580037218    -0.126072292254    14.003074004430
         C           -1.111053471766    -0.338315037218    -0.025133292254    12.000000000000
         C            0.110068728234     0.372324562782    -0.302332892254    12.000000000000
         C           -2.314758471766     0.401137962782    -0.021851292254    12.000000000000
         C            0.090648528234     1.795592962782     0.060897707746    12.000000000000
         C           -2.309838471766     1.788377962782     0.036912707746    12.000000000000
         C           -1.105981471766     2.498664962782     0.065688707746    12.000000000000
         C            1.406848528234    -0.317053037218     0.035141707746    12.000000000000
         C           -2.340217471766    -2.473952037218     0.098526707746    12.000000000000
         C            3.747373528234    -0.135294037218     0.018272707746    12.000000000000
         H           -3.264588471766    -0.123126037218    -0.044108292254     1.007825032230
         H            1.036271528234     2.326686962782     0.088959707746     1.007825032230
         H           -0.244477471766    -2.157195037218     0.063072707746     1.007825032230
         H           -3.258675471766     2.321030962782     0.044046707746     1.007825032230
         H           -1.103912471766     3.583880962782     0.114830707746     1.007825032230
         H           -2.812391471766    -2.253836037218     1.066200707746     1.007825032230
         H           -2.075715471766    -3.532387037218     0.073480707746     1.007825032230
         H           -3.075703471766    -2.293749037218    -0.692376292254     1.007825032230
         H            3.854181528234    -0.820060037218    -0.824221292254     1.007825032230
         H            3.855995528234    -0.691979037218     0.950238707746     1.007825032230
         H            4.478079528234     0.669133962782    -0.040475292254     1.007825032230

  Basis Set: AUG-CC-PVTZ
    Blend: AUG-CC-PVTZ
  Basis Set: (AUG-CC-PVTZ AUX)
    Blend: AUG-CC-PVTZ-JKFIT
	 Reference Energy          =    -551.5705534916132819 [Eh]
	 Singles Energy            =      -0.0000000000000000 [Eh]
	 Same-Spin Energy          =      -0.5796111854828483 [Eh]
	 Opposite-Spin Energy      =      -1.8025816522873888 [Eh]
	 Correlation Energy        =      -2.3821928377702370 [Eh]
	 Total Energy              =    -553.9527463293835581 [Eh]

	 ================> DF-SCS-MP2 Energies <==================
	-----------------------------------------------------------
	 SCS Same-Spin Scale       =       0.3333333333333333 [-]
	 SCS Opposite-Spin Scale   =       1.2000000000000000 [-]
	 SCS Same-Spin Energy      =      -0.1932037284942827 [Eh]
	 SCS Opposite-Spin Energy  =      -2.1630979827448664 [Eh]
	 SCS Correlation Energy    =      -2.3563017112391491 [Eh]
	 SCS Total Energy          =    -553.9268552028523800 [Eh]
	-----------------------------------------------------------

  Dipole Moment: [D]
     X:    -0.3551      Y:    -0.1122      Z:     0.4144     Total:     0.5572

*** Psi4 exiting successfully. Buy a developer a beer!
