                               Psi4 1.4a2.dev612

  ==> Input File <==

--------------------------------------------------------------------------
#psi4
#
memory 32 gb

molecule  {
0 1
  O        2.4822540     0.5405090    -0.0540980
  O        1.5746620    -1.5220150     0.0896580
  N       -1.1191790    -1.6921850    -0.1509940
  C       -1.0966210    -0.3229200    -0.0500550
  C        0.1267050     0.4076130    -0.0279230
  C       -2.3023142     0.4030817     0.2028569
  C        0.1050810     1.8109880     0.0359760
  C       -2.2954060     1.8037730     0.0119910
  C       -1.0915490     2.5140600     0.0407670
  C        1.4212810    -0.3016580     0.0102200
  C       -2.3257850    -2.4585570     0.0736050
  C        3.7618060    -0.1198990    -0.0066490
  H       -3.2501560    -0.1077310    -0.0690300
  H        1.0507040     2.3420820     0.0640380
  H       -0.2300450    -2.1418000     0.0381510
  H       -3.2442430     2.3364260     0.0191250
  H       -1.0894800     3.5992760     0.0899090
  H       -2.7979590    -2.2384410     1.0412790
  H       -2.0612830    -3.5169920     0.0485590
  H       -3.0612710    -2.2783540    -0.7172980
  H        3.8686140    -0.8046650    -0.8491430
  H        3.8704280    -0.6765840     0.9253170
  H        4.4925120     0.6845290    -0.0653970
units angstrom
no_reorient  #important for SAPT in psi4, default
symmetry c1  #important for SAPT in psi4, default
}

set PROPERTIES_ORIGIN ["COM"]
properties('MP2/aug-cc-pvtz', properties = ['dipole'])
--------------------------------------------------------------------------

    Molecular point group: c1
  Charge       = 0
  Multiplicity = 1
  Basis Set: AUG-CC-PVTZ
    Blend: AUG-CC-PVTZ
  Basis Set: (AUG-CC-PVTZ AUX)
    Blend: AUG-CC-PVTZ-JKFIT

    Orbital Energies [Eh]
    ---------------------

    Doubly Occupied:

       1A    -20.603150     2A    -20.542091     3A    -15.564765
       4A    -11.386090     5A    -11.302083     6A    -11.284640
       7A    -11.257863     8A    -11.257119     9A    -11.253666
      10A    -11.240010    11A    -11.231056    12A    -11.223763
      13A     -1.454469    14A     -1.350379    15A     -1.245833
      16A     -1.141219    17A     -1.044563    18A     -1.008146
      19A     -0.968180    20A     -0.923199    21A     -0.863159
      22A     -0.807169    23A     -0.783755    24A     -0.727605
      25A     -0.701275    26A     -0.673056    27A     -0.669138
      28A     -0.660510    29A     -0.626633    30A     -0.615927
      31A     -0.610255    32A     -0.580266    33A     -0.575509
      34A     -0.555831    35A     -0.541774    36A     -0.533972
      37A     -0.524688    38A     -0.506280    39A     -0.495355
      40A     -0.465625    41A     -0.444685    42A     -0.425396
      43A     -0.348758    44A     -0.293507

  @DF-RHF Final Energy:  -551.58597891740737

   => Energetics <=

    Nuclear Repulsion Energy =            687.3614023609596870
    One-Electron Energy =               -2115.2699403501023880
    Two-Electron Energy =                 876.3225590717352134
    Total Energy =                       -551.5859789174073740
  Basis Set: (AUG-CC-PVTZ AUX)
    Blend: AUG-CC-PVTZ-RI
    Molecular point group: c1

    Geometry (in Angstrom), charge = 0, multiplicity = 1:

       Center              X                  Y                   Z               Mass
    ------------   -----------------  -----------------  -----------------  -----------------
         O            2.467805855735     0.524645670571    -0.069081663949    15.994914619570
         O            1.560213855735    -1.537878329429     0.074674336051    15.994914619570
         N           -1.133627144265    -1.708048329429    -0.165977663949    14.003074004430
         C           -1.111069144265    -0.338783329429    -0.065038663949    12.000000000000
         C            0.112256855735     0.391749670571    -0.042906663949    12.000000000000
         C           -2.316762344265     0.387218370571     0.187873236051    12.000000000000
         C            0.090632855735     1.795124670571     0.020992336051    12.000000000000
         C           -2.309854144265     1.787909670571    -0.002992663949    12.000000000000
         C           -1.105997144265     2.498196670571     0.025783336051    12.000000000000
         C            1.406832855735    -0.317521329429    -0.004763663949    12.000000000000
         C           -2.340233144265    -2.474420329429     0.058621336051    12.000000000000
         C            3.747357855735    -0.135762329429    -0.021632663949    12.000000000000
         H           -3.264604144265    -0.123594329429    -0.084013663949     1.007825032230
         H            1.036255855735     2.326218670571     0.049054336051     1.007825032230
         H           -0.244493144265    -2.157663329429     0.023167336051     1.007825032230
         H           -3.258691144265     2.320562670571     0.004141336051     1.007825032230
         H           -1.103928144265     3.583412670571     0.074925336051     1.007825032230
         H           -2.812407144265    -2.254304329429     1.026295336051     1.007825032230
         H           -2.075731144265    -3.532855329429     0.033575336051     1.007825032230
         H           -3.075719144265    -2.294217329429    -0.732281663949     1.007825032230
         H            3.854165855735    -0.820528329429    -0.864126663949     1.007825032230
         H            3.855979855735    -0.692447329429     0.910333336051     1.007825032230
         H            4.478063855735     0.668665670571    -0.080380663949     1.007825032230

  Basis Set: AUG-CC-PVTZ
    Blend: AUG-CC-PVTZ
  Basis Set: (AUG-CC-PVTZ AUX)
    Blend: AUG-CC-PVTZ-JKFIT
	 Reference Energy          =    -551.5859789174073740 [Eh]
	 Singles Energy            =      -0.0000000000000000 [Eh]
	 Same-Spin Energy          =      -0.5794403146338842 [Eh]
	 Opposite-Spin Energy      =      -1.8016412841361795 [Eh]
	 Correlation Energy        =      -2.3810815987700638 [Eh]
	 Total Energy              =    -553.9670605161774120 [Eh]

	 ================> DF-SCS-MP2 Energies <==================
	-----------------------------------------------------------
	 SCS Same-Spin Scale       =       0.3333333333333333 [-]
	 SCS Opposite-Spin Scale   =       1.2000000000000000 [-]
	 SCS Same-Spin Energy      =      -0.1931467715446281 [Eh]
	 SCS Opposite-Spin Energy  =      -2.1619695409634154 [Eh]
	 SCS Correlation Energy    =      -2.3551163125080437 [Eh]
	 SCS Total Energy          =    -553.9410952299153905 [Eh]
	-----------------------------------------------------------

  Dipole Moment: [D]
     X:    -0.0277      Y:    -0.0694      Z:     0.1365     Total:     0.1556

*** Psi4 exiting successfully. Buy a developer a beer!
