                               Psi4 1.4a2.dev612

  ==> Input File <==

--------------------------------------------------------------------------
#psi4
#
memory 32 gb

molecule  {
0 1
  O        2.4822540     0.5405090    -0.0540980
  O        1.5746620    -1.5220150     0.0896580
  N       -1.1191790    -1.6921850    -0.1509940
  C       -1.0966210    -0.3229200    -0.0500550
  C        0.1267050     0.4076130    -0.0279230
  C       -2.3007236     0.4138427     0.0031530
  C        0.1050810     1.8109880     0.0359760
  C       -2.2954060     1.8037730     0.0119910
  C       -1.0915490     2.5140600     0.0407670
  C        1.4212810    -0.3016580     0.0102200
  C       -2.3257850    -2.4585570     0.0736050
  C        3.7618060    -0.1198990    -0.0066490
  H       -3.2501560    -0.1077310    -0.0690300
  H        1.0507040     2.3420820     0.0640380
  H       -0.2300450    -2.1418000     0.0381510
  H       -3.2442430     2.3364260     0.0191250
  H       -1.0894800     3.5992760     0.0899090
  H       -2.7979590    -2.2384410     1.0412790
  H       -2.0612830    -3.5169920     0.0485590
  H       -3.0612710    -2.2783540    -0.7172980
  H        3.8686140    -0.8046650    -0.8491430
  H        3.8704280    -0.6765840     0.9253170
  H        4.4925120     0.6845290    -0.0653970
units angstrom
no_reorient  #important for SAPT in psi4, default
symmetry c1  #important for SAPT in psi4, default
}

set PROPERTIES_ORIGIN ["COM"]
properties('MP2/aug-cc-pvtz', properties = ['dipole'])
--------------------------------------------------------------------------

    Molecular point group: c1
  Charge       = 0
  Multiplicity = 1
  Basis Set: AUG-CC-PVTZ
    Blend: AUG-CC-PVTZ
  Basis Set: (AUG-CC-PVTZ AUX)
    Blend: AUG-CC-PVTZ-JKFIT

    Orbital Energies [Eh]
    ---------------------

    Doubly Occupied:

       1A    -20.602779     2A    -20.541830     3A    -15.563144
       4A    -11.385668     5A    -11.298428     6A    -11.284326
       7A    -11.258284     8A    -11.252089     9A    -11.250208
      10A    -11.239770    11A    -11.227621    12A    -11.223466
      13A     -1.454093    14A     -1.350030    15A     -1.245584
      16A     -1.142038    17A     -1.046008    18A     -1.009619
      19A     -0.968400    20A     -0.923173    21A     -0.864503
      22A     -0.808979    23A     -0.784260    24A     -0.728646
      25A     -0.700157    26A     -0.673390    27A     -0.668683
      28A     -0.660878    29A     -0.629204    30A     -0.616645
      31A     -0.611975    32A     -0.582945    33A     -0.576529
      34A     -0.555822    35A     -0.542098    36A     -0.535104
      37A     -0.524947    38A     -0.506002    39A     -0.501636
      40A     -0.465328    41A     -0.444684    42A     -0.427360
      43A     -0.349343    44A     -0.291706

  @DF-RHF Final Energy:  -551.60137709143714

   => Energetics <=

    Nuclear Repulsion Energy =            687.9791960994392639
    One-Electron Energy =               -2116.5263773207884697
    Two-Electron Energy =                 876.9458041299119486
    Total Energy =                       -551.6013770914371435
  Basis Set: (AUG-CC-PVTZ AUX)
    Blend: AUG-CC-PVTZ-RI
    Molecular point group: c1

    Geometry (in Angstrom), charge = 0, multiplicity = 1:

       Center              X                  Y                   Z               Mass
    ------------   -----------------  -----------------  -----------------  -----------------
         O            2.467690231080     0.523863426816    -0.054564692616    15.994914619570
         O            1.560098231080    -1.538660573184     0.089191307384    15.994914619570
         N           -1.133742768920    -1.708830573184    -0.151460692616    14.003074004430
         C           -1.111184768920    -0.339565573184    -0.050521692616    12.000000000000
         C            0.112141231080     0.390967426816    -0.028389692616    12.000000000000
         C           -2.315287368920     0.397197126816     0.002686307384    12.000000000000
         C            0.090517231080     1.794342426816     0.035509307384    12.000000000000
         C           -2.309969768920     1.787127426816     0.011524307384    12.000000000000
         C           -1.106112768920     2.497414426816     0.040300307384    12.000000000000
         C            1.406717231080    -0.318303573184     0.009753307384    12.000000000000
         C           -2.340348768920    -2.475202573184     0.073138307384    12.000000000000
         C            3.747242231080    -0.136544573184    -0.007115692616    12.000000000000
         H           -3.264719768920    -0.124376573184    -0.069496692616     1.007825032230
         H            1.036140231080     2.325436426816     0.063571307384     1.007825032230
         H           -0.244608768920    -2.158445573184     0.037684307384     1.007825032230
         H           -3.258806768920     2.319780426816     0.018658307384     1.007825032230
         H           -1.104043768920     3.582630426816     0.089442307384     1.007825032230
         H           -2.812522768920    -2.255086573184     1.040812307384     1.007825032230
         H           -2.075846768920    -3.533637573184     0.048092307384     1.007825032230
         H           -3.075834768920    -2.294999573184    -0.717764692616     1.007825032230
         H            3.854050231080    -0.821310573184    -0.849609692616     1.007825032230
         H            3.855864231080    -0.693229573184     0.924850307384     1.007825032230
         H            4.477948231080     0.667883426816    -0.065863692616     1.007825032230

  Basis Set: AUG-CC-PVTZ
    Blend: AUG-CC-PVTZ
  Basis Set: (AUG-CC-PVTZ AUX)
    Blend: AUG-CC-PVTZ-JKFIT
	 Reference Energy          =    -551.6013770914371435 [Eh]
	 Singles Energy            =      -0.0000000000000000 [Eh]
	 Same-Spin Energy          =      -0.5789280097111283 [Eh]
	 Opposite-Spin Energy      =      -1.7999165610773740 [Eh]
	 Correlation Energy        =      -2.3788445707885022 [Eh]
	 Total Energy              =    -553.9802216622256310 [Eh]

	 ================> DF-SCS-MP2 Energies <==================
	-----------------------------------------------------------
	 SCS Same-Spin Scale       =       0.3333333333333333 [-]
	 SCS Opposite-Spin Scale   =       1.2000000000000000 [-]
	 SCS Same-Spin Energy      =      -0.1929760032370428 [Eh]
	 SCS Opposite-Spin Energy  =      -2.1598998732928485 [Eh]
	 SCS Correlation Energy    =      -2.3528758765298914 [Eh]
	 SCS Total Energy          =    -553.9542529679670224 [Eh]
	-----------------------------------------------------------

  Dipole Moment: [D]
     X:    -0.1634      Y:    -0.0896      Z:     0.2908     Total:     0.3454

*** Psi4 exiting successfully. Buy a developer a beer!
