                               Psi4 1.4a2.dev612

  ==> Input File <==

--------------------------------------------------------------------------
#psi4
#
memory 32 gb

molecule  {
0 1
  O        2.4822540     0.5405090    -0.0540980
  O        1.5746620    -1.5220150     0.0896580
  N       -1.1191790    -1.6921850    -0.1509940
  C       -1.0966210    -0.3229200    -0.0500550
  C        0.1267050     0.4076130    -0.0279230
  C       -2.3003260     0.4165330    -0.0467730
  C        0.1050810     1.8109880     0.0359760
  C       -2.2954060     1.8037730     0.0119910
  C       -1.0915490     2.5140600     0.0407670
  C        1.4260201    -0.2962688    -0.1896512
  C       -2.3257850    -2.4585570     0.0736050
  C        3.7618060    -0.1198990    -0.0066490
  H       -3.2501560    -0.1077310    -0.0690300
  H        1.0507040     2.3420820     0.0640380
  H       -0.2300450    -2.1418000     0.0381510
  H       -3.2442430     2.3364260     0.0191250
  H       -1.0894800     3.5992760     0.0899090
  H       -2.7979590    -2.2384410     1.0412790
  H       -2.0612830    -3.5169920     0.0485590
  H       -3.0612710    -2.2783540    -0.7172980
  H        3.8686140    -0.8046650    -0.8491430
  H        3.8704280    -0.6765840     0.9253170
  H        4.4925120     0.6845290    -0.0653970
units angstrom
no_reorient  #important for SAPT in psi4, default
symmetry c1  #important for SAPT in psi4, default
}

set PROPERTIES_ORIGIN ["COM"]
properties('MP2/aug-cc-pvtz', properties = ['dipole'])
--------------------------------------------------------------------------

    Molecular point group: c1
  Charge       = 0
  Multiplicity = 1
  Basis Set: AUG-CC-PVTZ
    Blend: AUG-CC-PVTZ
  Basis Set: (AUG-CC-PVTZ AUX)
    Blend: AUG-CC-PVTZ-JKFIT

    Orbital Energies [Eh]
    ---------------------

    Doubly Occupied:

       1A    -20.606151     2A    -20.541175     3A    -15.562268
       4A    -11.391900     5A    -11.298139     6A    -11.285308
       7A    -11.257878     8A    -11.251520     9A    -11.249855
      10A    -11.242552    11A    -11.227612    12A    -11.223637
      13A     -1.451265    14A     -1.334441    15A     -1.244582
      16A     -1.141861    17A     -1.045186    18A     -1.009479
      19A     -0.969774    20A     -0.922805    21A     -0.863311
      22A     -0.808897    23A     -0.785297    24A     -0.727178
      25A     -0.698721    26A     -0.669829    27A     -0.668133
      28A     -0.658905    29A     -0.629515    30A     -0.615161
      31A     -0.611280    32A     -0.582723    33A     -0.574928
      34A     -0.552294    35A     -0.541302    36A     -0.533950
      37A     -0.523105    38A     -0.506088    39A     -0.500541
      40A     -0.459587    41A     -0.442811    42A     -0.427066
      43A     -0.348040    44A     -0.290934

  @DF-RHF Final Energy:  -551.58037589963897

   => Energetics <=

    Nuclear Repulsion Energy =            687.2598440853259945
    One-Electron Energy =               -2115.1264746465435564
    Two-Electron Energy =                 876.2862546615785959
    Total Energy =                       -551.5803758996389661
  Basis Set: (AUG-CC-PVTZ AUX)
    Blend: AUG-CC-PVTZ-RI
    Molecular point group: c1

    Geometry (in Angstrom), charge = 0, multiplicity = 1:

       Center              X                  Y                   Z               Mass
    ------------   -----------------  -----------------  -----------------  -----------------
         O            2.467316831629     0.523276107941    -0.036406315181    15.994914619570
         O            1.559724831629    -1.539247892059     0.107349684819    15.994914619570
         N           -1.134116168371    -1.709417892059    -0.133302315181    14.003074004430
         C           -1.111558168371    -0.340152892059    -0.032363315181    12.000000000000
         C            0.111767831629     0.390380107941    -0.010231315181    12.000000000000
         C           -2.315263168371     0.399300107941    -0.029081315181    12.000000000000
         C            0.090143831629     1.793755107941     0.053667684819    12.000000000000
         C           -2.310343168371     1.786540107941     0.029682684819    12.000000000000
         C           -1.106486168371     2.496827107941     0.058458684819    12.000000000000
         C            1.411082931629    -0.313501692059    -0.171959515181    12.000000000000
         C           -2.340722168371    -2.475789892059     0.091296684819    12.000000000000
         C            3.746868831629    -0.137131892059     0.011042684819    12.000000000000
         H           -3.265093168371    -0.124963892059    -0.051338315181     1.007825032230
         H            1.035766831629     2.324849107941     0.081729684819     1.007825032230
         H           -0.244982168371    -2.159032892059     0.055842684819     1.007825032230
         H           -3.259180168371     2.319193107941     0.036816684819     1.007825032230
         H           -1.104417168371     3.582043107941     0.107600684819     1.007825032230
         H           -2.812896168371    -2.255673892059     1.058970684819     1.007825032230
         H           -2.076220168371    -3.534224892059     0.066250684819     1.007825032230
         H           -3.076208168371    -2.295586892059    -0.699606315181     1.007825032230
         H            3.853676831629    -0.821897892059    -0.831451315181     1.007825032230
         H            3.855490831629    -0.693816892059     0.943008684819     1.007825032230
         H            4.477574831629     0.667296107941    -0.047705315181     1.007825032230

  Basis Set: AUG-CC-PVTZ
    Blend: AUG-CC-PVTZ
  Basis Set: (AUG-CC-PVTZ AUX)
    Blend: AUG-CC-PVTZ-JKFIT
	 Reference Energy          =    -551.5803758996389661 [Eh]
	 Singles Energy            =      -0.0000000000000000 [Eh]
	 Same-Spin Energy          =      -0.5803893467963546 [Eh]
	 Opposite-Spin Energy      =      -1.8031449948994398 [Eh]
	 Correlation Energy        =      -2.3835343416957944 [Eh]
	 Total Energy              =    -553.9639102413348155 [Eh]

	 ================> DF-SCS-MP2 Energies <==================
	-----------------------------------------------------------
	 SCS Same-Spin Scale       =       0.3333333333333333 [-]
	 SCS Opposite-Spin Scale   =       1.2000000000000000 [-]
	 SCS Same-Spin Energy      =      -0.1934631155987848 [Eh]
	 SCS Opposite-Spin Energy  =      -2.1637739938793277 [Eh]
	 SCS Correlation Energy    =      -2.3572371094781124 [Eh]
	 SCS Total Energy          =    -553.9376130091170580 [Eh]
	-----------------------------------------------------------

  Dipole Moment: [D]
     X:    -0.0854      Y:    -0.0468      Z:     0.1001     Total:     0.1396

*** Psi4 exiting successfully. Buy a developer a beer!
