                               Psi4 1.4a2.dev612

  ==> Input File <==

--------------------------------------------------------------------------
#psi4
#
memory 32 gb

molecule  {
0 1
  O        2.4822540     0.5405090    -0.0540980
  O        1.5746620    -1.5220150     0.0896580
  N       -1.1191790    -1.6921850    -0.1509940
  C       -1.0966210    -0.3229200    -0.0500550
  C        0.1263377     0.4042974    -0.0778116
  C       -2.3003260     0.4165330    -0.0467730
  C        0.1050810     1.8109880     0.0359760
  C       -2.2954060     1.8037730     0.0119910
  C       -1.0915490     2.5140600     0.0407670
  C        1.4212810    -0.3016580     0.0102200
  C       -2.3257850    -2.4585570     0.0736050
  C        3.7618060    -0.1198990    -0.0066490
  H       -3.2501560    -0.1077310    -0.0690300
  H        1.0507040     2.3420820     0.0640380
  H       -0.2300450    -2.1418000     0.0381510
  H       -3.2442430     2.3364260     0.0191250
  H       -1.0894800     3.5992760     0.0899090
  H       -2.7979590    -2.2384410     1.0412790
  H       -2.0612830    -3.5169920     0.0485590
  H       -3.0612710    -2.2783540    -0.7172980
  H        3.8686140    -0.8046650    -0.8491430
  H        3.8704280    -0.6765840     0.9253170
  H        4.4925120     0.6845290    -0.0653970
units angstrom
no_reorient  #important for SAPT in psi4, default
symmetry c1  #important for SAPT in psi4, default
}

set PROPERTIES_ORIGIN ["COM"]
properties('MP2/aug-cc-pvtz', properties = ['dipole'])
--------------------------------------------------------------------------

    Molecular point group: c1
  Charge       = 0
  Multiplicity = 1
  Basis Set: AUG-CC-PVTZ
    Blend: AUG-CC-PVTZ
  Basis Set: (AUG-CC-PVTZ AUX)
    Blend: AUG-CC-PVTZ-JKFIT

    Orbital Energies [Eh]
    ---------------------

    Doubly Occupied:

       1A    -20.602600     2A    -20.541592     3A    -15.563035
       4A    -11.385521     5A    -11.298243     6A    -11.284214
       7A    -11.258290     8A    -11.252071     9A    -11.250756
      10A    -11.239888    11A    -11.227799    12A    -11.223586
      13A     -1.453893    14A     -1.349828    15A     -1.245671
      16A     -1.141675    17A     -1.045763    18A     -1.009727
      19A     -0.968300    20A     -0.922989    21A     -0.864475
      22A     -0.808842    23A     -0.784099    24A     -0.728333
      25A     -0.699632    26A     -0.673324    27A     -0.668449
      28A     -0.660977    29A     -0.629339    30A     -0.616425
      31A     -0.612128    32A     -0.582589    33A     -0.576230
      34A     -0.555830    35A     -0.542055    36A     -0.534967
      37A     -0.524921    38A     -0.506327    39A     -0.501144
      40A     -0.465170    41A     -0.444498    42A     -0.427562
      43A     -0.348894    44A     -0.291834

  @DF-RHF Final Energy:  -551.60031377092571

   => Energetics <=

    Nuclear Repulsion Energy =            687.9247196765867329
    One-Electron Energy =               -2116.4231008650695003
    Two-Electron Energy =                 876.8980674175569447
    Total Energy =                       -551.6003137709257089
  Basis Set: (AUG-CC-PVTZ AUX)
    Blend: AUG-CC-PVTZ-RI
    Molecular point group: c1

    Geometry (in Angstrom), charge = 0, multiplicity = 1:

       Center              X                  Y                   Z               Mass
    ------------   -----------------  -----------------  -----------------  -----------------
         O            2.467688028498     0.523908881423    -0.047308922013    15.994914619570
         O            1.560096028498    -1.538615118577     0.096447077987    15.994914619570
         N           -1.133744971502    -1.708785118577    -0.144204922013    14.003074004430
         C           -1.111186971502    -0.339520118577    -0.043265922013    12.000000000000
         C            0.111771728498     0.387697281423    -0.071022522013    12.000000000000
         C           -2.314891971502     0.399932881423    -0.039983922013    12.000000000000
         C            0.090515028498     1.794387881423     0.042765077987    12.000000000000
         C           -2.309971971502     1.787172881423     0.018780077987    12.000000000000
         C           -1.106114971502     2.497459881423     0.047556077987    12.000000000000
         C            1.406715028498    -0.318258118577     0.017009077987    12.000000000000
         C           -2.340350971502    -2.475157118577     0.080394077987    12.000000000000
         C            3.747240028498    -0.136499118577     0.000140077987    12.000000000000
         H           -3.264721971502    -0.124331118577    -0.062240922013     1.007825032230
         H            1.036138028498     2.325481881423     0.070827077987     1.007825032230
         H           -0.244610971502    -2.158400118577     0.044940077987     1.007825032230
         H           -3.258808971502     2.319825881423     0.025914077987     1.007825032230
         H           -1.104045971502     3.582675881423     0.096698077987     1.007825032230
         H           -2.812524971502    -2.255041118577     1.048068077987     1.007825032230
         H           -2.075848971502    -3.533592118577     0.055348077987     1.007825032230
         H           -3.075836971502    -2.294954118577    -0.710508922013     1.007825032230
         H            3.854048028498    -0.821265118577    -0.842353922013     1.007825032230
         H            3.855862028498    -0.693184118577     0.932106077987     1.007825032230
         H            4.477946028498     0.667928881423    -0.058607922013     1.007825032230

  Basis Set: AUG-CC-PVTZ
    Blend: AUG-CC-PVTZ
  Basis Set: (AUG-CC-PVTZ AUX)
    Blend: AUG-CC-PVTZ-JKFIT
	 Reference Energy          =    -551.6003137709257089 [Eh]
	 Singles Energy            =      -0.0000000000000000 [Eh]
	 Same-Spin Energy          =      -0.5789395763968312 [Eh]
	 Opposite-Spin Energy      =      -1.7997857224293634 [Eh]
	 Correlation Energy        =      -2.3787252988261947 [Eh]
	 Total Energy              =    -553.9790390697519342 [Eh]

	 ================> DF-SCS-MP2 Energies <==================
	-----------------------------------------------------------
	 SCS Same-Spin Scale       =       0.3333333333333333 [-]
	 SCS Opposite-Spin Scale   =       1.2000000000000000 [-]
	 SCS Same-Spin Energy      =      -0.1929798587989437 [Eh]
	 SCS Opposite-Spin Energy  =      -2.1597428669152361 [Eh]
	 SCS Correlation Energy    =      -2.3527227257141798 [Eh]
	 SCS Total Energy          =    -553.9530364966399247 [Eh]
	-----------------------------------------------------------

  Dipole Moment: [D]
     X:    -0.1853      Y:    -0.0890      Z:     0.3390     Total:     0.3965

*** Psi4 exiting successfully. Buy a developer a beer!
