                               Psi4 1.4a2.dev612

  ==> Input File <==

--------------------------------------------------------------------------
#psi4
#
memory 32 gb

molecule  {
0 1
  O        2.4822540     0.5405090    -0.0540980
  O        1.5746620    -1.5220150     0.0896580
  N       -1.1191790    -1.6921850    -0.1509940
  C       -1.0966210    -0.3229200    -0.0500550
  C        0.1267050     0.4076130    -0.0279230
  C       -2.3015189     0.4084622     0.1030050
  C        0.1050810     1.8109880     0.0359760
  C       -2.2954060     1.8037730     0.0119910
  C       -1.0915490     2.5140600     0.0407670
  C        1.4212810    -0.3016580     0.0102200
  C       -2.3257850    -2.4585570     0.0736050
  C        3.7618060    -0.1198990    -0.0066490
  H       -3.2501560    -0.1077310    -0.0690300
  H        1.0507040     2.3420820     0.0640380
  H       -0.2300450    -2.1418000     0.0381510
  H       -3.2442430     2.3364260     0.0191250
  H       -1.0894800     3.5992760     0.0899090
  H       -2.7979590    -2.2384410     1.0412790
  H       -2.0612830    -3.5169920     0.0485590
  H       -3.0612710    -2.2783540    -0.7172980
  H        3.8686140    -0.8046650    -0.8491430
  H        3.8704280    -0.6765840     0.9253170
  H        4.4925120     0.6845290    -0.0653970
units angstrom
no_reorient  #important for SAPT in psi4, default
symmetry c1  #important for SAPT in psi4, default
}

set PROPERTIES_ORIGIN ["COM"]
properties('MP2/aug-cc-pvtz', properties = ['dipole'])
--------------------------------------------------------------------------

    Molecular point group: c1
  Charge       = 0
  Multiplicity = 1
  Basis Set: AUG-CC-PVTZ
    Blend: AUG-CC-PVTZ
  Basis Set: (AUG-CC-PVTZ AUX)
    Blend: AUG-CC-PVTZ-JKFIT

    Orbital Energies [Eh]
    ---------------------

    Doubly Occupied:

       1A    -20.602903     2A    -20.541923     3A    -15.563624
       4A    -11.385824     5A    -11.299595     6A    -11.284431
       7A    -11.258079     8A    -11.253898     9A    -11.251408
      10A    -11.239847    11A    -11.228714    12A    -11.223580
      13A     -1.454220    14A     -1.350148    15A     -1.245639
      16A     -1.141726    17A     -1.045481    18A     -1.009177
      19A     -0.968316    20A     -0.923187    21A     -0.864064
      22A     -0.808333    23A     -0.784076    24A     -0.728266
      25A     -0.700573    26A     -0.673294    27A     -0.668856
      28A     -0.660694    29A     -0.628153    30A     -0.616627
      31A     -0.611548    32A     -0.581829    33A     -0.576274
      34A     -0.555788    35A     -0.541963    36A     -0.534768
      37A     -0.525042    38A     -0.505713    39A     -0.499908
      40A     -0.465427    41A     -0.444686    42A     -0.426621
      43A     -0.349078    44A     -0.292389

  @DF-RHF Final Energy:  -551.59654204109790

   => Energetics <=

    Nuclear Repulsion Energy =            687.7856613763783571
    One-Electron Energy =               -2116.1330271216274923
    Two-Electron Energy =                 876.7508237041512302
    Total Energy =                       -551.5965420410979050
  Basis Set: (AUG-CC-PVTZ AUX)
    Blend: AUG-CC-PVTZ-RI
    Molecular point group: c1

    Geometry (in Angstrom), charge = 0, multiplicity = 1:

       Center              X                  Y                   Z               Mass
    ------------   -----------------  -----------------  -----------------  -----------------
         O            2.467748043408     0.524254548693    -0.061823181917    15.994914619570
         O            1.560156043408    -1.538269451307     0.081932818083    15.994914619570
         N           -1.133684956592    -1.708439451307    -0.158719181917    14.003074004430
         C           -1.111126956592    -0.339174451307    -0.057780181917    12.000000000000
         C            0.112199043408     0.391358548693    -0.035648181917    12.000000000000
         C           -2.316024856592     0.392207748693     0.095279818083    12.000000000000
         C            0.090575043408     1.794733548693     0.028250818083    12.000000000000
         C           -2.309911956592     1.787518548693     0.004265818083    12.000000000000
         C           -1.106054956592     2.497805548693     0.033041818083    12.000000000000
         C            1.406775043408    -0.317912451307     0.002494818083    12.000000000000
         C           -2.340290956592    -2.474811451307     0.065879818083    12.000000000000
         C            3.747300043408    -0.136153451307    -0.014374181917    12.000000000000
         H           -3.264661956592    -0.123985451307    -0.076755181917     1.007825032230
         H            1.036198043408     2.325827548693     0.056312818083     1.007825032230
         H           -0.244550956592    -2.158054451307     0.030425818083     1.007825032230
         H           -3.258748956592     2.320171548693     0.011399818083     1.007825032230
         H           -1.103985956592     3.583021548693     0.082183818083     1.007825032230
         H           -2.812464956592    -2.254695451307     1.033553818083     1.007825032230
         H           -2.075788956592    -3.533246451307     0.040833818083     1.007825032230
         H           -3.075776956592    -2.294608451307    -0.725023181917     1.007825032230
         H            3.854108043408    -0.820919451307    -0.856868181917     1.007825032230
         H            3.855922043408    -0.692838451307     0.917591818083     1.007825032230
         H            4.478006043408     0.668274548693    -0.073122181917     1.007825032230

  Basis Set: AUG-CC-PVTZ
    Blend: AUG-CC-PVTZ
  Basis Set: (AUG-CC-PVTZ AUX)
    Blend: AUG-CC-PVTZ-JKFIT
	 Reference Energy          =    -551.5965420410979050 [Eh]
	 Singles Energy            =      -0.0000000000000000 [Eh]
	 Same-Spin Energy          =      -0.5791025159969808 [Eh]
	 Opposite-Spin Energy      =      -1.8003777399734915 [Eh]
	 Correlation Energy        =      -2.3794802559704724 [Eh]
	 Total Energy              =    -553.9760222970684254 [Eh]

	 ================> DF-SCS-MP2 Energies <==================
	-----------------------------------------------------------
	 SCS Same-Spin Scale       =       0.3333333333333333 [-]
	 SCS Opposite-Spin Scale   =       1.2000000000000000 [-]
	 SCS Same-Spin Energy      =      -0.1930341719989936 [Eh]
	 SCS Opposite-Spin Energy  =      -2.1604532879681897 [Eh]
	 SCS Correlation Energy    =      -2.3534874599671833 [Eh]
	 SCS Total Energy          =    -553.9500295010650461 [Eh]
	-----------------------------------------------------------

  Dipole Moment: [D]
     X:    -0.1161      Y:    -0.0792      Z:     0.2164     Total:     0.2581

*** Psi4 exiting successfully. Buy a developer a beer!
