                               Psi4 1.4a2.dev612

  ==> Input File <==

--------------------------------------------------------------------------
#psi4
#
memory 32 gb

molecule  {
0 1
  O        2.4822540     0.5405090    -0.0540980
  O        1.5746620    -1.5220150     0.0896580
  N       -1.1191790    -1.6921850    -0.1509940
  C       -1.0966210    -0.3229200    -0.0500550
  C        0.1267050     0.4076130    -0.0279230
  C       -2.3019166     0.4057719     0.1529310
  C        0.1050810     1.8109880     0.0359760
  C       -2.2954060     1.8037730     0.0119910
  C       -1.0915490     2.5140600     0.0407670
  C        1.4212810    -0.3016580     0.0102200
  C       -2.3257850    -2.4585570     0.0736050
  C        3.7618060    -0.1198990    -0.0066490
  H       -3.2501560    -0.1077310    -0.0690300
  H        1.0507040     2.3420820     0.0640380
  H       -0.2300450    -2.1418000     0.0381510
  H       -3.2442430     2.3364260     0.0191250
  H       -1.0894800     3.5992760     0.0899090
  H       -2.7979590    -2.2384410     1.0412790
  H       -2.0612830    -3.5169920     0.0485590
  H       -3.0612710    -2.2783540    -0.7172980
  H        3.8686140    -0.8046650    -0.8491430
  H        3.8704280    -0.6765840     0.9253170
  H        4.4925120     0.6845290    -0.0653970
units angstrom
no_reorient  #important for SAPT in psi4, default
symmetry c1  #important for SAPT in psi4, default
}

set PROPERTIES_ORIGIN ["COM"]
properties('MP2/aug-cc-pvtz', properties = ['dipole'])
--------------------------------------------------------------------------

    Molecular point group: c1
  Charge       = 0
  Multiplicity = 1
  Basis Set: AUG-CC-PVTZ
    Blend: AUG-CC-PVTZ
  Basis Set: (AUG-CC-PVTZ AUX)
    Blend: AUG-CC-PVTZ-JKFIT

    Orbital Energies [Eh]
    ---------------------

    Doubly Occupied:

       1A    -20.603010     2A    -20.541996     3A    -15.564109
       4A    -11.385942     5A    -11.300684     6A    -11.284522
       7A    -11.257972     8A    -11.255348     9A    -11.252406
      10A    -11.239915    11A    -11.229739    12A    -11.223660
      13A     -1.454328    14A     -1.350248    15A     -1.245716
      16A     -1.141491    17A     -1.045066    18A     -1.008741
      19A     -0.968254    20A     -0.923194    21A     -0.863660
      22A     -0.807809    23A     -0.783926    24A     -0.727956
      25A     -0.700889    26A     -0.673186    27A     -0.668982
      28A     -0.660593    29A     -0.627411    30A     -0.616343
      31A     -0.611029    32A     -0.581078    33A     -0.575975
      34A     -0.555797    35A     -0.541873    36A     -0.534439
      37A     -0.524929    38A     -0.505994    39A     -0.497893
      40A     -0.465513    41A     -0.444693    42A     -0.426065
      43A     -0.348918    44A     -0.292892

  @DF-RHF Final Energy:  -551.59199059170408

   => Energetics <=

    Nuclear Repulsion Energy =            687.6015366850182318
    One-Electron Energy =               -2115.7586914517682999
    Two-Electron Energy =                 876.5651641750458793
    Total Energy =                       -551.5919905917040751
  Basis Set: (AUG-CC-PVTZ AUX)
    Blend: AUG-CC-PVTZ-RI
    Molecular point group: c1

    Geometry (in Angstrom), charge = 0, multiplicity = 1:

       Center              X                  Y                   Z               Mass
    ------------   -----------------  -----------------  -----------------  -----------------
         O            2.467776953206     0.524450113267    -0.065452426568    15.994914619570
         O            1.560184953206    -1.538073886733     0.078303573432    15.994914619570
         N           -1.133656046794    -1.708243886733    -0.162348426568    14.003074004430
         C           -1.111098046794    -0.338978886733    -0.061409426568    12.000000000000
         C            0.112227953206     0.391554113267    -0.039277426568    12.000000000000
         C           -2.316393646794     0.389713013267     0.141576573432    12.000000000000
         C            0.090603953206     1.794929113267     0.024621573432    12.000000000000
         C           -2.309883046794     1.787714113267     0.000636573432    12.000000000000
         C           -1.106026046794     2.498001113267     0.029412573432    12.000000000000
         C            1.406803953206    -0.317716886733    -0.001134426568    12.000000000000
         C           -2.340262046794    -2.474615886733     0.062250573432    12.000000000000
         C            3.747328953206    -0.135957886733    -0.018003426568    12.000000000000
         H           -3.264633046794    -0.123789886733    -0.080384426568     1.007825032230
         H            1.036226953206     2.326023113267     0.052683573432     1.007825032230
         H           -0.244522046794    -2.157858886733     0.026796573432     1.007825032230
         H           -3.258720046794     2.320367113267     0.007770573432     1.007825032230
         H           -1.103957046794     3.583217113267     0.078554573432     1.007825032230
         H           -2.812436046794    -2.254499886733     1.029924573432     1.007825032230
         H           -2.075760046794    -3.533050886733     0.037204573432     1.007825032230
         H           -3.075748046794    -2.294412886733    -0.728652426568     1.007825032230
         H            3.854136953206    -0.820723886733    -0.860497426568     1.007825032230
         H            3.855950953206    -0.692642886733     0.913962573432     1.007825032230
         H            4.478034953206     0.668470113267    -0.076751426568     1.007825032230

  Basis Set: AUG-CC-PVTZ
    Blend: AUG-CC-PVTZ
  Basis Set: (AUG-CC-PVTZ AUX)
    Blend: AUG-CC-PVTZ-JKFIT
	 Reference Energy          =    -551.5919905917040751 [Eh]
	 Singles Energy            =      -0.0000000000000000 [Eh]
	 Same-Spin Energy          =      -0.5792530504268240 [Eh]
	 Opposite-Spin Energy      =      -1.8009178089370952 [Eh]
	 Correlation Energy        =      -2.3801708593639193 [Eh]
	 Total Energy              =    -553.9721614510680183 [Eh]

	 ================> DF-SCS-MP2 Energies <==================
	-----------------------------------------------------------
	 SCS Same-Spin Scale       =       0.3333333333333333 [-]
	 SCS Opposite-Spin Scale   =       1.2000000000000000 [-]
	 SCS Same-Spin Energy      =      -0.1930843501422747 [Eh]
	 SCS Opposite-Spin Energy  =      -2.1611013707245141 [Eh]
	 SCS Correlation Energy    =      -2.3541857208667887 [Eh]
	 SCS Total Energy          =    -553.9461763125708558 [Eh]
	-----------------------------------------------------------

  Dipole Moment: [D]
     X:    -0.0769      Y:    -0.0741      Z:     0.1773     Total:     0.2070

*** Psi4 exiting successfully. Buy a developer a beer!
