                               Psi4 1.4a2.dev612

  ==> Input File <==

--------------------------------------------------------------------------
#psi4
#
memory 32 gb

molecule  {
0 1
  O        2.4822540     0.5405090    -0.0540980
  O        1.5746620    -1.5220150     0.0896580
  N       -1.1191790    -1.6921850    -0.1509940
  C       -1.0966210    -0.3229200    -0.0500550
  C        0.1267050     0.4076130    -0.0279230
  C       -2.3003260     0.4165330    -0.0467730
  C        0.1050810     1.8109880     0.0359760
  C       -2.2954060     1.8037730     0.0119910
  C       -1.0915490     2.5140600     0.0407670
  C        1.4224658    -0.3003107    -0.0397478
  C       -2.3257850    -2.4585570     0.0736050
  C        3.7618060    -0.1198990    -0.0066490
  H       -3.2501560    -0.1077310    -0.0690300
  H        1.0507040     2.3420820     0.0640380
  H       -0.2300450    -2.1418000     0.0381510
  H       -3.2442430     2.3364260     0.0191250
  H       -1.0894800     3.5992760     0.0899090
  H       -2.7979590    -2.2384410     1.0412790
  H       -2.0612830    -3.5169920     0.0485590
  H       -3.0612710    -2.2783540    -0.7172980
  H        3.8686140    -0.8046650    -0.8491430
  H        3.8704280    -0.6765840     0.9253170
  H        4.4925120     0.6845290    -0.0653970
units angstrom
no_reorient  #important for SAPT in psi4, default
symmetry c1  #important for SAPT in psi4, default
}

set PROPERTIES_ORIGIN ["COM"]
properties('MP2/aug-cc-pvtz', properties = ['dipole'])
--------------------------------------------------------------------------

    Molecular point group: c1
  Charge       = 0
  Multiplicity = 1
  Basis Set: AUG-CC-PVTZ
    Blend: AUG-CC-PVTZ
  Basis Set: (AUG-CC-PVTZ AUX)
    Blend: AUG-CC-PVTZ-JKFIT

    Orbital Energies [Eh]
    ---------------------

    Doubly Occupied:

       1A    -20.603793     2A    -20.540995     3A    -15.562878
       4A    -11.386203     5A    -11.298326     6A    -11.284807
       7A    -11.258229     8A    -11.251718     9A    -11.250022
      10A    -11.239950    11A    -11.227555    12A    -11.223442
      13A     -1.454416    14A     -1.347597    15A     -1.245358
      16A     -1.142068    17A     -1.046203    18A     -1.009590
      19A     -0.969222    20A     -0.923112    21A     -0.864507
      22A     -0.809044    23A     -0.784602    24A     -0.728897
      25A     -0.699782    26A     -0.672878    27A     -0.669145
      28A     -0.660691    29A     -0.629496    30A     -0.616188
      31A     -0.611746    32A     -0.583095    33A     -0.576510
      34A     -0.555312    35A     -0.541997    36A     -0.534964
      37A     -0.524589    38A     -0.506697    39A     -0.501045
      40A     -0.464690    41A     -0.444417    42A     -0.427424
      43A     -0.349288    44A     -0.291408

  @DF-RHF Final Energy:  -551.60037064995163

   => Energetics <=

    Nuclear Repulsion Energy =            687.9366778402621776
    One-Electron Energy =               -2116.4463089412561203
    Two-Electron Energy =                 876.9092604510422007
    Total Energy =                       -551.6003706499516284
  Basis Set: (AUG-CC-PVTZ AUX)
    Blend: AUG-CC-PVTZ-RI
    Molecular point group: c1

    Geometry (in Angstrom), charge = 0, multiplicity = 1:

       Center              X                  Y                   Z               Mass
    ------------   -----------------  -----------------  -----------------  -----------------
         O            2.467575202503     0.523569923668    -0.047303164769    15.994914619570
         O            1.559983202503    -1.538954076332     0.096452835231    15.994914619570
         N           -1.133857797497    -1.709124076332    -0.144199164769    14.003074004430
         C           -1.111299797497    -0.339859076332    -0.043260164769    12.000000000000
         C            0.112026202503     0.390673923668    -0.021128164769    12.000000000000
         C           -2.315004797497     0.399593923668    -0.039978164769    12.000000000000
         C            0.090402202503     1.794048923668     0.042770835231    12.000000000000
         C           -2.310084797497     1.786833923668     0.018785835231    12.000000000000
         C           -1.106227797497     2.497120923668     0.047561835231    12.000000000000
         C            1.407787002503    -0.317249776332    -0.032952964769    12.000000000000
         C           -2.340463797497    -2.475496076332     0.080399835231    12.000000000000
         C            3.747127202503    -0.136838076332     0.000145835231    12.000000000000
         H           -3.264834797497    -0.124670076332    -0.062235164769     1.007825032230
         H            1.036025202503     2.325142923668     0.070832835231     1.007825032230
         H           -0.244723797497    -2.158739076332     0.044945835231     1.007825032230
         H           -3.258921797497     2.319486923668     0.025919835231     1.007825032230
         H           -1.104158797497     3.582336923668     0.096703835231     1.007825032230
         H           -2.812637797497    -2.255380076332     1.048073835231     1.007825032230
         H           -2.075961797497    -3.533931076332     0.055353835231     1.007825032230
         H           -3.075949797497    -2.295293076332    -0.710503164769     1.007825032230
         H            3.853935202503    -0.821604076332    -0.842348164769     1.007825032230
         H            3.855749202503    -0.693523076332     0.932111835231     1.007825032230
         H            4.477833202503     0.667589923668    -0.058602164769     1.007825032230

  Basis Set: AUG-CC-PVTZ
    Blend: AUG-CC-PVTZ
  Basis Set: (AUG-CC-PVTZ AUX)
    Blend: AUG-CC-PVTZ-JKFIT
	 Reference Energy          =    -551.6003706499516284 [Eh]
	 Singles Energy            =      -0.0000000000000000 [Eh]
	 Same-Spin Energy          =      -0.5790316815010158 [Eh]
	 Opposite-Spin Energy      =      -1.8000798021645257 [Eh]
	 Correlation Energy        =      -2.3791114836655414 [Eh]
	 Total Energy              =    -553.9794821336171253 [Eh]

	 ================> DF-SCS-MP2 Energies <==================
	-----------------------------------------------------------
	 SCS Same-Spin Scale       =       0.3333333333333333 [-]
	 SCS Opposite-Spin Scale   =       1.2000000000000000 [-]
	 SCS Same-Spin Energy      =      -0.1930105605003386 [Eh]
	 SCS Opposite-Spin Energy  =      -2.1600957625974306 [Eh]
	 SCS Correlation Energy    =      -2.3531063230977693 [Eh]
	 SCS Total Energy          =    -553.9534769730494190 [Eh]
	-----------------------------------------------------------

  Dipole Moment: [D]
     X:    -0.1428      Y:    -0.0730      Z:     0.2665     Total:     0.3110

*** Psi4 exiting successfully. Buy a developer a beer!
