                               Psi4 1.4a2.dev612

  ==> Input File <==

--------------------------------------------------------------------------
#psi4
#
memory 32 gb

molecule  {
0 1
  O        2.4822540     0.5405090    -0.0540980
  O        1.5746620    -1.5220150     0.0896580
  N       -1.1191790    -1.6921850    -0.1509940
  C       -1.0966210    -0.3229200    -0.0500550
  C        0.1248685     0.3910352    -0.2773660
  C       -2.3003260     0.4165330    -0.0467730
  C        0.1050810     1.8109880     0.0359760
  C       -2.2954060     1.8037730     0.0119910
  C       -1.0915490     2.5140600     0.0407670
  C        1.4212810    -0.3016580     0.0102200
  C       -2.3257850    -2.4585570     0.0736050
  C        3.7618060    -0.1198990    -0.0066490
  H       -3.2501560    -0.1077310    -0.0690300
  H        1.0507040     2.3420820     0.0640380
  H       -0.2300450    -2.1418000     0.0381510
  H       -3.2442430     2.3364260     0.0191250
  H       -1.0894800     3.5992760     0.0899090
  H       -2.7979590    -2.2384410     1.0412790
  H       -2.0612830    -3.5169920     0.0485590
  H       -3.0612710    -2.2783540    -0.7172980
  H        3.8686140    -0.8046650    -0.8491430
  H        3.8704280    -0.6765840     0.9253170
  H        4.4925120     0.6845290    -0.0653970
units angstrom
no_reorient  #important for SAPT in psi4, default
symmetry c1  #important for SAPT in psi4, default
}

set PROPERTIES_ORIGIN ["COM"]
properties('MP2/aug-cc-pvtz', properties = ['dipole'])
--------------------------------------------------------------------------

    Molecular point group: c1
  Charge       = 0
  Multiplicity = 1
  Basis Set: AUG-CC-PVTZ
    Blend: AUG-CC-PVTZ
  Basis Set: (AUG-CC-PVTZ AUX)
    Blend: AUG-CC-PVTZ-JKFIT

    Orbital Energies [Eh]
    ---------------------

    Doubly Occupied:

       1A    -20.601329     2A    -20.540284     3A    -15.564183
       4A    -11.385268     5A    -11.300707     6A    -11.283388
       7A    -11.258545     8A    -11.255774     9A    -11.255045
      10A    -11.243124    11A    -11.228813    12A    -11.224156
      13A     -1.452331    14A     -1.348455    15A     -1.246392
      16A     -1.138693    17A     -1.041513    18A     -1.009621
      19A     -0.966930    20A     -0.922294    21A     -0.862592
      22A     -0.805630    23A     -0.781735    24A     -0.724867
      25A     -0.697129    26A     -0.672629    27A     -0.666917
      28A     -0.659818    29A     -0.629663    30A     -0.616893
      31A     -0.612561    32A     -0.578869    33A     -0.573490
      34A     -0.553953    35A     -0.541837    36A     -0.533935
      37A     -0.525544    38A     -0.502580    39A     -0.499014
      40A     -0.463930    41A     -0.441245    42A     -0.426580
      43A     -0.346520    44A     -0.293608

  @DF-RHF Final Energy:  -551.57955384314937

   => Energetics <=

    Nuclear Repulsion Energy =            686.9626259729483309
    One-Electron Energy =               -2114.5275873224986753
    Two-Electron Energy =                 875.9854075064008612
    Total Energy =                       -551.5795538431493696
  Basis Set: (AUG-CC-PVTZ AUX)
    Blend: AUG-CC-PVTZ-RI
    Molecular point group: c1

    Geometry (in Angstrom), charge = 0, multiplicity = 1:

       Center              X                  Y                   Z               Mass
    ------------   -----------------  -----------------  -----------------  -----------------
         O            2.467794828286     0.524872943603    -0.032802818206    15.994914619570
         O            1.560202828286    -1.537651056397     0.110953181794    15.994914619570
         N           -1.133638171714    -1.707821056397    -0.129698818206    14.003074004430
         C           -1.111080171714    -0.338556056397    -0.028759818206    12.000000000000
         C            0.110409328286     0.375399143603    -0.256070818206    12.000000000000
         C           -2.314785171714     0.400896943603    -0.025477818206    12.000000000000
         C            0.090621828286     1.795351943603     0.057271181794    12.000000000000
         C           -2.309865171714     1.788136943603     0.033286181794    12.000000000000
         C           -1.106008171714     2.498423943603     0.062062181794    12.000000000000
         C            1.406821828286    -0.317294056397     0.031515181794    12.000000000000
         C           -2.340244171714    -2.474193056397     0.094900181794    12.000000000000
         C            3.747346828286    -0.135535056397     0.014646181794    12.000000000000
         H           -3.264615171714    -0.123367056397    -0.047734818206     1.007825032230
         H            1.036244828286     2.326445943603     0.085333181794     1.007825032230
         H           -0.244504171714    -2.157436056397     0.059446181794     1.007825032230
         H           -3.258702171714     2.320789943603     0.040420181794     1.007825032230
         H           -1.103939171714     3.583639943603     0.111204181794     1.007825032230
         H           -2.812418171714    -2.254077056397     1.062574181794     1.007825032230
         H           -2.075742171714    -3.532628056397     0.069854181794     1.007825032230
         H           -3.075730171714    -2.293990056397    -0.696002818206     1.007825032230
         H            3.854154828286    -0.820301056397    -0.827847818206     1.007825032230
         H            3.855968828286    -0.692220056397     0.946612181794     1.007825032230
         H            4.478052828286     0.668892943603    -0.044101818206     1.007825032230

  Basis Set: AUG-CC-PVTZ
    Blend: AUG-CC-PVTZ
  Basis Set: (AUG-CC-PVTZ AUX)
    Blend: AUG-CC-PVTZ-JKFIT
	 Reference Energy          =    -551.5795538431493696 [Eh]
	 Singles Energy            =      -0.0000000000000000 [Eh]
	 Same-Spin Energy          =      -0.5794105986715863 [Eh]
	 Opposite-Spin Energy      =      -1.8016631316525347 [Eh]
	 Correlation Energy        =      -2.3810737303241210 [Eh]
	 Total Energy              =    -553.9606275734735163 [Eh]

	 ================> DF-SCS-MP2 Energies <==================
	-----------------------------------------------------------
	 SCS Same-Spin Scale       =       0.3333333333333333 [-]
	 SCS Opposite-Spin Scale   =       1.2000000000000000 [-]
	 SCS Same-Spin Energy      =      -0.1931368662238621 [Eh]
	 SCS Opposite-Spin Energy  =      -2.1619957579830413 [Eh]
	 SCS Correlation Energy    =      -2.3551326242069033 [Eh]
	 SCS Total Energy          =    -553.9346864673563005 [Eh]
	-----------------------------------------------------------

  Dipole Moment: [D]
     X:    -0.3076      Y:    -0.0999      Z:     0.3961     Total:     0.5114

*** Psi4 exiting successfully. Buy a developer a beer!
