                               Psi4 1.4a2.dev612

  ==> Input File <==

--------------------------------------------------------------------------
#psi4
#
memory 32 gb

molecule  {
0 1
  O        2.4822540     0.5405090    -0.0540980
  O        1.5746620    -1.5220150     0.0896580
  N       -1.1191790    -1.6921850    -0.1509940
  C       -1.0966210    -0.3229200    -0.0500550
  C        0.1256031     0.3976663    -0.1775888
  C       -2.3003260     0.4165330    -0.0467730
  C        0.1050810     1.8109880     0.0359760
  C       -2.2954060     1.8037730     0.0119910
  C       -1.0915490     2.5140600     0.0407670
  C        1.4212810    -0.3016580     0.0102200
  C       -2.3257850    -2.4585570     0.0736050
  C        3.7618060    -0.1198990    -0.0066490
  H       -3.2501560    -0.1077310    -0.0690300
  H        1.0507040     2.3420820     0.0640380
  H       -0.2300450    -2.1418000     0.0381510
  H       -3.2442430     2.3364260     0.0191250
  H       -1.0894800     3.5992760     0.0899090
  H       -2.7979590    -2.2384410     1.0412790
  H       -2.0612830    -3.5169920     0.0485590
  H       -3.0612710    -2.2783540    -0.7172980
  H        3.8686140    -0.8046650    -0.8491430
  H        3.8704280    -0.6765840     0.9253170
  H        4.4925120     0.6845290    -0.0653970
units angstrom
no_reorient  #important for SAPT in psi4, default
symmetry c1  #important for SAPT in psi4, default
}

set PROPERTIES_ORIGIN ["COM"]
properties('MP2/aug-cc-pvtz', properties = ['dipole'])
--------------------------------------------------------------------------

    Molecular point group: c1
  Charge       = 0
  Multiplicity = 1
  Basis Set: AUG-CC-PVTZ
    Blend: AUG-CC-PVTZ
  Basis Set: (AUG-CC-PVTZ AUX)
    Blend: AUG-CC-PVTZ-JKFIT

    Orbital Energies [Eh]
    ---------------------

    Doubly Occupied:

       1A    -20.602089     2A    -20.541022     3A    -15.563279
       4A    -11.385384     5A    -11.298897     6A    -11.283891
       7A    -11.258288     8A    -11.253206     9A    -11.252930
      10A    -11.241012    11A    -11.228291    12A    -11.223895
      13A     -1.453282    14A     -1.349270    15A     -1.245941
      16A     -1.140417    17A     -1.044243    18A     -1.009757
      19A     -0.967785    20A     -0.922640    21A     -0.863855
      22A     -0.807640    23A     -0.783237    24A     -0.726971
      25A     -0.698542    26A     -0.673105    27A     -0.667831
      28A     -0.660652    29A     -0.629385    30A     -0.616578
      31A     -0.612473    32A     -0.580888    33A     -0.575177
      34A     -0.555227    35A     -0.541927    36A     -0.534509
      37A     -0.525286    38A     -0.504821    39A     -0.500530
      40A     -0.464690    41A     -0.443370    42A     -0.427301
      43A     -0.347726    44A     -0.292620

  @DF-RHF Final Energy:  -551.59298643931356

   => Energetics <=

    Nuclear Repulsion Energy =            687.5834862005821151
    One-Electron Energy =               -2115.7532222575277956
    Two-Electron Energy =                 876.5767496176320037
    Total Energy =                       -551.5929864393135631
  Basis Set: (AUG-CC-PVTZ AUX)
    Blend: AUG-CC-PVTZ-RI
    Molecular point group: c1

    Geometry (in Angstrom), charge = 0, multiplicity = 1:

       Center              X                  Y                   Z               Mass
    ------------   -----------------  -----------------  -----------------  -----------------
         O            2.467741428392     0.524390912513    -0.040055870109    15.994914619570
         O            1.560149428392    -1.538133087487     0.103700129891    15.994914619570
         N           -1.133691571608    -1.708303087487    -0.136951870109    14.003074004430
         C           -1.111133571608    -0.339038087487    -0.036012870109    12.000000000000
         C            0.111090528392     0.381548212513    -0.163546670109    12.000000000000
         C           -2.314838571608     0.400414912513    -0.032730870109    12.000000000000
         C            0.090568428392     1.794869912513     0.050018129891    12.000000000000
         C           -2.309918571608     1.787654912513     0.026033129891    12.000000000000
         C           -1.106061571608     2.497941912513     0.054809129891    12.000000000000
         C            1.406768428392    -0.317776087487     0.024262129891    12.000000000000
         C           -2.340297571608    -2.474675087487     0.087647129891    12.000000000000
         C            3.747293428392    -0.136017087487     0.007393129891    12.000000000000
         H           -3.264668571608    -0.123849087487    -0.054987870109     1.007825032230
         H            1.036191428392     2.325963912513     0.078080129891     1.007825032230
         H           -0.244557571608    -2.157918087487     0.052193129891     1.007825032230
         H           -3.258755571608     2.320307912513     0.033167129891     1.007825032230
         H           -1.103992571608     3.583157912513     0.103951129891     1.007825032230
         H           -2.812471571608    -2.254559087487     1.055321129891     1.007825032230
         H           -2.075795571608    -3.533110087487     0.062601129891     1.007825032230
         H           -3.075783571608    -2.294472087487    -0.703255870109     1.007825032230
         H            3.854101428392    -0.820783087487    -0.835100870109     1.007825032230
         H            3.855915428392    -0.692702087487     0.939359129891     1.007825032230
         H            4.477999428392     0.668410912513    -0.051354870109     1.007825032230

  Basis Set: AUG-CC-PVTZ
    Blend: AUG-CC-PVTZ
  Basis Set: (AUG-CC-PVTZ AUX)
    Blend: AUG-CC-PVTZ-JKFIT
	 Reference Energy          =    -551.5929864393135631 [Eh]
	 Singles Energy            =      -0.0000000000000000 [Eh]
	 Same-Spin Energy          =      -0.5791052888105362 [Eh]
	 Opposite-Spin Energy      =      -1.8003627060015543 [Eh]
	 Correlation Energy        =      -2.3794679948120905 [Eh]
	 Total Energy              =    -553.9724544341256660 [Eh]

	 ================> DF-SCS-MP2 Energies <==================
	-----------------------------------------------------------
	 SCS Same-Spin Scale       =       0.3333333333333333 [-]
	 SCS Opposite-Spin Scale   =       1.2000000000000000 [-]
	 SCS Same-Spin Energy      =      -0.1930350962701787 [Eh]
	 SCS Opposite-Spin Energy  =      -2.1604352472018653 [Eh]
	 SCS Correlation Energy    =      -2.3534703434720439 [Eh]
	 SCS Total Energy          =    -553.9464567827856172 [Eh]
	-----------------------------------------------------------

  Dipole Moment: [D]
     X:    -0.2331      Y:    -0.0874      Z:     0.3650     Total:     0.4418

*** Psi4 exiting successfully. Buy a developer a beer!
