                               Psi4 1.4a2.dev612

  ==> Input File <==

--------------------------------------------------------------------------
#psi4
#
memory 32 gb

molecule  {
0 1
  O        2.4822540     0.5405090    -0.0540980
  O        1.5746620    -1.5220150     0.0896580
  N       -1.1191790    -1.6921850    -0.1509940
  C       -1.0966210    -0.3229200    -0.0500550
  C        0.1267050     0.4076130    -0.0279230
  C       -2.3011213     0.4111525     0.0530790
  C        0.1050810     1.8109880     0.0359760
  C       -2.2954060     1.8037730     0.0119910
  C       -1.0915490     2.5140600     0.0407670
  C        1.4212810    -0.3016580     0.0102200
  C       -2.3257850    -2.4585570     0.0736050
  C        3.7618060    -0.1198990    -0.0066490
  H       -3.2501560    -0.1077310    -0.0690300
  H        1.0507040     2.3420820     0.0640380
  H       -0.2300450    -2.1418000     0.0381510
  H       -3.2442430     2.3364260     0.0191250
  H       -1.0894800     3.5992760     0.0899090
  H       -2.7979590    -2.2384410     1.0412790
  H       -2.0612830    -3.5169920     0.0485590
  H       -3.0612710    -2.2783540    -0.7172980
  H        3.8686140    -0.8046650    -0.8491430
  H        3.8704280    -0.6765840     0.9253170
  H        4.4925120     0.6845290    -0.0653970
units angstrom
no_reorient  #important for SAPT in psi4, default
symmetry c1  #important for SAPT in psi4, default
}

set PROPERTIES_ORIGIN ["COM"]
properties('MP2/aug-cc-pvtz', properties = ['dipole'])
--------------------------------------------------------------------------

    Molecular point group: c1
  Charge       = 0
  Multiplicity = 1
  Basis Set: AUG-CC-PVTZ
    Blend: AUG-CC-PVTZ
  Basis Set: (AUG-CC-PVTZ AUX)
    Blend: AUG-CC-PVTZ-JKFIT

    Orbital Energies [Eh]
    ---------------------

    Doubly Occupied:

       1A    -20.602827     2A    -20.541869     3A    -15.563304
       4A    -11.385733     5A    -11.298838     6A    -11.284366
       7A    -11.258183     8A    -11.252803     9A    -11.250675
      10A    -11.239801    11A    -11.228003    12A    -11.223517
      13A     -1.454142    14A     -1.350076    15A     -1.245597
      16A     -1.141911    17A     -1.045798    18A     -1.009466
      19A     -0.968365    20A     -0.923179    21A     -0.864351
      22A     -0.808727    23A     -0.784191    24A     -0.728505
      25A     -0.700329    26A     -0.673366    27A     -0.668757
      28A     -0.660794    29A     -0.628775    30A     -0.616731
      31A     -0.611854    32A     -0.582462    33A     -0.576450
      34A     -0.555797    35A     -0.542039    36A     -0.534983
      37A     -0.525045    38A     -0.505626    39A     -0.501240
      40A     -0.465366    41A     -0.444680    42A     -0.427055
      43A     -0.349224    44A     -0.291995

  @DF-RHF Final Energy:  -551.59966288444105

   => Energetics <=

    Nuclear Repulsion Energy =            687.9119784026260049
    One-Electron Energy =               -2116.3896895616758229
    Two-Electron Energy =                 876.8780482746086591
    Total Energy =                       -551.5996628844410452
  Basis Set: (AUG-CC-PVTZ AUX)
    Blend: AUG-CC-PVTZ-RI
    Molecular point group: c1

    Geometry (in Angstrom), charge = 0, multiplicity = 1:

       Center              X                  Y                   Z               Mass
    ------------   -----------------  -----------------  -----------------  -----------------
         O            2.467719140878     0.524058984120    -0.058193937266    15.994914619570
         O            1.560127140878    -1.538465015880     0.085562062734    15.994914619570
         N           -1.133713859122    -1.708635015880    -0.155089937266    14.003074004430
         C           -1.111155859122    -0.339370015880    -0.054150937266    12.000000000000
         C            0.112170140878     0.391162984120    -0.032018937266    12.000000000000
         C           -2.315656159122     0.394702484120     0.048983062734    12.000000000000
         C            0.090546140878     1.794537984120     0.031880062734    12.000000000000
         C           -2.309940859122     1.787322984120     0.007895062734    12.000000000000
         C           -1.106083859122     2.497609984120     0.036671062734    12.000000000000
         C            1.406746140878    -0.318108015880     0.006124062734    12.000000000000
         C           -2.340319859122    -2.475007015880     0.069509062734    12.000000000000
         C            3.747271140878    -0.136349015880    -0.010744937266    12.000000000000
         H           -3.264690859122    -0.124181015880    -0.073125937266     1.007825032230
         H            1.036169140878     2.325631984120     0.059942062734     1.007825032230
         H           -0.244579859122    -2.158250015880     0.034055062734     1.007825032230
         H           -3.258777859122     2.319975984120     0.015029062734     1.007825032230
         H           -1.104014859122     3.582825984120     0.085813062734     1.007825032230
         H           -2.812493859122    -2.254891015880     1.037183062734     1.007825032230
         H           -2.075817859122    -3.533442015880     0.044463062734     1.007825032230
         H           -3.075805859122    -2.294804015880    -0.721393937266     1.007825032230
         H            3.854079140878    -0.821115015880    -0.853238937266     1.007825032230
         H            3.855893140878    -0.693034015880     0.921221062734     1.007825032230
         H            4.477977140878     0.668078984120    -0.069492937266     1.007825032230

  Basis Set: AUG-CC-PVTZ
    Blend: AUG-CC-PVTZ
  Basis Set: (AUG-CC-PVTZ AUX)
    Blend: AUG-CC-PVTZ-JKFIT
	 Reference Energy          =    -551.5996628844410452 [Eh]
	 Singles Energy            =      -0.0000000000000000 [Eh]
	 Same-Spin Energy          =      -0.5789932125548102 [Eh]
	 Opposite-Spin Energy      =      -1.8000446977090256 [Eh]
	 Correlation Energy        =      -2.3790379102638357 [Eh]
	 Total Energy              =    -553.9787007947048778 [Eh]

	 ================> DF-SCS-MP2 Energies <==================
	-----------------------------------------------------------
	 SCS Same-Spin Scale       =       0.3333333333333333 [-]
	 SCS Opposite-Spin Scale   =       1.2000000000000000 [-]
	 SCS Same-Spin Energy      =      -0.1929977375182700 [Eh]
	 SCS Opposite-Spin Energy  =      -2.1600536372508308 [Eh]
	 SCS Correlation Energy    =      -2.3530513747691009 [Eh]
	 SCS Total Energy          =    -553.9527142592100972 [Eh]
	-----------------------------------------------------------

  Dipole Moment: [D]
     X:    -0.1450      Y:    -0.0845      Z:     0.2541     Total:     0.3045

*** Psi4 exiting successfully. Buy a developer a beer!
