                               Psi4 1.4a2.dev612

  ==> Input File <==

--------------------------------------------------------------------------
#psi4
#
memory 32 gb

molecule  {
0 1
  O        2.4822540     0.5405090    -0.0540980
  O        1.5746620    -1.5220150     0.0896580
  N       -1.1191790    -1.6921850    -0.1509940
  C       -1.0966210    -0.3229200    -0.0500550
  C        0.1252358     0.3943508    -0.2274774
  C       -2.3003260     0.4165330    -0.0467730
  C        0.1050810     1.8109880     0.0359760
  C       -2.2954060     1.8037730     0.0119910
  C       -1.0915490     2.5140600     0.0407670
  C        1.4212810    -0.3016580     0.0102200
  C       -2.3257850    -2.4585570     0.0736050
  C        3.7618060    -0.1198990    -0.0066490
  H       -3.2501560    -0.1077310    -0.0690300
  H        1.0507040     2.3420820     0.0640380
  H       -0.2300450    -2.1418000     0.0381510
  H       -3.2442430     2.3364260     0.0191250
  H       -1.0894800     3.5992760     0.0899090
  H       -2.7979590    -2.2384410     1.0412790
  H       -2.0612830    -3.5169920     0.0485590
  H       -3.0612710    -2.2783540    -0.7172980
  H        3.8686140    -0.8046650    -0.8491430
  H        3.8704280    -0.6765840     0.9253170
  H        4.4925120     0.6845290    -0.0653970
units angstrom
no_reorient  #important for SAPT in psi4, default
symmetry c1  #important for SAPT in psi4, default
}

set PROPERTIES_ORIGIN ["COM"]
properties('MP2/aug-cc-pvtz', properties = ['dipole'])
--------------------------------------------------------------------------

    Molecular point group: c1
  Charge       = 0
  Multiplicity = 1
  Basis Set: AUG-CC-PVTZ
    Blend: AUG-CC-PVTZ
  Basis Set: (AUG-CC-PVTZ AUX)
    Blend: AUG-CC-PVTZ-JKFIT

    Orbital Energies [Eh]
    ---------------------

    Doubly Occupied:

       1A    -20.601739     2A    -20.540671     3A    -15.563643
       4A    -11.385331     5A    -11.299664     6A    -11.283662
       7A    -11.258382     8A    -11.254287     9A    -11.254036
      10A    -11.241955    11A    -11.228548    12A    -11.224031
      13A     -1.452848    14A     -1.348893    15A     -1.246141
      16A     -1.139603    17A     -1.043036    18A     -1.009705
      19A     -0.967397    20A     -0.922467    21A     -0.863295
      22A     -0.806718    23A     -0.782562    24A     -0.725992
      25A     -0.697877    26A     -0.672904    27A     -0.667408
      28A     -0.660292    29A     -0.629492    30A     -0.616708
      31A     -0.612560    32A     -0.579907    33A     -0.574411
      34A     -0.554667    35A     -0.541879    36A     -0.534230
      37A     -0.525441    38A     -0.503782    39A     -0.499903
      40A     -0.464346    41A     -0.442436    42A     -0.427001
      43A     -0.347116    44A     -0.293087

  @DF-RHF Final Energy:  -551.58703398181910

   => Energetics <=

    Nuclear Repulsion Energy =            687.3069679834121644
    One-Electron Energy =               -2115.2078974955757076
    Two-Electron Energy =                 876.3138955303445528
    Total Energy =                       -551.5870339818191042
  Basis Set: (AUG-CC-PVTZ AUX)
    Blend: AUG-CC-PVTZ-RI
    Molecular point group: c1

    Geometry (in Angstrom), charge = 0, multiplicity = 1:

       Center              X                  Y                   Z               Mass
    ------------   -----------------  -----------------  -----------------  -----------------
         O            2.467768128339     0.524631924423    -0.036429344158    15.994914619570
         O            1.560176128339    -1.537892075577     0.107326655842    15.994914619570
         N           -1.133664871661    -1.708062075577    -0.133325344158    14.003074004430
         C           -1.111106871661    -0.338797075577    -0.032386344158    12.000000000000
         C            0.110749928339     0.378473724423    -0.209808744158    12.000000000000
         C           -2.314811871661     0.400655924423    -0.029104344158    12.000000000000
         C            0.090595128339     1.795110924423     0.053644655842    12.000000000000
         C           -2.309891871661     1.787895924423     0.029659655842    12.000000000000
         C           -1.106034871661     2.498182924423     0.058435655842    12.000000000000
         C            1.406795128339    -0.317535075577     0.027888655842    12.000000000000
         C           -2.340270871661    -2.474434075577     0.091273655842    12.000000000000
         C            3.747320128339    -0.135776075577     0.011019655842    12.000000000000
         H           -3.264641871661    -0.123608075577    -0.051361344158     1.007825032230
         H            1.036218128339     2.326204924423     0.081706655842     1.007825032230
         H           -0.244530871661    -2.157677075577     0.055819655842     1.007825032230
         H           -3.258728871661     2.320548924423     0.036793655842     1.007825032230
         H           -1.103965871661     3.583398924423     0.107577655842     1.007825032230
         H           -2.812444871661    -2.254318075577     1.058947655842     1.007825032230
         H           -2.075768871661    -3.532869075577     0.066227655842     1.007825032230
         H           -3.075756871661    -2.294231075577    -0.699629344158     1.007825032230
         H            3.854128128339    -0.820542075577    -0.831474344158     1.007825032230
         H            3.855942128339    -0.692461075577     0.942985655842     1.007825032230
         H            4.478026128339     0.668651924423    -0.047728344158     1.007825032230

  Basis Set: AUG-CC-PVTZ
    Blend: AUG-CC-PVTZ
  Basis Set: (AUG-CC-PVTZ AUX)
    Blend: AUG-CC-PVTZ-JKFIT
	 Reference Energy          =    -551.5870339818191042 [Eh]
	 Singles Energy            =      -0.0000000000000000 [Eh]
	 Same-Spin Energy          =      -0.5792411219474884 [Eh]
	 Opposite-Spin Energy      =      -1.8009257354573116 [Eh]
	 Correlation Energy        =      -2.3801668574048001 [Eh]
	 Total Energy              =    -553.9672008392238922 [Eh]

	 ================> DF-SCS-MP2 Energies <==================
	-----------------------------------------------------------
	 SCS Same-Spin Scale       =       0.3333333333333333 [-]
	 SCS Opposite-Spin Scale   =       1.2000000000000000 [-]
	 SCS Same-Spin Energy      =      -0.1930803739824961 [Eh]
	 SCS Opposite-Spin Energy  =      -2.1611108825487739 [Eh]
	 SCS Correlation Energy    =      -2.3541912565312701 [Eh]
	 SCS Total Energy          =    -553.9412252383503983 [Eh]
	-----------------------------------------------------------

  Dipole Moment: [D]
     X:    -0.2670      Y:    -0.0917      Z:     0.3797     Total:     0.4732

*** Psi4 exiting successfully. Buy a developer a beer!
