                               Psi4 1.4a2.dev612

  ==> Input File <==

--------------------------------------------------------------------------
#psi4
#
memory 32 gb

molecule  {
0 1
  O        2.4822540     0.5405090    -0.0540980
  O        1.5746620    -1.5220150     0.0896580
  N       -1.1191790    -1.6921850    -0.1509940
  C       -1.0966210    -0.3229200    -0.0500550
  C        0.1267050     0.4076130    -0.0279230
  C       -2.3027119     0.4003914     0.2527829
  C        0.1050810     1.8109880     0.0359760
  C       -2.2954060     1.8037730     0.0119910
  C       -1.0915490     2.5140600     0.0407670
  C        1.4212810    -0.3016580     0.0102200
  C       -2.3257850    -2.4585570     0.0736050
  C        3.7618060    -0.1198990    -0.0066490
  H       -3.2501560    -0.1077310    -0.0690300
  H        1.0507040     2.3420820     0.0640380
  H       -0.2300450    -2.1418000     0.0381510
  H       -3.2442430     2.3364260     0.0191250
  H       -1.0894800     3.5992760     0.0899090
  H       -2.7979590    -2.2384410     1.0412790
  H       -2.0612830    -3.5169920     0.0485590
  H       -3.0612710    -2.2783540    -0.7172980
  H        3.8686140    -0.8046650    -0.8491430
  H        3.8704280    -0.6765840     0.9253170
  H        4.4925120     0.6845290    -0.0653970
units angstrom
no_reorient  #important for SAPT in psi4, default
symmetry c1  #important for SAPT in psi4, default
}

set PROPERTIES_ORIGIN ["COM"]
properties('MP2/aug-cc-pvtz', properties = ['dipole'])
--------------------------------------------------------------------------

    Molecular point group: c1
  Charge       = 0
  Multiplicity = 1
  Basis Set: AUG-CC-PVTZ
    Blend: AUG-CC-PVTZ
  Basis Set: (AUG-CC-PVTZ AUX)
    Blend: AUG-CC-PVTZ-JKFIT

    Orbital Energies [Eh]
    ---------------------

    Doubly Occupied:

       1A    -20.603325     2A    -20.542214     3A    -15.565599
       4A    -11.386272     5A    -11.303760     6A    -11.284788
       7A    -11.259169     8A    -11.257754     9A    -11.255185
      10A    -11.240138    11A    -11.232647    12A    -11.223899
      13A     -1.454646    14A     -1.350545    15A     -1.245997
      16A     -1.140926    17A     -1.043991    18A     -1.007377
      19A     -0.968093    20A     -0.923197    21A     -0.862584
      22A     -0.806435    23A     -0.783579    24A     -0.727251
      25A     -0.701728    26A     -0.672922    27A     -0.669325
      28A     -0.660468    29A     -0.625887    30A     -0.615458
      31A     -0.609188    32A     -0.579478    33A     -0.574822
      34A     -0.555894    35A     -0.541673    36A     -0.533341
      37A     -0.524292    38A     -0.506491    39A     -0.492339
      40A     -0.465762    41A     -0.444639    42A     -0.424620
      43A     -0.348623    44A     -0.294241

  @DF-RHF Final Energy:  -551.57847862959272

   => Energetics <=

    Nuclear Repulsion Energy =            687.0674891946583784
    One-Electron Energy =               -2114.6708174221530498
    Two-Electron Energy =                 876.0248495979020618
    Total Energy =                       -551.5784786295927233
  Basis Set: (AUG-CC-PVTZ AUX)
    Blend: AUG-CC-PVTZ-RI
    Molecular point group: c1

    Geometry (in Angstrom), charge = 0, multiplicity = 1:

       Center              X                  Y                   Z               Mass
    ------------   -----------------  -----------------  -----------------  -----------------
         O            2.467834765534     0.524841235144    -0.072710908599    15.994914619570
         O            1.560242765534    -1.537682764856     0.071045091401    15.994914619570
         N           -1.133598234466    -1.707852764856    -0.169606908599    14.003074004430
         C           -1.111040234466    -0.338587764856    -0.068667908599    12.000000000000
         C            0.112285765534     0.391945235144    -0.046535908599    12.000000000000
         C           -2.317131134466     0.384723635144     0.234169991401    12.000000000000
         C            0.090661765534     1.795320235144     0.017363091401    12.000000000000
         C           -2.309825234466     1.788105235144    -0.006621908599    12.000000000000
         C           -1.105968234466     2.498392235144     0.022154091401    12.000000000000
         C            1.406861765534    -0.317325764856    -0.008392908599    12.000000000000
         C           -2.340204234466    -2.474224764856     0.054992091401    12.000000000000
         C            3.747386765534    -0.135566764856    -0.025261908599    12.000000000000
         H           -3.264575234466    -0.123398764856    -0.087642908599     1.007825032230
         H            1.036284765534     2.326414235144     0.045425091401     1.007825032230
         H           -0.244464234466    -2.157467764856     0.019538091401     1.007825032230
         H           -3.258662234466     2.320758235144     0.000512091401     1.007825032230
         H           -1.103899234466     3.583608235144     0.071296091401     1.007825032230
         H           -2.812378234466    -2.254108764856     1.022666091401     1.007825032230
         H           -2.075702234466    -3.532659764856     0.029946091401     1.007825032230
         H           -3.075690234466    -2.294021764856    -0.735910908599     1.007825032230
         H            3.854194765534    -0.820332764856    -0.867755908599     1.007825032230
         H            3.856008765534    -0.692251764856     0.906704091401     1.007825032230
         H            4.478092765534     0.668861235144    -0.084009908599     1.007825032230

  Basis Set: AUG-CC-PVTZ
    Blend: AUG-CC-PVTZ
  Basis Set: (AUG-CC-PVTZ AUX)
    Blend: AUG-CC-PVTZ-JKFIT
	 Reference Energy          =    -551.5784786295927233 [Eh]
	 Singles Energy            =      -0.0000000000000000 [Eh]
	 Same-Spin Energy          =      -0.5796588693374956 [Eh]
	 Opposite-Spin Energy      =      -1.8025294214301852 [Eh]
	 Correlation Energy        =      -2.3821882907676808 [Eh]
	 Total Energy              =    -553.9606669203603815 [Eh]

	 ================> DF-SCS-MP2 Energies <==================
	-----------------------------------------------------------
	 SCS Same-Spin Scale       =       0.3333333333333333 [-]
	 SCS Opposite-Spin Scale   =       1.2000000000000000 [-]
	 SCS Same-Spin Energy      =      -0.1932196231124985 [Eh]
	 SCS Opposite-Spin Energy  =      -2.1630353057162224 [Eh]
	 SCS Correlation Energy    =      -2.3562549288287209 [Eh]
	 SCS Total Energy          =    -553.9347335584214989 [Eh]
	-----------------------------------------------------------

  Dipole Moment: [D]
     X:     0.0314      Y:    -0.0657      Z:     0.0939     Total:     0.1188

*** Psi4 exiting successfully. Buy a developer a beer!
