                               Psi4 1.4a2.dev612

  ==> Input File <==

--------------------------------------------------------------------------
#psi4
#
memory 32 gb

molecule  {
0 1
  O        2.4822540     0.5405090    -0.0540980
  O        1.5746620    -1.5220150     0.0896580
  N       -1.1191790    -1.6921850    -0.1509940
  C       -1.0966210    -0.3229200    -0.0500550
  C        0.1267050     0.4076130    -0.0279230
  C       -2.3003260     0.4165330    -0.0467730
  C        0.1050810     1.8109880     0.0359760
  C       -2.2954060     1.8037730     0.0119910
  C       -1.0915490     2.5140600     0.0407670
  C        1.4272049    -0.2949215    -0.2396190
  C       -2.3257850    -2.4585570     0.0736050
  C        3.7618060    -0.1198990    -0.0066490
  H       -3.2501560    -0.1077310    -0.0690300
  H        1.0507040     2.3420820     0.0640380
  H       -0.2300450    -2.1418000     0.0381510
  H       -3.2442430     2.3364260     0.0191250
  H       -1.0894800     3.5992760     0.0899090
  H       -2.7979590    -2.2384410     1.0412790
  H       -2.0612830    -3.5169920     0.0485590
  H       -3.0612710    -2.2783540    -0.7172980
  H        3.8686140    -0.8046650    -0.8491430
  H        3.8704280    -0.6765840     0.9253170
  H        4.4925120     0.6845290    -0.0653970
units angstrom
no_reorient  #important for SAPT in psi4, default
symmetry c1  #important for SAPT in psi4, default
}

set PROPERTIES_ORIGIN ["COM"]
properties('MP2/aug-cc-pvtz', properties = ['dipole'])
--------------------------------------------------------------------------

    Molecular point group: c1
  Charge       = 0
  Multiplicity = 1
  Basis Set: AUG-CC-PVTZ
    Blend: AUG-CC-PVTZ
  Basis Set: (AUG-CC-PVTZ AUX)
    Blend: AUG-CC-PVTZ-JKFIT

    Orbital Energies [Eh]
    ---------------------

    Doubly Occupied:

       1A    -20.606637     2A    -20.542163     3A    -15.562134
       4A    -11.394919     5A    -11.298055     6A    -11.285136
       7A    -11.257803     8A    -11.251430     9A    -11.249725
      10A    -11.244024    11A    -11.227658    12A    -11.223734
      13A     -1.448785    14A     -1.328433    15A     -1.244300
      16A     -1.141747    17A     -1.044422    18A     -1.009448
      19A     -0.969322    20A     -0.922664    21A     -0.862545
      22A     -0.808830    23A     -0.785418    24A     -0.725867
      25A     -0.698246    26A     -0.668438    27A     -0.667034
      28A     -0.657804    29A     -0.629423    30A     -0.614667
      31A     -0.611145    32A     -0.582635    33A     -0.573870
      34A     -0.551043    35A     -0.540901    36A     -0.533441
      37A     -0.522161    38A     -0.505755    39A     -0.500328
      40A     -0.456996    41A     -0.442171    42A     -0.426919
      43A     -0.347364    44A     -0.290721

  @DF-RHF Final Energy:  -551.56836270451379

   => Energetics <=

    Nuclear Repulsion Energy =            686.8668566316264332
    One-Electron Energy =               -2114.3579152613165206
    Two-Electron Energy =                 875.9226959251762992
    Total Energy =                       -551.5683627045137882
  Basis Set: (AUG-CC-PVTZ AUX)
    Blend: AUG-CC-PVTZ-RI
    Molecular point group: c1

    Geometry (in Angstrom), charge = 0, multiplicity = 1:

       Center              X                  Y                   Z               Mass
    ------------   -----------------  -----------------  -----------------  -----------------
         O            2.467230705581     0.523178169366    -0.032774031984    15.994914619570
         O            1.559638705581    -1.539345830634     0.110981968016    15.994914619570
         N           -1.134202294419    -1.709515830634    -0.129670031984    14.003074004430
         C           -1.111644294419    -0.340250830634    -0.028731031984    12.000000000000
         C            0.111681705581     0.390282169366    -0.006599031984    12.000000000000
         C           -2.315349294419     0.399202169366    -0.025449031984    12.000000000000
         C            0.090057705581     1.793657169366     0.057299968016    12.000000000000
         C           -2.310429294419     1.786442169366     0.033314968016    12.000000000000
         C           -1.106572294419     2.496729169366     0.062090968016    12.000000000000
         C            1.412181605581    -0.312252330634    -0.218295031984    12.000000000000
         C           -2.340808294419    -2.475887830634     0.094928968016    12.000000000000
         C            3.746782705581    -0.137229830634     0.014674968016    12.000000000000
         H           -3.265179294419    -0.125061830634    -0.047706031984     1.007825032230
         H            1.035680705581     2.324751169366     0.085361968016     1.007825032230
         H           -0.245068294419    -2.159130830634     0.059474968016     1.007825032230
         H           -3.259266294419     2.319095169366     0.040448968016     1.007825032230
         H           -1.104503294419     3.581945169366     0.111232968016     1.007825032230
         H           -2.812982294419    -2.255771830634     1.062602968016     1.007825032230
         H           -2.076306294419    -3.534322830634     0.069882968016     1.007825032230
         H           -3.076294294419    -2.295684830634    -0.695974031984     1.007825032230
         H            3.853590705581    -0.821995830634    -0.827819031984     1.007825032230
         H            3.855404705581    -0.693914830634     0.946640968016     1.007825032230
         H            4.477488705581     0.667198169366    -0.044073031984     1.007825032230

  Basis Set: AUG-CC-PVTZ
    Blend: AUG-CC-PVTZ
  Basis Set: (AUG-CC-PVTZ AUX)
    Blend: AUG-CC-PVTZ-JKFIT
	 Reference Energy          =    -551.5683627045137882 [Eh]
	 Singles Energy            =      -0.0000000000000000 [Eh]
	 Same-Spin Energy          =      -0.5811652633794016 [Eh]
	 Opposite-Spin Energy      =      -1.8050864080471409 [Eh]
	 Correlation Energy        =      -2.3862516714265425 [Eh]
	 Total Energy              =    -553.9546143759403094 [Eh]

	 ================> DF-SCS-MP2 Energies <==================
	-----------------------------------------------------------
	 SCS Same-Spin Scale       =       0.3333333333333333 [-]
	 SCS Opposite-Spin Scale   =       1.2000000000000000 [-]
	 SCS Same-Spin Energy      =      -0.1937217544598005 [Eh]
	 SCS Opposite-Spin Energy  =      -2.1661036896565689 [Eh]
	 SCS Correlation Energy    =      -2.3598254441163693 [Eh]
	 SCS Total Energy          =    -553.9281881486301700 [Eh]
	-----------------------------------------------------------

  Dipole Moment: [D]
     X:    -0.0756      Y:    -0.0525      Z:     0.0522     Total:     0.1058

*** Psi4 exiting successfully. Buy a developer a beer!
