                               Psi4 1.4a2.dev612

  ==> Input File <==

--------------------------------------------------------------------------
#psi4
#
memory 32 gb

molecule  {
0 1
  O        2.4822540     0.5405090    -0.0540980
  O        1.5746620    -1.5220150     0.0896580
  N       -1.1191790    -1.6921850    -0.1509940
  C       -1.0966210    -0.3229200    -0.0500550
  C        0.1267050     0.4076130    -0.0279230
  C       -2.3003260     0.4165330    -0.0467730
  C        0.1050810     1.8109880     0.0359760
  C       -2.2954060     1.8037730     0.0119910
  C       -1.0915490     2.5140600     0.0407670
  C        1.4248353    -0.2976161    -0.1396834
  C       -2.3257850    -2.4585570     0.0736050
  C        3.7618060    -0.1198990    -0.0066490
  H       -3.2501560    -0.1077310    -0.0690300
  H        1.0507040     2.3420820     0.0640380
  H       -0.2300450    -2.1418000     0.0381510
  H       -3.2442430     2.3364260     0.0191250
  H       -1.0894800     3.5992760     0.0899090
  H       -2.7979590    -2.2384410     1.0412790
  H       -2.0612830    -3.5169920     0.0485590
  H       -3.0612710    -2.2783540    -0.7172980
  H        3.8686140    -0.8046650    -0.8491430
  H        3.8704280    -0.6765840     0.9253170
  H        4.4925120     0.6845290    -0.0653970
units angstrom
no_reorient  #important for SAPT in psi4, default
symmetry c1  #important for SAPT in psi4, default
}

set PROPERTIES_ORIGIN ["COM"]
properties('MP2/aug-cc-pvtz', properties = ['dipole'])
--------------------------------------------------------------------------

    Molecular point group: c1
  Charge       = 0
  Multiplicity = 1
  Basis Set: AUG-CC-PVTZ
    Blend: AUG-CC-PVTZ
  Basis Set: (AUG-CC-PVTZ AUX)
    Blend: AUG-CC-PVTZ-JKFIT

    Orbital Energies [Eh]
    ---------------------

    Doubly Occupied:

       1A    -20.605504     2A    -20.540666     3A    -15.562440
       4A    -11.389392     5A    -11.298212     6A    -11.285310
       7A    -11.257976     8A    -11.251598     9A    -11.249950
      10A    -11.241367    11A    -11.227578    12A    -11.223555
      13A     -1.453026    14A     -1.339722    15A     -1.244852
      16A     -1.141953    17A     -1.045743    18A     -1.009513
      19A     -0.969906    20A     -0.922929    21A     -0.863902
      22A     -0.808955    23A     -0.785121    24A     -0.728138
      25A     -0.699125    26A     -0.671066    27A     -0.668878
      28A     -0.659717    29A     -0.629559    30A     -0.615580
      31A     -0.611426    32A     -0.582826    33A     -0.575722
      34A     -0.553473    35A     -0.541599    36A     -0.534374
      37A     -0.523794    38A     -0.506356    39A     -0.500730
      40A     -0.461782    41A     -0.443432    42A     -0.427197
      43A     -0.348593    44A     -0.291119

  @DF-RHF Final Energy:  -551.58972013491757

   => Energetics <=

    Nuclear Repulsion Energy =            687.5712188761459629
    One-Electron Energy =               -2115.7345647046681734
    Two-Electron Energy =                 876.5736256936047539
    Total Energy =                       -551.5897201349175702
  Basis Set: (AUG-CC-PVTZ AUX)
    Blend: AUG-CC-PVTZ-RI
    Molecular point group: c1

    Geometry (in Angstrom), charge = 0, multiplicity = 1:

       Center              X                  Y                   Z               Mass
    ------------   -----------------  -----------------  -----------------  -----------------
         O            2.467402957677     0.523374046517    -0.040038598377    15.994914619570
         O            1.559810957677    -1.539149953483     0.103717401623    15.994914619570
         N           -1.134030042323    -1.709319953483    -0.136934598377    14.003074004430
         C           -1.111472042323    -0.340054953483    -0.035995598377    12.000000000000
         C            0.111853957677     0.390478046517    -0.013863598377    12.000000000000
         C           -2.315177042323     0.399398046517    -0.032713598377    12.000000000000
         C            0.090229957677     1.793853046517     0.050035401623    12.000000000000
         C           -2.310257042323     1.786638046517     0.026050401623    12.000000000000
         C           -1.106400042323     2.496925046517     0.054826401623    12.000000000000
         C            1.409984257677    -0.314751053483    -0.125623998377    12.000000000000
         C           -2.340636042323    -2.475691953483     0.087664401623    12.000000000000
         C            3.746954957677    -0.137033953483     0.007410401623    12.000000000000
         H           -3.265007042323    -0.124865953483    -0.054970598377     1.007825032230
         H            1.035852957677     2.324947046517     0.078097401623     1.007825032230
         H           -0.244896042323    -2.158934953483     0.052210401623     1.007825032230
         H           -3.259094042323     2.319291046517     0.033184401623     1.007825032230
         H           -1.104331042323     3.582141046517     0.103968401623     1.007825032230
         H           -2.812810042323    -2.255575953483     1.055338401623     1.007825032230
         H           -2.076134042323    -3.534126953483     0.062618401623     1.007825032230
         H           -3.076122042323    -2.295488953483    -0.703238598377     1.007825032230
         H            3.853762957677    -0.821799953483    -0.835083598377     1.007825032230
         H            3.855576957677    -0.693718953483     0.939376401623     1.007825032230
         H            4.477660957677     0.667394046517    -0.051337598377     1.007825032230

  Basis Set: AUG-CC-PVTZ
    Blend: AUG-CC-PVTZ
  Basis Set: (AUG-CC-PVTZ AUX)
    Blend: AUG-CC-PVTZ-JKFIT
	 Reference Energy          =    -551.5897201349175702 [Eh]
	 Singles Energy            =      -0.0000000000000000 [Eh]
	 Same-Spin Energy          =      -0.5797728324669413 [Eh]
	 Opposite-Spin Energy      =      -1.8016820523452339 [Eh]
	 Correlation Energy        =      -2.3814548848121753 [Eh]
	 Total Energy              =    -553.9711750197297988 [Eh]

	 ================> DF-SCS-MP2 Energies <==================
	-----------------------------------------------------------
	 SCS Same-Spin Scale       =       0.3333333333333333 [-]
	 SCS Opposite-Spin Scale   =       1.2000000000000000 [-]
	 SCS Same-Spin Energy      =      -0.1932576108223138 [Eh]
	 SCS Opposite-Spin Energy  =      -2.1620184628142805 [Eh]
	 SCS Correlation Energy    =      -2.3552760736365941 [Eh]
	 SCS Total Energy          =    -553.9449962085541301 [Eh]
	-----------------------------------------------------------

  Dipole Moment: [D]
     X:    -0.0998      Y:    -0.0487      Z:     0.1522     Total:     0.1885

*** Psi4 exiting successfully. Buy a developer a beer!
