                               Psi4 1.4a2.dev612

  ==> Input File <==

--------------------------------------------------------------------------
#psi4
#
memory 32 gb

molecule  {
0 1
  O        2.4822540     0.5405090    -0.0540980
  O        1.5746620    -1.5220150     0.0896580
  N       -1.1191790    -1.6921850    -0.1509940
  C       -1.0966210    -0.3229200    -0.0500550
  C        0.1267050     0.4076130    -0.0279230
  C       -2.3003260     0.4165330    -0.0467730
  C        0.1050810     1.8109880     0.0359760
  C       -2.2954060     1.8037730     0.0119910
  C       -1.0915490     2.5140600     0.0407670
  C        1.4236506    -0.2989634    -0.0897156
  C       -2.3257850    -2.4585570     0.0736050
  C        3.7618060    -0.1198990    -0.0066490
  H       -3.2501560    -0.1077310    -0.0690300
  H        1.0507040     2.3420820     0.0640380
  H       -0.2300450    -2.1418000     0.0381510
  H       -3.2442430     2.3364260     0.0191250
  H       -1.0894800     3.5992760     0.0899090
  H       -2.7979590    -2.2384410     1.0412790
  H       -2.0612830    -3.5169920     0.0485590
  H       -3.0612710    -2.2783540    -0.7172980
  H        3.8686140    -0.8046650    -0.8491430
  H        3.8704280    -0.6765840     0.9253170
  H        4.4925120     0.6845290    -0.0653970
units angstrom
no_reorient  #important for SAPT in psi4, default
symmetry c1  #important for SAPT in psi4, default
}

set PROPERTIES_ORIGIN ["COM"]
properties('MP2/aug-cc-pvtz', properties = ['dipole'])
--------------------------------------------------------------------------

    Molecular point group: c1
  Charge       = 0
  Multiplicity = 1
  Basis Set: AUG-CC-PVTZ
    Blend: AUG-CC-PVTZ
  Basis Set: (AUG-CC-PVTZ AUX)
    Blend: AUG-CC-PVTZ-JKFIT

    Orbital Energies [Eh]
    ---------------------

    Doubly Occupied:

       1A    -20.604713     2A    -20.540612     3A    -15.562645
       4A    -11.387473     5A    -11.298274     6A    -11.285142
       7A    -11.258094     8A    -11.251663     9A    -11.250005
      10A    -11.240495    11A    -11.227559    12A    -11.223490
      13A     -1.454073    14A     -1.344144    15A     -1.245111
      16A     -1.142022    17A     -1.046084    18A     -1.009550
      19A     -0.969721    20A     -0.923033    21A     -0.864305
      22A     -0.809004    23A     -0.784888    24A     -0.728717
      25A     -0.699476    26A     -0.672099    27A     -0.669224
      28A     -0.660298    29A     -0.629553    30A     -0.615923
      31A     -0.611583    32A     -0.582949    33A     -0.576249
      34A     -0.554500    35A     -0.541823    36A     -0.534710
      37A     -0.524278    38A     -0.506559    39A     -0.500897
      40A     -0.463503    41A     -0.443982    42A     -0.427315
      43A     -0.349011    44A     -0.291277

  @DF-RHF Final Energy:  -551.59638300164613

   => Energetics <=

    Nuclear Repulsion Energy =            687.7976741377051439
    One-Electron Energy =               -2116.1760649049783751
    Two-Electron Energy =                 876.7820077656270996
    Total Energy =                       -551.5963830016461316
  Basis Set: (AUG-CC-PVTZ AUX)
    Blend: AUG-CC-PVTZ-RI
    Molecular point group: c1

    Geometry (in Angstrom), charge = 0, multiplicity = 1:

       Center              X                  Y                   Z               Mass
    ------------   -----------------  -----------------  -----------------  -----------------
         O            2.467489076455     0.523471985092    -0.043670881573    15.994914619570
         O            1.559897076455    -1.539052014908     0.100085118427    15.994914619570
         N           -1.133943923545    -1.709222014908    -0.140566881573    14.003074004430
         C           -1.111385923545    -0.339957014908    -0.039627881573    12.000000000000
         C            0.111940076455     0.390575985092    -0.017495881573    12.000000000000
         C           -2.315090923545     0.399495985092    -0.036345881573    12.000000000000
         C            0.090316076455     1.793950985092     0.046403118427    12.000000000000
         C           -2.310170923545     1.786735985092     0.022418118427    12.000000000000
         C           -1.106313923545     2.497022985092     0.051194118427    12.000000000000
         C            1.408885676455    -0.316000414908    -0.079288481573    12.000000000000
         C           -2.340549923545    -2.475594014908     0.084032118427    12.000000000000
         C            3.747041076455    -0.136936014908     0.003778118427    12.000000000000
         H           -3.264920923545    -0.124768014908    -0.058602881573     1.007825032230
         H            1.035939076455     2.325044985092     0.074465118427     1.007825032230
         H           -0.244809923545    -2.158837014908     0.048578118427     1.007825032230
         H           -3.259007923545     2.319388985092     0.029552118427     1.007825032230
         H           -1.104244923545     3.582238985092     0.100336118427     1.007825032230
         H           -2.812723923545    -2.255478014908     1.051706118427     1.007825032230
         H           -2.076047923545    -3.534029014908     0.058986118427     1.007825032230
         H           -3.076035923545    -2.295391014908    -0.706870881573     1.007825032230
         H            3.853849076455    -0.821702014908    -0.838715881573     1.007825032230
         H            3.855663076455    -0.693621014908     0.935744118427     1.007825032230
         H            4.477747076455     0.667491985092    -0.054969881573     1.007825032230

  Basis Set: AUG-CC-PVTZ
    Blend: AUG-CC-PVTZ
  Basis Set: (AUG-CC-PVTZ AUX)
    Blend: AUG-CC-PVTZ-JKFIT
	 Reference Energy          =    -551.5963830016461316 [Eh]
	 Singles Energy            =      -0.0000000000000000 [Eh]
	 Same-Spin Energy          =      -0.5793196369512058 [Eh]
	 Opposite-Spin Energy      =      -1.8006744842295381 [Eh]
	 Correlation Energy        =      -2.3799941211807440 [Eh]
	 Total Energy              =    -553.9763771228268752 [Eh]

	 ================> DF-SCS-MP2 Energies <==================
	-----------------------------------------------------------
	 SCS Same-Spin Scale       =       0.3333333333333333 [-]
	 SCS Opposite-Spin Scale   =       1.2000000000000000 [-]
	 SCS Same-Spin Energy      =      -0.1931065456504019 [Eh]
	 SCS Opposite-Spin Energy  =      -2.1608093810754458 [Eh]
	 SCS Correlation Energy    =      -2.3539159267258478 [Eh]
	 SCS Total Energy          =    -553.9502989283720353 [Eh]
	-----------------------------------------------------------

  Dipole Moment: [D]
     X:    -0.1189      Y:    -0.0577      Z:     0.2080     Total:     0.2464

*** Psi4 exiting successfully. Buy a developer a beer!
