                               Psi4 1.4a2.dev612

  ==> Input File <==

--------------------------------------------------------------------------
#psi4
#
memory 32 gb

molecule  {
0 1
  O        2.4822540     0.5405090    -0.0540980
  O        1.5746620    -1.5220150     0.0896580
  N       -1.1191790    -1.6921850    -0.1509940
  C       -1.0966210    -0.3229200    -0.0500550
  C        0.1259704     0.4009819    -0.1277002
  C       -2.3003260     0.4165330    -0.0467730
  C        0.1050810     1.8109880     0.0359760
  C       -2.2954060     1.8037730     0.0119910
  C       -1.0915490     2.5140600     0.0407670
  C        1.4212810    -0.3016580     0.0102200
  C       -2.3257850    -2.4585570     0.0736050
  C        3.7618060    -0.1198990    -0.0066490
  H       -3.2501560    -0.1077310    -0.0690300
  H        1.0507040     2.3420820     0.0640380
  H       -0.2300450    -2.1418000     0.0381510
  H       -3.2442430     2.3364260     0.0191250
  H       -1.0894800     3.5992760     0.0899090
  H       -2.7979590    -2.2384410     1.0412790
  H       -2.0612830    -3.5169920     0.0485590
  H       -3.0612710    -2.2783540    -0.7172980
  H        3.8686140    -0.8046650    -0.8491430
  H        3.8704280    -0.6765840     0.9253170
  H        4.4925120     0.6845290    -0.0653970
units angstrom
no_reorient  #important for SAPT in psi4, default
symmetry c1  #important for SAPT in psi4, default
}

set PROPERTIES_ORIGIN ["COM"]
properties('MP2/aug-cc-pvtz', properties = ['dipole'])
--------------------------------------------------------------------------

    Molecular point group: c1
  Charge       = 0
  Multiplicity = 1
  Basis Set: AUG-CC-PVTZ
    Blend: AUG-CC-PVTZ
  Basis Set: (AUG-CC-PVTZ AUX)
    Blend: AUG-CC-PVTZ-JKFIT

    Orbital Energies [Eh]
    ---------------------

    Doubly Occupied:

       1A    -20.602376     2A    -20.541331     3A    -15.563080
       4A    -11.385444     5A    -11.298421     6A    -11.284075
       7A    -11.258259     8A    -11.252551     9A    -11.251742
      10A    -11.240316    11A    -11.228041    12A    -11.223747
      13A     -1.453631    14A     -1.349582    15A     -1.245786
      16A     -1.141113    17A     -1.045148    18A     -1.009766
      19A     -0.968088    20A     -0.922813    21A     -0.864255
      22A     -0.808357    23A     -0.783752    24A     -0.727761
      25A     -0.699128    26A     -0.673242    27A     -0.668180
      28A     -0.660883    29A     -0.629337    30A     -0.616489
      31A     -0.612321    32A     -0.581790    33A     -0.575785
      34A     -0.555618    35A     -0.541985    36A     -0.534756
      37A     -0.525106    38A     -0.505675    39A     -0.500935
      40A     -0.464964    41A     -0.444055    42A     -0.427488
      43A     -0.348324    44A     -0.292204

  @DF-RHF Final Energy:  -551.59741130391012

   => Energetics <=

    Nuclear Repulsion Energy =            687.7899731039450444
    One-Electron Energy =               -2116.1593713859697345
    Two-Electron Energy =                 876.7719869781144553
    Total Energy =                       -551.5974113039101212
  Basis Set: (AUG-CC-PVTZ AUX)
    Blend: AUG-CC-PVTZ-RI
    Molecular point group: c1

    Geometry (in Angstrom), charge = 0, multiplicity = 1:

       Center              X                  Y                   Z               Mass
    ------------   -----------------  -----------------  -----------------  -----------------
         O            2.467714728445     0.524149893333    -0.043682396061    15.994914619570
         O            1.560122728445    -1.538374106667     0.100073603939    15.994914619570
         N           -1.133718271555    -1.708544106667    -0.140578396061    14.003074004430
         C           -1.111160271555    -0.339279106667    -0.039639396061    12.000000000000
         C            0.111431128445     0.384622793333    -0.117284596061    12.000000000000
         C           -2.314865271555     0.400173893333    -0.036357396061    12.000000000000
         C            0.090541728445     1.794628893333     0.046391603939    12.000000000000
         C           -2.309945271555     1.787413893333     0.022406603939    12.000000000000
         C           -1.106088271555     2.497700893333     0.051182603939    12.000000000000
         C            1.406741728445    -0.318017106667     0.020635603939    12.000000000000
         C           -2.340324271555    -2.474916106667     0.084020603939    12.000000000000
         C            3.747266728445    -0.136258106667     0.003766603939    12.000000000000
         H           -3.264695271555    -0.124090106667    -0.058614396061     1.007825032230
         H            1.036164728445     2.325722893333     0.074453603939     1.007825032230
         H           -0.244584271555    -2.158159106667     0.048566603939     1.007825032230
         H           -3.258782271555     2.320066893333     0.029540603939     1.007825032230
         H           -1.104019271555     3.582916893333     0.100324603939     1.007825032230
         H           -2.812498271555    -2.254800106667     1.051694603939     1.007825032230
         H           -2.075822271555    -3.533351106667     0.058974603939     1.007825032230
         H           -3.075810271555    -2.294713106667    -0.706882396061     1.007825032230
         H            3.854074728445    -0.821024106667    -0.838727396061     1.007825032230
         H            3.855888728445    -0.692943106667     0.935732603939     1.007825032230
         H            4.477972728445     0.668169893333    -0.054981396061     1.007825032230

  Basis Set: AUG-CC-PVTZ
    Blend: AUG-CC-PVTZ
  Basis Set: (AUG-CC-PVTZ AUX)
    Blend: AUG-CC-PVTZ-JKFIT
	 Reference Energy          =    -551.5974113039101212 [Eh]
	 Singles Energy            =      -0.0000000000000000 [Eh]
	 Same-Spin Energy          =      -0.5790045868453653 [Eh]
	 Opposite-Spin Energy      =      -1.7999737629167696 [Eh]
	 Correlation Energy        =      -2.3789783497621348 [Eh]
	 Total Energy              =    -553.9763896536722996 [Eh]

	 ================> DF-SCS-MP2 Energies <==================
	-----------------------------------------------------------
	 SCS Same-Spin Scale       =       0.3333333333333333 [-]
	 SCS Opposite-Spin Scale   =       1.2000000000000000 [-]
	 SCS Same-Spin Energy      =      -0.1930015289484551 [Eh]
	 SCS Opposite-Spin Energy  =      -2.1599685155001236 [Eh]
	 SCS Correlation Energy    =      -2.3529700444485786 [Eh]
	 SCS Total Energy          =    -553.9503813483587464 [Eh]
	-----------------------------------------------------------

  Dipole Moment: [D]
     X:    -0.2059      Y:    -0.0867      Z:     0.3516     Total:     0.4165

*** Psi4 exiting successfully. Buy a developer a beer!
