                               Psi4 1.4a2.dev612

  ==> Input File <==

--------------------------------------------------------------------------
#psi4
#
memory 32 gb

molecule  {
0 1
  O        2.4822540     0.5405090    -0.0540980
  O        1.5746620    -1.5220150     0.0896580
  N       -1.1191790    -1.6921850    -0.1509940
  C       -1.0966210    -0.3229200    -0.0500550
  C        0.1267050     0.4076130    -0.0279230
  C       -2.3003260     0.4165330    -0.0467730
  C        0.1050810     1.8109880     0.0359760
  C       -2.2954060     1.8037730     0.0119910
  C       -1.0915490     2.5140600     0.0407670
  C        1.4283897    -0.2935742    -0.2895868
  C       -2.3257850    -2.4585570     0.0736050
  C        3.7618060    -0.1198990    -0.0066490
  H       -3.2501560    -0.1077310    -0.0690300
  H        1.0507040     2.3420820     0.0640380
  H       -0.2300450    -2.1418000     0.0381510
  H       -3.2442430     2.3364260     0.0191250
  H       -1.0894800     3.5992760     0.0899090
  H       -2.7979590    -2.2384410     1.0412790
  H       -2.0612830    -3.5169920     0.0485590
  H       -3.0612710    -2.2783540    -0.7172980
  H        3.8686140    -0.8046650    -0.8491430
  H        3.8704280    -0.6765840     0.9253170
  H        4.4925120     0.6845290    -0.0653970
units angstrom
no_reorient  #important for SAPT in psi4, default
symmetry c1  #important for SAPT in psi4, default
}

set PROPERTIES_ORIGIN ["COM"]
properties('MP2/aug-cc-pvtz', properties = ['dipole'])
--------------------------------------------------------------------------

    Molecular point group: c1
  Charge       = 0
  Multiplicity = 1
  Basis Set: AUG-CC-PVTZ
    Blend: AUG-CC-PVTZ
  Basis Set: (AUG-CC-PVTZ AUX)
    Blend: AUG-CC-PVTZ-JKFIT

    Orbital Energies [Eh]
    ---------------------

    Doubly Occupied:

       1A    -20.606942     2A    -20.543658     3A    -15.562046
       4A    -11.398356     5A    -11.297961     6A    -11.284794
       7A    -11.257754     8A    -11.251323     9A    -11.249571
      10A    -11.245750    11A    -11.227717    12A    -11.223844
      13A     -1.445588    14A     -1.321855    15A     -1.244005
      16A     -1.141613    17A     -1.043464    18A     -1.009420
      19A     -0.968552    20A     -0.922511    21A     -0.861623
      22A     -0.808752    23A     -0.785486    24A     -0.724247
      25A     -0.697680    26A     -0.666960    27A     -0.665617
      28A     -0.656355    29A     -0.629283    30A     -0.614103
      31A     -0.611023    32A     -0.582554    33A     -0.572554
      34A     -0.549809    35A     -0.540363    36A     -0.532854
      37A     -0.520902    38A     -0.505360    39A     -0.500083
      40A     -0.454108    41A     -0.441569    42A     -0.426747
      43A     -0.346579    44A     -0.290483

  @DF-RHF Final Energy:  -551.55371828912553

   => Energetics <=

    Nuclear Repulsion Energy =            686.3962341404871950
    One-Electron Energy =               -2113.4362676178584479
    Two-Electron Energy =                 875.4863151882457259
    Total Energy =                       -551.5537182891255270
  Basis Set: (AUG-CC-PVTZ AUX)
    Blend: AUG-CC-PVTZ-RI
    Molecular point group: c1

    Geometry (in Angstrom), charge = 0, multiplicity = 1:

       Center              X                  Y                   Z               Mass
    ------------   -----------------  -----------------  -----------------  -----------------
         O            2.467144579533     0.523080230790    -0.029141748788    15.994914619570
         O            1.559552579533    -1.539443769210     0.114614251212    15.994914619570
         N           -1.134288420467    -1.709613769210    -0.126037748788    14.003074004430
         C           -1.111730420467    -0.340348769210    -0.025098748788    12.000000000000
         C            0.111595579533     0.390184230790    -0.002966748788    12.000000000000
         C           -2.315435420467     0.399104230790    -0.021816748788    12.000000000000
         C            0.089971579533     1.793559230790     0.060932251212    12.000000000000
         C           -2.310515420467     1.786344230790     0.036947251212    12.000000000000
         C           -1.106658420467     2.496631230790     0.065723251212    12.000000000000
         C            1.413280279533    -0.311002969210    -0.264630548788    12.000000000000
         C           -2.340894420467    -2.475985769210     0.098561251212    12.000000000000
         C            3.746696579533    -0.137327769210     0.018307251212    12.000000000000
         H           -3.265265420467    -0.125159769210    -0.044073748788     1.007825032230
         H            1.035594579533     2.324653230790     0.088994251212     1.007825032230
         H           -0.245154420467    -2.159228769210     0.063107251212     1.007825032230
         H           -3.259352420467     2.318997230790     0.044081251212     1.007825032230
         H           -1.104589420467     3.581847230790     0.114865251212     1.007825032230
         H           -2.813068420467    -2.255869769210     1.066235251212     1.007825032230
         H           -2.076392420467    -3.534420769210     0.073515251212     1.007825032230
         H           -3.076380420467    -2.295782769210    -0.692341748788     1.007825032230
         H            3.853504579533    -0.822093769210    -0.824186748788     1.007825032230
         H            3.855318579533    -0.694012769210     0.950273251212     1.007825032230
         H            4.477402579533     0.667100230790    -0.040440748788     1.007825032230

  Basis Set: AUG-CC-PVTZ
    Blend: AUG-CC-PVTZ
  Basis Set: (AUG-CC-PVTZ AUX)
    Blend: AUG-CC-PVTZ-JKFIT
	 Reference Energy          =    -551.5537182891255270 [Eh]
	 Singles Energy            =      -0.0000000000000000 [Eh]
	 Same-Spin Energy          =      -0.5820945586104929 [Eh]
	 Opposite-Spin Energy      =      -1.8075151970513259 [Eh]
	 Correlation Energy        =      -2.3896097556618185 [Eh]
	 Total Energy              =    -553.9433280447873358 [Eh]

	 ================> DF-SCS-MP2 Energies <==================
	-----------------------------------------------------------
	 SCS Same-Spin Scale       =       0.3333333333333333 [-]
	 SCS Opposite-Spin Scale   =       1.2000000000000000 [-]
	 SCS Same-Spin Energy      =      -0.1940315195368310 [Eh]
	 SCS Opposite-Spin Energy  =      -2.1690182364615911 [Eh]
	 SCS Correlation Energy    =      -2.3630497559984223 [Eh]
	 SCS Total Energy          =    -553.9167680451239448 [Eh]
	-----------------------------------------------------------

  Dipole Moment: [D]
     X:    -0.0703      Y:    -0.0668      Z:     0.0093     Total:     0.0974

*** Psi4 exiting successfully. Buy a developer a beer!
