                               Psi4 1.4a3.dev225

  ==> Input File <==

--------------------------------------------------------------------------
#psi4
#
memory 32 gb

molecule  {
-1 1
  O       -2.9714190     0.8843310    -0.7445430
  O       -2.9714760    -0.8842960     0.7444570
  O       -0.5719940    -3.2988010     0.7833720
  O       -0.5719130     3.2988430    -0.7832930
  O       -1.5583320    -2.6751640    -1.0959160
  O       -1.5583470     2.6751420     1.0959240
  O        3.9378030    -1.0985810    -0.0520130
  O        3.9378150     1.0985380     0.0519920
  N       -0.7516197    -2.5160561    -0.1061171
  N       -0.8441610     2.4722110     0.1047990
  N        3.3563290    -0.0000180    -0.0000080
  C       -0.9300790     0.0000040     0.0000050
  C       -0.1699680    -1.1712100    -0.0217940
  C       -0.1699550     1.1712130     0.0218080
  C        1.8913620    -0.0000110     0.0000000
  C        1.2196430    -1.2181880    -0.0070480
  C        1.2196550     1.2181740     0.0070530
  C       -2.4885490     0.0000140    -0.0000270
  H        1.7571850    -2.1596840    -0.0048420
  H        1.7572080     2.1596640     0.0048470
units angstrom
no_reorient  #important for SAPT in psi4, default
symmetry c1  #important for SAPT in psi4, default
}

set PROPERTIES_ORIGIN ["COM"]
properties('MP2/aug-cc-pvtz', properties = ['dipole'])
--------------------------------------------------------------------------

    Molecular point group: c1
  Charge       = -1
  Multiplicity = 1
  Basis Set: AUG-CC-PVTZ
    Blend: AUG-CC-PVTZ
  Basis Set: (AUG-CC-PVTZ AUX)
    Blend: AUG-CC-PVTZ-JKFIT

    Orbital Energies [Eh]
    ---------------------

    Doubly Occupied:

       1A    -20.542283     2A    -20.542211     3A    -20.534775
       4A    -20.516303     5A    -20.513500     6A    -20.498213
       7A    -20.367562     8A    -20.366917     9A    -15.793973
      10A    -15.763092    11A    -15.761916    12A    -11.248212
      13A    -11.241332    14A    -11.241235    15A    -11.226934
      16A    -11.223595    17A    -11.222067    18A    -11.212568
      19A     -1.525675    20A     -1.508883    21A     -1.496856
      22A     -1.323595    23A     -1.296573    24A     -1.287463
      25A     -1.243621    26A     -1.150362    27A     -1.149930
      28A     -1.048754    29A     -1.044639    30A     -0.910771
      31A     -0.901152    32A     -0.890114    33A     -0.760110
      34A     -0.743798    35A     -0.714131    36A     -0.675237
      37A     -0.672695    38A     -0.662061    39A     -0.654154
      40A     -0.647523    41A     -0.635097    42A     -0.630634
      43A     -0.628593    44A     -0.605052    45A     -0.563440
      46A     -0.557635    47A     -0.522592    48A     -0.503228
      49A     -0.488466    50A     -0.463635    51A     -0.441311
      52A     -0.433541    53A     -0.426294    54A     -0.418423
      55A     -0.406777    56A     -0.401175    57A     -0.392689
      58A     -0.391708    59A     -0.357394    60A     -0.351917
      61A     -0.316197    62A     -0.307874    63A     -0.280003
      64A     -0.278048    65A     -0.261113

  @DF-RHF Final Energy: -1028.51995792499088

   => Energetics <=

    Nuclear Repulsion Energy =           1322.9395484420131197
    One-Electron Energy =               -4056.5437644288740557
    Two-Electron Energy =                1705.0842580618702868
    Total Energy =                      -1028.5199579249908766
  Basis Set: (AUG-CC-PVTZ AUX)
    Blend: AUG-CC-PVTZ-RI
    Molecular point group: c1

    Geometry (in Angstrom), charge = -1, multiplicity = 1:

       Center              X                  Y                   Z               Mass
    ------------   -----------------  -----------------  -----------------  -----------------
         O           -2.962927535869     0.886729954620    -0.744469087874    15.994914619570
         O           -2.962984535869    -0.881897045380     0.744530912126    15.994914619570
         O           -0.563502535869    -3.296402045380     0.783445912126    15.994914619570
         O           -0.563421535869     3.301241954620    -0.783219087874    15.994914619570
         O           -1.549840535869    -2.672765045380    -1.095842087874    15.994914619570
         O           -1.549855535869     2.677540954620     1.095997912126    15.994914619570
         O            3.946294464131    -1.096182045380    -0.051939087874    15.994914619570
         O            3.946306464131     1.100936954620     0.052065912126    15.994914619570
         N           -0.743128235869    -2.513657145380    -0.106043187874    14.003074004430
         N           -0.835669535869     2.474609954620     0.104872912126    14.003074004430
         N            3.364820464131     0.002380954620     0.000065912126    14.003074004430
         C           -0.921587535869     0.002402954620     0.000078912126    12.000000000000
         C           -0.161476535869    -1.168811045380    -0.021720087874    12.000000000000
         C           -0.161463535869     1.173611954620     0.021881912126    12.000000000000
         C            1.899853464131     0.002387954620     0.000073912126    12.000000000000
         C            1.228134464131    -1.215789045380    -0.006974087874    12.000000000000
         C            1.228146464131     1.220572954620     0.007126912126    12.000000000000
         C           -2.480057535869     0.002412954620     0.000046912126    12.000000000000
         H            1.765676464131    -2.157285045380    -0.004768087874     1.007825032230
         H            1.765699464131     2.162062954620     0.004920912126     1.007825032230

  Basis Set: AUG-CC-PVTZ
    Blend: AUG-CC-PVTZ
  Basis Set: (AUG-CC-PVTZ AUX)
    Blend: AUG-CC-PVTZ-JKFIT
	 Reference Energy          =   -1028.5199579249908766 [Eh]
	 Singles Energy            =      -0.0000000000000000 [Eh]
	 Same-Spin Energy          =      -1.0570113139796276 [Eh]
	 Opposite-Spin Energy      =      -2.9534381953277205 [Eh]
	 Correlation Energy        =      -4.0104495093073478 [Eh]
	 Total Energy              =   -1032.5304074342982403 [Eh]

	 ================> DF-SCS-MP2 Energies <==================
	-----------------------------------------------------------
	 SCS Same-Spin Scale       =       0.3333333333333333 [-]
	 SCS Opposite-Spin Scale   =       1.2000000000000000 [-]
	 SCS Same-Spin Energy      =      -0.3523371046598758 [Eh]
	 SCS Opposite-Spin Energy  =      -3.5441258343932645 [Eh]
	 SCS Correlation Energy    =      -3.8964629390531402 [Eh]
	 SCS Total Energy          =   -1032.4164208640440847 [Eh]
	-----------------------------------------------------------

  Dipole Moment: [D]
     X:     8.9648      Y:    -0.1050      Z:     0.1765     Total:     8.9671

*** Psi4 exiting successfully. Buy a developer a beer!
