                               Psi4 1.4a3.dev225

  ==> Input File <==

--------------------------------------------------------------------------
#psi4
#
memory 32 gb

molecule  {
-1 1
  O       -2.9714190     0.8843310    -0.7445430
  O       -2.9714760    -0.8842960     0.7444570
  O       -0.5719940    -3.2988010     0.7833720
  O       -0.5719130     3.2988430    -0.7832930
  O       -1.5583320    -2.6751640    -1.0959160
  O       -1.5583470     2.6751420     1.0959240
  O        3.9378030    -1.0985810    -0.0520130
  O        3.9378150     1.0985380     0.0519920
  N       -0.8441900    -2.4722020    -0.1047670
  N       -0.8441610     2.4722110     0.1047990
  N        3.3563290    -0.0000180    -0.0000080
  C       -0.9300790     0.0000040     0.0000050
  C       -0.1699680    -1.1712100    -0.0217940
  C       -0.1699550     1.1712130     0.0218080
  C        1.8913620    -0.0000110     0.0000000
  C        1.2196430    -1.2181880    -0.0070480
  C        1.2396425     1.2188495     0.0068408
  C       -2.4885490     0.0000140    -0.0000270
  H        1.7571850    -2.1596840    -0.0048420
  H        1.7572080     2.1596640     0.0048470
units angstrom
no_reorient  #important for SAPT in psi4, default
symmetry c1  #important for SAPT in psi4, default
}

set PROPERTIES_ORIGIN ["COM"]
properties('MP2/aug-cc-pvtz', properties = ['dipole'])
--------------------------------------------------------------------------

    Molecular point group: c1
  Charge       = -1
  Multiplicity = 1
  Basis Set: AUG-CC-PVTZ
    Blend: AUG-CC-PVTZ
  Basis Set: (AUG-CC-PVTZ AUX)
    Blend: AUG-CC-PVTZ-JKFIT

    Orbital Energies [Eh]
    ---------------------

    Doubly Occupied:

       1A    -20.542533     2A    -20.542259     3A    -20.516460
       4A    -20.516183     5A    -20.513665     6A    -20.513367
       7A    -20.369539     8A    -20.369365     9A    -15.793872
      10A    -15.763088    11A    -15.762907    12A    -11.248760
      13A    -11.242305    14A    -11.241438    15A    -11.228819
      16A    -11.224191    17A    -11.223026    18A    -11.210282
      19A     -1.525857    20A     -1.497072    21A     -1.496642
      22A     -1.323739    23A     -1.296760    24A     -1.296455
      25A     -1.246147    26A     -1.152806    27A     -1.149086
      28A     -1.050426    29A     -1.040860    30A     -0.911951
      31A     -0.896176    32A     -0.893669    33A     -0.760090
      34A     -0.741596    35A     -0.712824    36A     -0.675594
      37A     -0.672651    38A     -0.661669    39A     -0.651252
      40A     -0.647656    41A     -0.634273    42A     -0.629658
      43A     -0.627805    44A     -0.605161    45A     -0.562183
      46A     -0.555895    47A     -0.524930    48A     -0.504564
      49A     -0.488609    50A     -0.465346    51A     -0.441148
      52A     -0.433961    53A     -0.427825    54A     -0.416677
      55A     -0.407582    56A     -0.403901    57A     -0.394537
      58A     -0.391738    59A     -0.358177    60A     -0.353765
      61A     -0.318151    62A     -0.305374    63A     -0.281833
      64A     -0.280063    65A     -0.263748

  @DF-RHF Final Energy: -1028.52777956018326

   => Energetics <=

    Nuclear Repulsion Energy =           1323.2554833928340940
    One-Electron Energy =               -4057.1666318340680846
    Two-Electron Energy =                1705.3833688810509557
    Total Energy =                      -1028.5277795601832622
  Basis Set: (AUG-CC-PVTZ AUX)
    Blend: AUG-CC-PVTZ-RI
    Molecular point group: c1

    Geometry (in Angstrom), charge = -1, multiplicity = 1:

       Center              X                  Y                   Z               Mass
    ------------   -----------------  -----------------  -----------------  -----------------
         O           -2.958800645199     0.884299342753    -0.744532994752    15.994914619570
         O           -2.958857645199    -0.884327657247     0.744467005248    15.994914619570
         O           -0.559375645199    -3.298832657247     0.783382005248    15.994914619570
         O           -0.559294645199     3.298811342753    -0.783282994752    15.994914619570
         O           -1.545713645199    -2.675195657247    -1.095905994752    15.994914619570
         O           -1.545728645199     2.675110342753     1.095934005248    15.994914619570
         O            3.950421354801    -1.098612657247    -0.052002994752    15.994914619570
         O            3.950433354801     1.098506342753     0.052002005248    15.994914619570
         N           -0.831571645199    -2.472233657247    -0.104756994752    14.003074004430
         N           -0.831542645199     2.472179342753     0.104809005248    14.003074004430
         N            3.368947354801    -0.000049657247     0.000002005248    14.003074004430
         C           -0.917460645199    -0.000027657247     0.000015005248    12.000000000000
         C           -0.157349645199    -1.171241657247    -0.021783994752    12.000000000000
         C           -0.157336645199     1.171181342753     0.021818005248    12.000000000000
         C            1.903980354801    -0.000042657247     0.000010005248    12.000000000000
         C            1.232261354801    -1.218219657247    -0.007037994752    12.000000000000
         C            1.252260854801     1.218817842753     0.006850805248    12.000000000000
         C           -2.475930645199    -0.000017657247    -0.000016994752    12.000000000000
         H            1.769803354801    -2.159715657247    -0.004831994752     1.007825032230
         H            1.769826354801     2.159632342753     0.004857005248     1.007825032230

  Basis Set: AUG-CC-PVTZ
    Blend: AUG-CC-PVTZ
  Basis Set: (AUG-CC-PVTZ AUX)
    Blend: AUG-CC-PVTZ-JKFIT
	 Reference Energy          =   -1028.5277795601832622 [Eh]
	 Singles Energy            =      -0.0000000000000000 [Eh]
	 Same-Spin Energy          =      -1.0569897793447296 [Eh]
	 Opposite-Spin Energy      =      -2.9532097211833546 [Eh]
	 Correlation Energy        =      -4.0101995005280839 [Eh]
	 Total Energy              =   -1032.5379790607114501 [Eh]

	 ================> DF-SCS-MP2 Energies <==================
	-----------------------------------------------------------
	 SCS Same-Spin Scale       =       0.3333333333333333 [-]
	 SCS Opposite-Spin Scale   =       1.2000000000000000 [-]
	 SCS Same-Spin Energy      =      -0.3523299264482432 [Eh]
	 SCS Opposite-Spin Energy  =      -3.5438516654200254 [Eh]
	 SCS Correlation Energy    =      -3.8961815918682685 [Eh]
	 SCS Total Energy          =   -1032.4239611520515609 [Eh]
	-----------------------------------------------------------

  Dipole Moment: [D]
     X:     8.8223      Y:     0.0020      Z:     0.0017     Total:     8.8223

*** Psi4 exiting successfully. Buy a developer a beer!
