                               Psi4 1.4a3.dev225

  ==> Input File <==

--------------------------------------------------------------------------
#psi4
#
memory 32 gb

molecule  {
-1 1
  O       -2.9714190     0.8843310    -0.7445430
  O       -2.9714760    -0.8842960     0.7444570
  O       -0.5719940    -3.2988010     0.7833720
  O       -0.5719130     3.2988430    -0.7832930
  O       -1.5583320    -2.6751640    -1.0959160
  O       -1.5583470     2.6751420     1.0959240
  O        3.9378030    -1.0985810    -0.0520130
  O        3.9378150     1.0985380     0.0519920
  N       -0.8441900    -2.4722020    -0.1047670
  N       -0.8441610     2.4722110     0.1047990
  N        3.3563290    -0.0000180    -0.0000080
  C       -0.9300790     0.0000040     0.0000050
  C       -0.1240296    -1.0825663    -0.0161406
  C       -0.1699550     1.1712130     0.0218080
  C        1.8913620    -0.0000110     0.0000000
  C        1.2196430    -1.2181880    -0.0070480
  C        1.2196550     1.2181740     0.0070530
  C       -2.4885490     0.0000140    -0.0000270
  H        1.7571850    -2.1596840    -0.0048420
  H        1.7572080     2.1596640     0.0048470
units angstrom
no_reorient  #important for SAPT in psi4, default
symmetry c1  #important for SAPT in psi4, default
}

set PROPERTIES_ORIGIN ["COM"]
properties('MP2/aug-cc-pvtz', properties = ['dipole'])
--------------------------------------------------------------------------

    Molecular point group: c1
  Charge       = -1
  Multiplicity = 1
  Basis Set: AUG-CC-PVTZ
    Blend: AUG-CC-PVTZ
  Basis Set: (AUG-CC-PVTZ AUX)
    Blend: AUG-CC-PVTZ-JKFIT

    Orbital Energies [Eh]
    ---------------------

    Doubly Occupied:

       1A    -20.543683     2A    -20.543466     3A    -20.517132
       4A    -20.514273     5A    -20.511075     6A    -20.508368
       7A    -20.371385     8A    -20.370781     9A    -15.794765
      10A    -15.763298    11A    -15.754517    12A    -11.250578
      13A    -11.243163    14A    -11.240514    15A    -11.231938
      16A    -11.222163    17A    -11.220055    18A    -11.206057
      19A     -1.526819    20A     -1.497641    21A     -1.484577
      22A     -1.324731    23A     -1.297364    24A     -1.288998
      25A     -1.247741    26A     -1.159212    27A     -1.154211
      28A     -1.052675    29A     -1.037521    30A     -0.916343
      31A     -0.900881    32A     -0.873869    33A     -0.762281
      34A     -0.741293    35A     -0.711716    36A     -0.681152
      37A     -0.673585    38A     -0.656553    39A     -0.648664
      40A     -0.645005    41A     -0.632655    42A     -0.628920
      43A     -0.620636    44A     -0.601257    45A     -0.571395
      46A     -0.560606    47A     -0.525252    48A     -0.508702
      49A     -0.496510    50A     -0.467970    51A     -0.442185
      52A     -0.435085    53A     -0.429585    54A     -0.414972
      55A     -0.405061    56A     -0.400832    57A     -0.392618
      58A     -0.380016    59A     -0.357529    60A     -0.350853
      61A     -0.321132    62A     -0.312201    63A     -0.284931
      64A     -0.282590    65A     -0.264812

  @DF-RHF Final Energy: -1028.51821042986035

   => Energetics <=

    Nuclear Repulsion Energy =           1324.0128662946135591
    One-Electron Energy =               -4058.7054589921599472
    Two-Electron Energy =                1706.1743822676860418
    Total Energy =                      -1028.5182104298603463
  Basis Set: (AUG-CC-PVTZ AUX)
    Blend: AUG-CC-PVTZ-RI
    Molecular point group: c1

    Geometry (in Angstrom), charge = -1, multiplicity = 1:

       Center              X                  Y                   Z               Mass
    ------------   -----------------  -----------------  -----------------  -----------------
         O           -2.960017168770     0.880175578687    -0.744807961734    15.994914619570
         O           -2.960074168770    -0.888451421313     0.744192038266    15.994914619570
         O           -0.560592168770    -3.302956421313     0.783107038266    15.994914619570
         O           -0.560511168770     3.294687578687    -0.783557961734    15.994914619570
         O           -1.546930168770    -2.679319421313    -1.096180961734    15.994914619570
         O           -1.546945168770     2.670986578687     1.095659038266    15.994914619570
         O            3.949204831230    -1.102736421313    -0.052277961734    15.994914619570
         O            3.949216831230     1.094382578687     0.051727038266    15.994914619570
         N           -0.832788168770    -2.476357421313    -0.105031961734    14.003074004430
         N           -0.832759168770     2.468055578687     0.104534038266    14.003074004430
         N            3.367730831230    -0.004173421313    -0.000272961734    14.003074004430
         C           -0.918677168770    -0.004151421313    -0.000259961734    12.000000000000
         C           -0.112627768770    -1.086721721313    -0.016405561734    12.000000000000
         C           -0.158553168770     1.167057578687     0.021543038266    12.000000000000
         C            1.902763831230    -0.004166421313    -0.000264961734    12.000000000000
         C            1.231044831230    -1.222343421313    -0.007312961734    12.000000000000
         C            1.231056831230     1.214018578687     0.006788038266    12.000000000000
         C           -2.477147168770    -0.004141421313    -0.000291961734    12.000000000000
         H            1.768586831230    -2.163839421313    -0.005106961734     1.007825032230
         H            1.768609831230     2.155508578687     0.004582038266     1.007825032230

  Basis Set: AUG-CC-PVTZ
    Blend: AUG-CC-PVTZ
  Basis Set: (AUG-CC-PVTZ AUX)
    Blend: AUG-CC-PVTZ-JKFIT
	 Reference Energy          =   -1028.5182104298603463 [Eh]
	 Singles Energy            =      -0.0000000000000000 [Eh]
	 Same-Spin Energy          =      -1.0575273339640459 [Eh]
	 Opposite-Spin Energy      =      -2.9539339587449369 [Eh]
	 Correlation Energy        =      -4.0114612927089830 [Eh]
	 Total Energy              =   -1032.5296717225692191 [Eh]

	 ================> DF-SCS-MP2 Energies <==================
	-----------------------------------------------------------
	 SCS Same-Spin Scale       =       0.3333333333333333 [-]
	 SCS Opposite-Spin Scale   =       1.2000000000000000 [-]
	 SCS Same-Spin Energy      =      -0.3525091113213486 [Eh]
	 SCS Opposite-Spin Energy  =      -3.5447207504939242 [Eh]
	 SCS Correlation Energy    =      -3.8972298618152728 [Eh]
	 SCS Total Energy          =   -1032.4154402916756226 [Eh]
	-----------------------------------------------------------

  Dipole Moment: [D]
     X:     8.8710      Y:     0.1645      Z:     0.0107     Total:     8.8725

*** Psi4 exiting successfully. Buy a developer a beer!
