                               Psi4 1.4a3.dev225

  ==> Input File <==

--------------------------------------------------------------------------
#psi4
#
memory 32 gb

molecule  {
-1 1
  O       -2.9714190     0.8843310    -0.7445430
  O       -2.9714760    -0.8842960     0.7444570
  O       -0.5719940    -3.2988010     0.7833720
  O       -0.5719130     3.2988430    -0.7832930
  O       -1.5583320    -2.6751640    -1.0959160
  O       -1.5583470     2.6751420     1.0959240
  O        3.9378030    -1.0985810    -0.0520130
  O        3.9378150     1.0985380     0.0519920
  N       -0.8441900    -2.4722020    -0.1047670
  N       -0.8441610     2.4722110     0.1047990
  N        3.3563290    -0.0000180    -0.0000080
  C       -0.9300790     0.0000040     0.0000050
  C       -0.1699680    -1.1712100    -0.0217940
  C       -0.1240176     1.0825689     0.0161534
  C        1.8913620    -0.0000110     0.0000000
  C        1.2196430    -1.2181880    -0.0070480
  C        1.2196550     1.2181740     0.0070530
  C       -2.4885490     0.0000140    -0.0000270
  H        1.7571850    -2.1596840    -0.0048420
  H        1.7572080     2.1596640     0.0048470
units angstrom
no_reorient  #important for SAPT in psi4, default
symmetry c1  #important for SAPT in psi4, default
}

set PROPERTIES_ORIGIN ["COM"]
properties('MP2/aug-cc-pvtz', properties = ['dipole'])
--------------------------------------------------------------------------

    Molecular point group: c1
  Charge       = -1
  Multiplicity = 1
  Basis Set: AUG-CC-PVTZ
    Blend: AUG-CC-PVTZ
  Basis Set: (AUG-CC-PVTZ AUX)
    Blend: AUG-CC-PVTZ-JKFIT

    Orbital Energies [Eh]
    ---------------------

    Doubly Occupied:

       1A    -20.543683     2A    -20.543465     3A    -20.517133
       4A    -20.514273     5A    -20.511074     6A    -20.508368
       7A    -20.371385     8A    -20.370780     9A    -15.794765
      10A    -15.763298    11A    -15.754518    12A    -11.250578
      13A    -11.243163    14A    -11.240514    15A    -11.231938
      16A    -11.222163    17A    -11.220054    18A    -11.206057
      19A     -1.526819    20A     -1.497641    21A     -1.484577
      22A     -1.324731    23A     -1.297364    24A     -1.288998
      25A     -1.247741    26A     -1.159212    27A     -1.154211
      28A     -1.052675    29A     -1.037521    30A     -0.916343
      31A     -0.900881    32A     -0.873869    33A     -0.762281
      34A     -0.741293    35A     -0.711716    36A     -0.681152
      37A     -0.673585    38A     -0.656553    39A     -0.648664
      40A     -0.645005    41A     -0.632655    42A     -0.628921
      43A     -0.620635    44A     -0.601256    45A     -0.571396
      46A     -0.560605    47A     -0.525252    48A     -0.508702
      49A     -0.496510    50A     -0.467970    51A     -0.442185
      52A     -0.435085    53A     -0.429585    54A     -0.414972
      55A     -0.405061    56A     -0.400832    57A     -0.392618
      58A     -0.380016    59A     -0.357529    60A     -0.350853
      61A     -0.321133    62A     -0.312201    63A     -0.284931
      64A     -0.282590    65A     -0.264812

  @DF-RHF Final Energy: -1028.51821062801855

   => Energetics <=

    Nuclear Repulsion Energy =           1324.0128651925169834
    One-Electron Energy =               -4058.7054573328928200
    Two-Electron Energy =                1706.1743815123572858
    Total Energy =                      -1028.5182106280185508
  Basis Set: (AUG-CC-PVTZ AUX)
    Blend: AUG-CC-PVTZ-RI
    Molecular point group: c1

    Geometry (in Angstrom), charge = -1, multiplicity = 1:

       Center              X                  Y                   Z               Mass
    ------------   -----------------  -----------------  -----------------  -----------------
         O           -2.960017121893     0.888486457605    -0.744277866495    15.994914619570
         O           -2.960074121893    -0.880140542395     0.744722133505    15.994914619570
         O           -0.560592121893    -3.294645542395     0.783637133505    15.994914619570
         O           -0.560511121893     3.302998457605    -0.783027866495    15.994914619570
         O           -1.546930121893    -2.671008542395    -1.095650866495    15.994914619570
         O           -1.546945121893     2.679297457605     1.096189133505    15.994914619570
         O            3.949204878107    -1.094425542395    -0.051747866495    15.994914619570
         O            3.949216878107     1.102693457605     0.052257133505    15.994914619570
         N           -0.832788121893    -2.468046542395    -0.104501866495    14.003074004430
         N           -0.832759121893     2.476366457605     0.105064133505    14.003074004430
         N            3.367730878107     0.004137457605     0.000257133505    14.003074004430
         C           -0.918677121893     0.004159457605     0.000270133505    12.000000000000
         C           -0.158566121893    -1.167054542395    -0.021528866495    12.000000000000
         C           -0.112615721893     1.086724357605     0.016418533505    12.000000000000
         C            1.902763878107     0.004144457605     0.000265133505    12.000000000000
         C            1.231044878107    -1.214032542395    -0.006782866495    12.000000000000
         C            1.231056878107     1.222329457605     0.007318133505    12.000000000000
         C           -2.477147121893     0.004169457605     0.000238133505    12.000000000000
         H            1.768586878107    -2.155528542395    -0.004576866495     1.007825032230
         H            1.768609878107     2.163819457605     0.005112133505     1.007825032230

  Basis Set: AUG-CC-PVTZ
    Blend: AUG-CC-PVTZ
  Basis Set: (AUG-CC-PVTZ AUX)
    Blend: AUG-CC-PVTZ-JKFIT
	 Reference Energy          =   -1028.5182106280185508 [Eh]
	 Singles Energy            =      -0.0000000000000000 [Eh]
	 Same-Spin Energy          =      -1.0575273476446909 [Eh]
	 Opposite-Spin Energy      =      -2.9539340021528400 [Eh]
	 Correlation Energy        =      -4.0114613497975311 [Eh]
	 Total Energy              =   -1032.5296719778161787 [Eh]

	 ================> DF-SCS-MP2 Energies <==================
	-----------------------------------------------------------
	 SCS Same-Spin Scale       =       0.3333333333333333 [-]
	 SCS Opposite-Spin Scale   =       1.2000000000000000 [-]
	 SCS Same-Spin Energy      =      -0.3525091158815636 [Eh]
	 SCS Opposite-Spin Energy  =      -3.5447208025834080 [Eh]
	 SCS Correlation Energy    =      -3.8972299184649715 [Eh]
	 SCS Total Energy          =   -1032.4154405464835236 [Eh]
	-----------------------------------------------------------

  Dipole Moment: [D]
     X:     8.8710      Y:    -0.1646      Z:    -0.0105     Total:     8.8725

*** Psi4 exiting successfully. Buy a developer a beer!
