                               Psi4 1.4a3.dev225

  ==> Input File <==

--------------------------------------------------------------------------
#psi4
#
memory 32 gb

molecule  {
-1 1
  O       -2.9714190     0.8843310    -0.7445430
  O       -2.9714760    -0.8842960     0.7444570
  O       -0.5719940    -3.2988010     0.7833720
  O       -0.5719130     3.2988430    -0.7832930
  O       -1.5583320    -2.6751640    -1.0959160
  O       -1.5583470     2.6751420     1.0959240
  O        3.9378030    -1.0985810    -0.0520130
  O        3.9378150     1.0985380     0.0519920
  N       -0.8441900    -2.4722020    -0.1047670
  N       -0.8332136     2.5054507     0.0690880
  N        3.3563290    -0.0000180    -0.0000080
  C       -0.9300790     0.0000040     0.0000050
  C       -0.1699680    -1.1712100    -0.0217940
  C       -0.1699550     1.1712130     0.0218080
  C        1.8913620    -0.0000110     0.0000000
  C        1.2196430    -1.2181880    -0.0070480
  C        1.2196550     1.2181740     0.0070530
  C       -2.4885490     0.0000140    -0.0000270
  H        1.7571850    -2.1596840    -0.0048420
  H        1.7572080     2.1596640     0.0048470
units angstrom
no_reorient  #important for SAPT in psi4, default
symmetry c1  #important for SAPT in psi4, default
}

set PROPERTIES_ORIGIN ["COM"]
properties('MP2/aug-cc-pvtz', properties = ['dipole'])
--------------------------------------------------------------------------

    Molecular point group: c1
  Charge       = -1
  Multiplicity = 1
  Basis Set: AUG-CC-PVTZ
    Blend: AUG-CC-PVTZ
  Basis Set: (AUG-CC-PVTZ AUX)
    Blend: AUG-CC-PVTZ-JKFIT

    Orbital Energies [Eh]
    ---------------------

    Doubly Occupied:

       1A    -20.541797     2A    -20.541739     3A    -20.531321
       4A    -20.515723     5A    -20.512928     6A    -20.499585
       7A    -20.368343     8A    -20.368271     9A    -15.793616
      10A    -15.763437    11A    -15.762357    12A    -11.247986
      13A    -11.240791    14A    -11.240096    15A    -11.227721
      16A    -11.222239    17A    -11.221992    18A    -11.210105
      19A     -1.525211    20A     -1.514088    21A     -1.496275
      22A     -1.323117    23A     -1.299548    24A     -1.296015
      25A     -1.244769    26A     -1.151564    27A     -1.148193
      28A     -1.047770    29A     -1.038656    30A     -0.910387
      31A     -0.895034    32A     -0.888465    33A     -0.760167
      34A     -0.742909    35A     -0.714057    36A     -0.674773
      37A     -0.672181    38A     -0.661746    39A     -0.653080
      40A     -0.647067    41A     -0.636054    42A     -0.632273
      43A     -0.628444    44A     -0.607018    45A     -0.565014
      46A     -0.557512    47A     -0.521387    48A     -0.503898
      49A     -0.488676    50A     -0.464515    51A     -0.440732
      52A     -0.433256    53A     -0.426814    54A     -0.419385
      55A     -0.406004    56A     -0.402209    57A     -0.391345
      58A     -0.390047    59A     -0.359234    60A     -0.353729
      61A     -0.315989    62A     -0.306688    63A     -0.280690
      64A     -0.278490    65A     -0.262427

  @DF-RHF Final Energy: -1028.52757506335865

   => Energetics <=

    Nuclear Repulsion Energy =           1323.1327748034259457
    One-Electron Energy =               -4056.9468006951101415
    Two-Electron Energy =                1705.2864508283255418
    Total Energy =                      -1028.5275750633586540
  Basis Set: (AUG-CC-PVTZ AUX)
    Blend: AUG-CC-PVTZ-RI
    Molecular point group: c1

    Geometry (in Angstrom), charge = -1, multiplicity = 1:

       Center              X                  Y                   Z               Mass
    ------------   -----------------  -----------------  -----------------  -----------------
         O           -2.958462527645     0.882512701239    -0.742589447466    15.994914619570
         O           -2.958519527645    -0.886114298761     0.746410552534    15.994914619570
         O           -0.559037527645    -3.300619298761     0.785325552534    15.994914619570
         O           -0.558956527645     3.297024701239    -0.781339447466    15.994914619570
         O           -1.545375527645    -2.676982298761    -1.093962447466    15.994914619570
         O           -1.545390527645     2.673323701239     1.097877552534    15.994914619570
         O            3.950759472355    -1.100399298761    -0.050059447466    15.994914619570
         O            3.950771472355     1.096719701239     0.053945552534    15.994914619570
         N           -0.831233527645    -2.474020298761    -0.102813447466    14.003074004430
         N           -0.820257127645     2.503632401239     0.071041552534    14.003074004430
         N            3.369285472355    -0.001836298761     0.001945552534    14.003074004430
         C           -0.917122527645    -0.001814298761     0.001958552534    12.000000000000
         C           -0.157011527645    -1.173028298761    -0.019840447466    12.000000000000
         C           -0.156998527645     1.169394701239     0.023761552534    12.000000000000
         C            1.904318472355    -0.001829298761     0.001953552534    12.000000000000
         C            1.232599472355    -1.220006298761    -0.005094447466    12.000000000000
         C            1.232611472355     1.216355701239     0.009006552534    12.000000000000
         C           -2.475592527645    -0.001804298761     0.001926552534    12.000000000000
         H            1.770141472355    -2.161502298761    -0.002888447466     1.007825032230
         H            1.770164472355     2.157845701239     0.006800552534     1.007825032230

  Basis Set: AUG-CC-PVTZ
    Blend: AUG-CC-PVTZ
  Basis Set: (AUG-CC-PVTZ AUX)
    Blend: AUG-CC-PVTZ-JKFIT
	 Reference Energy          =   -1028.5275750633586540 [Eh]
	 Singles Energy            =      -0.0000000000000000 [Eh]
	 Same-Spin Energy          =      -1.0561244152162872 [Eh]
	 Opposite-Spin Energy      =      -2.9510793729027367 [Eh]
	 Correlation Energy        =      -4.0072037881190239 [Eh]
	 Total Energy              =   -1032.5347788514777676 [Eh]

	 ================> DF-SCS-MP2 Energies <==================
	-----------------------------------------------------------
	 SCS Same-Spin Scale       =       0.3333333333333333 [-]
	 SCS Opposite-Spin Scale   =       1.2000000000000000 [-]
	 SCS Same-Spin Energy      =      -0.3520414717387624 [Eh]
	 SCS Opposite-Spin Energy  =      -3.5412952474832839 [Eh]
	 SCS Correlation Energy    =      -3.8933367192220465 [Eh]
	 SCS Total Energy          =   -1032.4209117825807880 [Eh]
	-----------------------------------------------------------

  Dipole Moment: [D]
     X:     8.8424      Y:     0.1868      Z:    -0.1988     Total:     8.8467

*** Psi4 exiting successfully. Buy a developer a beer!
