                               Psi4 1.4a3.dev225

  ==> Input File <==

--------------------------------------------------------------------------
#psi4
#
memory 32 gb

molecule  {
-1 1
  O       -2.9714190     0.8843310    -0.7445430
  O       -2.9714760    -0.8842960     0.7444570
  O       -0.5719940    -3.2988010     0.7833720
  O       -0.5719130     3.2988430    -0.7832930
  O       -1.5583320    -2.6751640    -1.0959160
  O       -1.5583470     2.6751420     1.0959240
  O        3.9378030    -1.0985810    -0.0520130
  O        3.9378150     1.0985380     0.0519920
  N       -0.8441900    -2.4722020    -0.1047670
  N       -0.8441610     2.4722110     0.1047990
  N        3.3563290    -0.0000180    -0.0000080
  C       -0.9300790     0.0000040     0.0000050
  C       -0.1808546    -1.1544355    -0.0214818
  C       -0.1699550     1.1712130     0.0218080
  C        1.8913620    -0.0000110     0.0000000
  C        1.2196430    -1.2181880    -0.0070480
  C        1.2196550     1.2181740     0.0070530
  C       -2.4885490     0.0000140    -0.0000270
  H        1.7571850    -2.1596840    -0.0048420
  H        1.7572080     2.1596640     0.0048470
units angstrom
no_reorient  #important for SAPT in psi4, default
symmetry c1  #important for SAPT in psi4, default
}

set PROPERTIES_ORIGIN ["COM"]
properties('MP2/aug-cc-pvtz', properties = ['dipole'])
--------------------------------------------------------------------------

    Molecular point group: c1
  Charge       = -1
  Multiplicity = 1
  Basis Set: AUG-CC-PVTZ
    Blend: AUG-CC-PVTZ
  Basis Set: (AUG-CC-PVTZ AUX)
    Blend: AUG-CC-PVTZ-JKFIT

    Orbital Energies [Eh]
    ---------------------

    Doubly Occupied:

       1A    -20.542877     2A    -20.542648     3A    -20.516361
       4A    -20.515823     5A    -20.513577     6A    -20.513205
       7A    -20.369495     8A    -20.369435     9A    -15.794465
      10A    -15.762997    11A    -15.762341    12A    -11.249315
      13A    -11.241418    14A    -11.240639    15A    -11.228844
      16A    -11.225149    17A    -11.222610    18A    -11.207826
      19A     -1.526123    20A     -1.496946    21A     -1.495621
      22A     -1.324012    23A     -1.296665    24A     -1.295923
      25A     -1.246272    26A     -1.152848    27A     -1.150252
      28A     -1.050647    29A     -1.040875    30A     -0.912135
      31A     -0.897632    32A     -0.891124    33A     -0.760361
      34A     -0.742227    35A     -0.712391    36A     -0.676402
      37A     -0.672870    38A     -0.659795    39A     -0.651652
      40A     -0.647830    41A     -0.634335    42A     -0.629313
      43A     -0.627469    44A     -0.604098    45A     -0.562751
      46A     -0.557519    47A     -0.522748    48A     -0.504967
      49A     -0.489833    50A     -0.465568    51A     -0.441485
      52A     -0.434140    53A     -0.427894    54A     -0.416442
      55A     -0.407087    56A     -0.403620    57A     -0.393779
      58A     -0.391975    59A     -0.358029    60A     -0.353593
      61A     -0.318915    62A     -0.306068    63A     -0.281862
      64A     -0.280715    65A     -0.263773

  @DF-RHF Final Energy: -1028.52796261015919

   => Energetics <=

    Nuclear Repulsion Energy =           1323.6373505365349956
    One-Electron Energy =               -4057.9354087769283979
    Two-Electron Energy =                1705.7700956302342092
    Total Energy =                      -1028.5279626101591930
  Basis Set: (AUG-CC-PVTZ AUX)
    Blend: AUG-CC-PVTZ-RI
    Molecular point group: c1

    Geometry (in Angstrom), charge = -1, multiplicity = 1:

       Center              X                  Y                   Z               Mass
    ------------   -----------------  -----------------  -----------------  -----------------
         O           -2.957353332373     0.883544655517    -0.744557577520    15.994914619570
         O           -2.957410332373    -0.885082344483     0.744442422480    15.994914619570
         O           -0.557928332373    -3.299587344483     0.783357422480    15.994914619570
         O           -0.557847332373     3.298056655517    -0.783307577520    15.994914619570
         O           -1.544266332373    -2.675950344483    -1.095930577520    15.994914619570
         O           -1.544281332373     2.674355655517     1.095909422480    15.994914619570
         O            3.951868667627    -1.099367344483    -0.052027577520    15.994914619570
         O            3.951880667627     1.097751655517     0.051977422480    15.994914619570
         N           -0.830124332373    -2.472988344483    -0.104781577520    14.003074004430
         N           -0.830095332373     2.471424655517     0.104784422480    14.003074004430
         N            3.370394667627    -0.000804344483    -0.000022577520    14.003074004430
         C           -0.916013332373    -0.000782344483    -0.000009577520    12.000000000000
         C           -0.166788932373    -1.155221844483    -0.021496377520    12.000000000000
         C           -0.155889332373     1.170426655517     0.021793422480    12.000000000000
         C            1.905427667627    -0.000797344483    -0.000014577520    12.000000000000
         C            1.233708667627    -1.218974344483    -0.007062577520    12.000000000000
         C            1.233720667627     1.217387655517     0.007038422480    12.000000000000
         C           -2.474483332373    -0.000772344483    -0.000041577520    12.000000000000
         H            1.771250667627    -2.160470344483    -0.004856577520     1.007825032230
         H            1.771273667627     2.158877655517     0.004832422480     1.007825032230

  Basis Set: AUG-CC-PVTZ
    Blend: AUG-CC-PVTZ
  Basis Set: (AUG-CC-PVTZ AUX)
    Blend: AUG-CC-PVTZ-JKFIT
	 Reference Energy          =   -1028.5279626101591930 [Eh]
	 Singles Energy            =      -0.0000000000000000 [Eh]
	 Same-Spin Energy          =      -1.0569844342950436 [Eh]
	 Opposite-Spin Energy      =      -2.9531813483808476 [Eh]
	 Correlation Energy        =      -4.0101657826758910 [Eh]
	 Total Energy              =   -1032.5381283928350058 [Eh]

	 ================> DF-SCS-MP2 Energies <==================
	-----------------------------------------------------------
	 SCS Same-Spin Scale       =       0.3333333333333333 [-]
	 SCS Opposite-Spin Scale   =       1.2000000000000000 [-]
	 SCS Same-Spin Energy      =      -0.3523281447650145 [Eh]
	 SCS Opposite-Spin Energy  =      -3.5438176180570169 [Eh]
	 SCS Correlation Energy    =      -3.8961457628220315 [Eh]
	 SCS Total Energy          =   -1032.4241083729812090 [Eh]
	-----------------------------------------------------------

  Dipole Moment: [D]
     X:     8.8269      Y:     0.0292      Z:     0.0062     Total:     8.8269

*** Psi4 exiting successfully. Buy a developer a beer!
