                               Psi4 1.4a3.dev225

  ==> Input File <==

--------------------------------------------------------------------------
#psi4
#
memory 32 gb

molecule  {
-1 1
  O       -2.9714190     0.8843310    -0.7445430
  O       -2.9714760    -0.8842960     0.7444570
  O       -0.5719940    -3.2988010     0.7833720
  O       -0.5719130     3.2988430    -0.7832930
  O       -1.5583320    -2.6751640    -1.0959160
  O       -1.5583470     2.6751420     1.0959240
  O        3.9378030    -1.0985810    -0.0520130
  O        3.9378150     1.0985380     0.0519920
  N       -0.8441900    -2.4722020    -0.1047670
  N       -0.7288185     2.4394372    -0.0552697
  N        3.3563290    -0.0000180    -0.0000080
  C       -0.9300790     0.0000040     0.0000050
  C       -0.1699680    -1.1712100    -0.0217940
  C       -0.1699550     1.1712130     0.0218080
  C        1.8913620    -0.0000110     0.0000000
  C        1.2196430    -1.2181880    -0.0070480
  C        1.2196550     1.2181740     0.0070530
  C       -2.4885490     0.0000140    -0.0000270
  H        1.7571850    -2.1596840    -0.0048420
  H        1.7572080     2.1596640     0.0048470
units angstrom
no_reorient  #important for SAPT in psi4, default
symmetry c1  #important for SAPT in psi4, default
}

set PROPERTIES_ORIGIN ["COM"]
properties('MP2/aug-cc-pvtz', properties = ['dipole'])
--------------------------------------------------------------------------

    Molecular point group: c1
  Charge       = -1
  Multiplicity = 1
  Basis Set: AUG-CC-PVTZ
    Blend: AUG-CC-PVTZ
  Basis Set: (AUG-CC-PVTZ AUX)
    Blend: AUG-CC-PVTZ-JKFIT

    Orbital Energies [Eh]
    ---------------------

    Doubly Occupied:

       1A    -20.574558     2A    -20.544312     3A    -20.544230
       4A    -20.517561     5A    -20.514717     6A    -20.450423
       7A    -20.367247     8A    -20.366383     9A    -15.796049
      10A    -15.764382    11A    -15.750265    12A    -11.250960
      13A    -11.243174    14A    -11.242339    15A    -11.227004
      16A    -11.226656    17A    -11.226348    18A    -11.215869
      19A     -1.556047    20A     -1.527698    21A     -1.498099
      22A     -1.325604    23A     -1.297779    24A     -1.244738
      25A     -1.208188    26A     -1.151290    27A     -1.149029
      28A     -1.063490    29A     -1.050085    30A     -0.920969
      31A     -0.910762    32A     -0.896431    33A     -0.764206
      34A     -0.751647    35A     -0.722218    36A     -0.679309
      37A     -0.676303    38A     -0.670944    39A     -0.660133
      40A     -0.649909    41A     -0.638920    42A     -0.637506
      43A     -0.630577    44A     -0.608929    45A     -0.564683
      46A     -0.559450    47A     -0.525344    48A     -0.503628
      49A     -0.489819    50A     -0.463747    51A     -0.442743
      52A     -0.435125    53A     -0.426412    54A     -0.412153
      55A     -0.404420    56A     -0.394579    57A     -0.393516
      58A     -0.364160    59A     -0.357148    60A     -0.332972
      61A     -0.316182    62A     -0.303798    63A     -0.279712
      64A     -0.277106    65A     -0.259412

  @DF-RHF Final Energy: -1028.47361575504578

   => Energetics <=

    Nuclear Repulsion Energy =           1324.4542047318520872
    One-Electron Energy =               -4059.4168437647144856
    Two-Electron Energy =                1706.4890232778163863
    Total Energy =                      -1028.4736157550457847
  Basis Set: (AUG-CC-PVTZ AUX)
    Blend: AUG-CC-PVTZ-RI
    Molecular point group: c1

    Geometry (in Angstrom), charge = -1, multiplicity = 1:

       Center              X                  Y                   Z               Mass
    ------------   -----------------  -----------------  -----------------  -----------------
         O           -2.964173240938     0.886123830228    -0.735786722334    15.994914619570
         O           -2.964230240938    -0.882503169772     0.753213277666    15.994914619570
         O           -0.564748240938    -3.297008169772     0.792128277666    15.994914619570
         O           -0.564667240938     3.300635830228    -0.774536722334    15.994914619570
         O           -1.551086240938    -2.673371169772    -1.087159722334    15.994914619570
         O           -1.551101240938     2.676934830228     1.104680277666    15.994914619570
         O            3.945048759062    -1.096788169772    -0.043256722334    15.994914619570
         O            3.945060759062     1.100330830228     0.060748277666    15.994914619570
         N           -0.836944240938    -2.470409169772    -0.096010722334    14.003074004430
         N           -0.721572740938     2.441230030228    -0.046513422334    14.003074004430
         N            3.363574759062     0.001774830228     0.008748277666    14.003074004430
         C           -0.922833240938     0.001796830228     0.008761277666    12.000000000000
         C           -0.162722240938    -1.169417169772    -0.013037722334    12.000000000000
         C           -0.162709240938     1.173005830228     0.030564277666    12.000000000000
         C            1.898607759062     0.001781830228     0.008756277666    12.000000000000
         C            1.226888759062    -1.216395169772     0.001708277666    12.000000000000
         C            1.226900759062     1.219966830228     0.015809277666    12.000000000000
         C           -2.481303240938     0.001806830228     0.008729277666    12.000000000000
         H            1.764430759062    -2.157891169772     0.003914277666     1.007825032230
         H            1.764453759062     2.161456830228     0.013603277666     1.007825032230

  Basis Set: AUG-CC-PVTZ
    Blend: AUG-CC-PVTZ
  Basis Set: (AUG-CC-PVTZ AUX)
    Blend: AUG-CC-PVTZ-JKFIT
	 Reference Energy          =   -1028.4736157550457847 [Eh]
	 Singles Energy            =      -0.0000000000000000 [Eh]
	 Same-Spin Energy          =      -1.0552099585445163 [Eh]
	 Opposite-Spin Energy      =      -2.9504938462887464 [Eh]
	 Correlation Energy        =      -4.0057038048332627 [Eh]
	 Total Energy              =   -1032.4793195598790589 [Eh]

	 ================> DF-SCS-MP2 Energies <==================
	-----------------------------------------------------------
	 SCS Same-Spin Scale       =       0.3333333333333333 [-]
	 SCS Opposite-Spin Scale   =       1.2000000000000000 [-]
	 SCS Same-Spin Energy      =      -0.3517366528481721 [Eh]
	 SCS Opposite-Spin Energy  =      -3.5405926155464957 [Eh]
	 SCS Correlation Energy    =      -3.8923292683946680 [Eh]
	 SCS Total Energy          =   -1032.3659450234404176 [Eh]
	-----------------------------------------------------------

  Dipole Moment: [D]
     X:     9.4905      Y:    -0.2966      Z:    -1.0733     Total:     9.5556

*** Psi4 exiting successfully. Buy a developer a beer!
