                               Psi4 1.4a3.dev225

  ==> Input File <==

--------------------------------------------------------------------------
#psi4
#
memory 32 gb

molecule  {
-1 1
  O       -2.9714190     0.8843310    -0.7445430
  O       -2.9714760    -0.8842960     0.7444570
  O       -0.5719940    -3.2988010     0.7833720
  O       -0.5719130     3.2988430    -0.7832930
  O       -1.5583320    -2.6751640    -1.0959160
  O       -1.5583470     2.6751420     1.0959240
  O        3.9378030    -1.0985810    -0.0520130
  O        3.9378150     1.0985380     0.0519920
  N       -0.8441900    -2.4722020    -0.1047670
  N       -0.7043289     2.5357730     0.1021670
  N        3.3563290    -0.0000180    -0.0000080
  C       -0.9300790     0.0000040     0.0000050
  C       -0.1699680    -1.1712100    -0.0217940
  C       -0.1699550     1.1712130     0.0218080
  C        1.8913620    -0.0000110     0.0000000
  C        1.2196430    -1.2181880    -0.0070480
  C        1.2196550     1.2181740     0.0070530
  C       -2.4885490     0.0000140    -0.0000270
  H        1.7571850    -2.1596840    -0.0048420
  H        1.7572080     2.1596640     0.0048470
units angstrom
no_reorient  #important for SAPT in psi4, default
symmetry c1  #important for SAPT in psi4, default
}

set PROPERTIES_ORIGIN ["COM"]
properties('MP2/aug-cc-pvtz', properties = ['dipole'])
--------------------------------------------------------------------------

    Molecular point group: c1
  Charge       = -1
  Multiplicity = 1
  Basis Set: AUG-CC-PVTZ
    Blend: AUG-CC-PVTZ
  Basis Set: (AUG-CC-PVTZ AUX)
    Blend: AUG-CC-PVTZ-JKFIT

    Orbital Energies [Eh]
    ---------------------

    Doubly Occupied:

       1A    -20.546428     2A    -20.542338     3A    -20.542241
       4A    -20.516306     5A    -20.513503     6A    -20.488179
       7A    -20.366565     8A    -20.365678     9A    -15.793926
      10A    -15.763177    11A    -15.760126    12A    -11.247969
      13A    -11.242001    14A    -11.241492    15A    -11.225944
      16A    -11.223727    17A    -11.221482    18A    -11.213370
      19A     -1.525716    20A     -1.522387    21A     -1.496858
      22A     -1.323647    23A     -1.296562    24A     -1.273078
      25A     -1.242177    26A     -1.150014    27A     -1.149086
      28A     -1.048425    29A     -1.045728    30A     -0.910245
      31A     -0.903595    32A     -0.888820    33A     -0.760057
      34A     -0.745924    35A     -0.715821    36A     -0.675315
      37A     -0.672573    38A     -0.663536    39A     -0.655993
      40A     -0.647602    41A     -0.635073    42A     -0.632372
      43A     -0.628777    44A     -0.605926    45A     -0.564780
      46A     -0.557775    47A     -0.523129    48A     -0.502411
      49A     -0.487997    50A     -0.462737    51A     -0.441477
      52A     -0.433433    53A     -0.425467    54A     -0.416809
      55A     -0.406531    56A     -0.399746    57A     -0.391935
      58A     -0.387994    59A     -0.356717    60A     -0.349016
      61A     -0.315555    62A     -0.307954    63A     -0.279018
      64A     -0.277109    65A     -0.259766

  @DF-RHF Final Energy: -1028.50845559891832

   => Energetics <=

    Nuclear Repulsion Energy =           1322.6464349647917516
    One-Electron Energy =               -4055.9555467059312832
    Two-Electron Energy =                1704.8006561422212144
    Total Energy =                      -1028.5084555989183173
  Basis Set: (AUG-CC-PVTZ AUX)
    Blend: AUG-CC-PVTZ-RI
    Molecular point group: c1

    Geometry (in Angstrom), charge = -1, multiplicity = 1:

       Center              X                  Y                   Z               Mass
    ------------   -----------------  -----------------  -----------------  -----------------
         O           -2.965512892744     0.880853983908    -0.744398964244    15.994914619570
         O           -2.965569892744    -0.887773016092     0.744601035756    15.994914619570
         O           -0.566087892744    -3.302278016092     0.783516035756    15.994914619570
         O           -0.566006892744     3.295365983908    -0.783148964244    15.994914619570
         O           -1.552425892744    -2.678641016092    -1.095771964244    15.994914619570
         O           -1.552440892744     2.671664983908     1.096068035756    15.994914619570
         O            3.943709107256    -1.102058016092    -0.051868964244    15.994914619570
         O            3.943721107256     1.095060983908     0.052136035756    15.994914619570
         N           -0.838283892744    -2.475679016092    -0.104622964244    14.003074004430
         N           -0.698422792744     2.532295983908     0.102311035756    14.003074004430
         N            3.362235107256    -0.003495016092     0.000136035756    14.003074004430
         C           -0.924172892744    -0.003473016092     0.000149035756    12.000000000000
         C           -0.164061892744    -1.174687016092    -0.021649964244    12.000000000000
         C           -0.164048892744     1.167735983908     0.021952035756    12.000000000000
         C            1.897268107256    -0.003488016092     0.000144035756    12.000000000000
         C            1.225549107256    -1.221665016092    -0.006903964244    12.000000000000
         C            1.225561107256     1.214696983908     0.007197035756    12.000000000000
         C           -2.482642892744    -0.003463016092     0.000117035756    12.000000000000
         H            1.763091107256    -2.163161016092    -0.004697964244     1.007825032230
         H            1.763114107256     2.156186983908     0.004991035756     1.007825032230

  Basis Set: AUG-CC-PVTZ
    Blend: AUG-CC-PVTZ
  Basis Set: (AUG-CC-PVTZ AUX)
    Blend: AUG-CC-PVTZ-JKFIT
	 Reference Energy          =   -1028.5084555989183173 [Eh]
	 Singles Energy            =      -0.0000000000000000 [Eh]
	 Same-Spin Energy          =      -1.0569895108871128 [Eh]
	 Opposite-Spin Energy      =      -2.9537121160932664 [Eh]
	 Correlation Energy        =      -4.0107016269803797 [Eh]
	 Total Energy              =   -1032.5191572258986525 [Eh]

	 ================> DF-SCS-MP2 Energies <==================
	-----------------------------------------------------------
	 SCS Same-Spin Scale       =       0.3333333333333333 [-]
	 SCS Opposite-Spin Scale   =       1.2000000000000000 [-]
	 SCS Same-Spin Energy      =      -0.3523298369623709 [Eh]
	 SCS Opposite-Spin Energy  =      -3.5444545393119196 [Eh]
	 SCS Correlation Energy    =      -3.8967843762742906 [Eh]
	 SCS Total Energy          =   -1032.4052399751926714 [Eh]
	-----------------------------------------------------------

  Dipole Moment: [D]
     X:     9.0502      Y:     0.1268      Z:    -0.2927     Total:     9.0558

*** Psi4 exiting successfully. Buy a developer a beer!
