                               Psi4 1.4a3.dev225

  ==> Input File <==

--------------------------------------------------------------------------
#psi4
#
memory 32 gb

molecule  {
-1 1
  O       -2.9714190     0.8843310    -0.7445430
  O       -2.9714760    -0.8842960     0.7444570
  O       -0.5719940    -3.2988010     0.7833720
  O       -0.5719130     3.2988430    -0.7832930
  O       -1.5583320    -2.6751640    -1.0959160
  O       -1.5583470     2.6751420     1.0959240
  O        3.9378030    -1.0985810    -0.0520130
  O        3.9378150     1.0985380     0.0519920
  N       -0.9767500    -2.3946118    -0.1019864
  N       -0.8441610     2.4722110     0.1047990
  N        3.3563290    -0.0000180    -0.0000080
  C       -0.9300790     0.0000040     0.0000050
  C       -0.1699680    -1.1712100    -0.0217940
  C       -0.1699550     1.1712130     0.0218080
  C        1.8913620    -0.0000110     0.0000000
  C        1.2196430    -1.2181880    -0.0070480
  C        1.2196550     1.2181740     0.0070530
  C       -2.4885490     0.0000140    -0.0000270
  H        1.7571850    -2.1596840    -0.0048420
  H        1.7572080     2.1596640     0.0048470
units angstrom
no_reorient  #important for SAPT in psi4, default
symmetry c1  #important for SAPT in psi4, default
}

set PROPERTIES_ORIGIN ["COM"]
properties('MP2/aug-cc-pvtz', properties = ['dipole'])
--------------------------------------------------------------------------

    Molecular point group: c1
  Charge       = -1
  Multiplicity = 1
  Basis Set: AUG-CC-PVTZ
    Blend: AUG-CC-PVTZ
  Basis Set: (AUG-CC-PVTZ AUX)
    Blend: AUG-CC-PVTZ-JKFIT

    Orbital Energies [Eh]
    ---------------------

    Doubly Occupied:

       1A    -20.542981     2A    -20.542313     3A    -20.542230
       4A    -20.516643     5A    -20.513848     6A    -20.482653
       7A    -20.375596     8A    -20.373882     9A    -15.794391
      10A    -15.762976    11A    -15.758626    12A    -11.249563
      13A    -11.241893    14A    -11.240258    15A    -11.233157
      16A    -11.225342    17A    -11.223094    18A    -11.208844
      19A     -1.525717    20A     -1.510070    21A     -1.497208
      22A     -1.323555    23A     -1.296985    24A     -1.262137
      25A     -1.251596    26A     -1.158312    27A     -1.149072
      28A     -1.050864    29A     -1.040223    30A     -0.915636
      31A     -0.896247    32A     -0.890604    33A     -0.762559
      34A     -0.742271    35A     -0.713624    36A     -0.677835
      37A     -0.672710    38A     -0.661750    39A     -0.649697
      40A     -0.647505    41A     -0.635112    42A     -0.629203
      43A     -0.626245    44A     -0.605518    45A     -0.562133
      46A     -0.558756    47A     -0.520559    48A     -0.508587
      49A     -0.490037    50A     -0.469181    51A     -0.441157
      52A     -0.434997    53A     -0.429893    54A     -0.412497
      55A     -0.409202    56A     -0.397853    57A     -0.391495
      58A     -0.384857    59A     -0.356934    60A     -0.348283
      61A     -0.319641    62A     -0.306576    63A     -0.286207
      64A     -0.282987    65A     -0.269239

  @DF-RHF Final Energy: -1028.50794875620363

   => Energetics <=

    Nuclear Repulsion Energy =           1324.1770647766704769
    One-Electron Energy =               -4058.9667968121207196
    Two-Electron Energy =                1706.2817832792468380
    Total Energy =                      -1028.5079487562036320
  Basis Set: (AUG-CC-PVTZ AUX)
    Blend: AUG-CC-PVTZ-RI
    Molecular point group: c1

    Geometry (in Angstrom), charge = -1, multiplicity = 1:

       Center              X                  Y                   Z               Mass
    ------------   -----------------  -----------------  -----------------  -----------------
         O           -2.950612258650     0.880086600877    -0.744695049087    15.994914619570
         O           -2.950669258650    -0.888540399123     0.744304950913    15.994914619570
         O           -0.551187258650    -3.303045399123     0.783219950913    15.994914619570
         O           -0.551106258650     3.294598600877    -0.783445049087    15.994914619570
         O           -1.537525258650    -2.679408399123    -1.096068049087    15.994914619570
         O           -1.537540258650     2.670897600877     1.095771950913    15.994914619570
         O            3.958609741350    -1.102825399123    -0.052165049087    15.994914619570
         O            3.958621741350     1.094293600877     0.051839950913    15.994914619570
         N           -0.955943258650    -2.398856199123    -0.102138449087    14.003074004430
         N           -0.823354258650     2.467966600877     0.104646950913    14.003074004430
         N            3.377135741350    -0.004262399123    -0.000160049087    14.003074004430
         C           -0.909272258650    -0.004240399123    -0.000147049087    12.000000000000
         C           -0.149161258650    -1.175454399123    -0.021946049087    12.000000000000
         C           -0.149148258650     1.166968600877     0.021655950913    12.000000000000
         C            1.912168741350    -0.004255399123    -0.000152049087    12.000000000000
         C            1.240449741350    -1.222432399123    -0.007200049087    12.000000000000
         C            1.240461741350     1.213929600877     0.006900950913    12.000000000000
         C           -2.467742258650    -0.004230399123    -0.000179049087    12.000000000000
         H            1.777991741350    -2.163928399123    -0.004994049087     1.007825032230
         H            1.778014741350     2.155419600877     0.004694950913     1.007825032230

  Basis Set: AUG-CC-PVTZ
    Blend: AUG-CC-PVTZ
  Basis Set: (AUG-CC-PVTZ AUX)
    Blend: AUG-CC-PVTZ-JKFIT
	 Reference Energy          =   -1028.5079487562036320 [Eh]
	 Singles Energy            =      -0.0000000000000000 [Eh]
	 Same-Spin Energy          =      -1.0570910145848029 [Eh]
	 Opposite-Spin Energy      =      -2.9541372208403853 [Eh]
	 Correlation Energy        =      -4.0112282354251878 [Eh]
	 Total Energy              =   -1032.5191769916289104 [Eh]

	 ================> DF-SCS-MP2 Energies <==================
	-----------------------------------------------------------
	 SCS Same-Spin Scale       =       0.3333333333333333 [-]
	 SCS Opposite-Spin Scale   =       1.2000000000000000 [-]
	 SCS Same-Spin Energy      =      -0.3523636715282676 [Eh]
	 SCS Opposite-Spin Energy  =      -3.5449646650084623 [Eh]
	 SCS Correlation Energy    =      -3.8973283365367299 [Eh]
	 SCS Total Energy          =   -1032.4052770927403344 [Eh]
	-----------------------------------------------------------

  Dipole Moment: [D]
     X:     8.5703      Y:     0.3534      Z:    -0.2774     Total:     8.5821

*** Psi4 exiting successfully. Buy a developer a beer!
