                               Psi4 1.4a3.dev225

  ==> Input File <==

--------------------------------------------------------------------------
#psi4
#
memory 32 gb

molecule  {
-1 1
  O       -2.9714190     0.8843310    -0.7445430
  O       -2.9714760    -0.8842960     0.7444570
  O       -0.5719940    -3.2988010     0.7833720
  O       -0.5719130     3.2988430    -0.7832930
  O       -1.5583320    -2.6751640    -1.0959160
  O       -1.5583470     2.6751420     1.0959240
  O        3.9378030    -1.0985810    -0.0520130
  O        3.9378150     1.0985380     0.0519920
  N       -0.8441900    -2.4722020    -0.1047670
  N       -0.8441610     2.4722110     0.1047990
  N        3.3563290    -0.0000180    -0.0000080
  C       -0.9300790     0.0000040     0.0000050
  C       -0.1607803    -1.1534813    -0.0206633
  C       -0.1699550     1.1712130     0.0218080
  C        1.8913620    -0.0000110     0.0000000
  C        1.2196430    -1.2181880    -0.0070480
  C        1.2196550     1.2181740     0.0070530
  C       -2.4885490     0.0000140    -0.0000270
  H        1.7571850    -2.1596840    -0.0048420
  H        1.7572080     2.1596640     0.0048470
units angstrom
no_reorient  #important for SAPT in psi4, default
symmetry c1  #important for SAPT in psi4, default
}

set PROPERTIES_ORIGIN ["COM"]
properties('MP2/aug-cc-pvtz', properties = ['dipole'])
--------------------------------------------------------------------------

    Molecular point group: c1
  Charge       = -1
  Multiplicity = 1
  Basis Set: AUG-CC-PVTZ
    Blend: AUG-CC-PVTZ
  Basis Set: (AUG-CC-PVTZ AUX)
    Blend: AUG-CC-PVTZ-JKFIT

    Orbital Energies [Eh]
    ---------------------

    Doubly Occupied:

       1A    -20.542462     2A    -20.542397     3A    -20.516451
       4A    -20.515522     5A    -20.513636     6A    -20.512725
       7A    -20.370037     8A    -20.369934     9A    -15.794186
      10A    -15.762971    11A    -15.761745    12A    -11.248997
      13A    -11.241130    14A    -11.240578    15A    -11.229616
      16A    -11.223032    17A    -11.222507    18A    -11.209822
      19A     -1.525831    20A     -1.497006    21A     -1.494465
      22A     -1.323724    23A     -1.296738    24A     -1.295283
      25A     -1.246671    26A     -1.153285    27A     -1.151348
      28A     -1.049739    29A     -1.041326    30A     -0.912429
      31A     -0.896733    32A     -0.890234    33A     -0.761065
      34A     -0.741527    35A     -0.712428    36A     -0.676754
      37A     -0.672780    38A     -0.659397    39A     -0.650462
      40A     -0.647604    41A     -0.634530    42A     -0.629175
      43A     -0.627120    44A     -0.603739    45A     -0.563342
      46A     -0.558962    47A     -0.522419    48A     -0.505980
      49A     -0.490480    50A     -0.466138    51A     -0.441288
      52A     -0.434073    53A     -0.428232    54A     -0.416342
      55A     -0.406709    56A     -0.403509    57A     -0.392411
      58A     -0.391776    59A     -0.357929    60A     -0.353437
      61A     -0.318061    62A     -0.308521    63A     -0.282714
      64A     -0.280452    65A     -0.264138

  @DF-RHF Final Energy: -1028.52821635134796

   => Energetics <=

    Nuclear Repulsion Energy =           1323.5880636815925300
    One-Electron Energy =               -4057.8404522188166084
    Two-Electron Energy =                1705.7241721858758865
    Total Energy =                      -1028.5282163513479645
  Basis Set: (AUG-CC-PVTZ AUX)
    Blend: AUG-CC-PVTZ-RI
    Molecular point group: c1

    Geometry (in Angstrom), charge = -1, multiplicity = 1:

       Center              X                  Y                   Z               Mass
    ------------   -----------------  -----------------  -----------------  -----------------
         O           -2.958294373305     0.883499924629    -0.744595947077    15.994914619570
         O           -2.958351373305    -0.885127075371     0.744404052923    15.994914619570
         O           -0.558869373305    -3.299632075371     0.783319052923    15.994914619570
         O           -0.558788373305     3.298011924629    -0.783345947077    15.994914619570
         O           -1.545207373305    -2.675995075371    -1.095968947077    15.994914619570
         O           -1.545222373305     2.674310924629     1.095871052923    15.994914619570
         O            3.950927626695    -1.099412075371    -0.052065947077    15.994914619570
         O            3.950939626695     1.097706924629     0.051939052923    15.994914619570
         N           -0.831065373305    -2.473033075371    -0.104819947077    14.003074004430
         N           -0.831036373305     2.471379924629     0.104746052923    14.003074004430
         N            3.369453626695    -0.000849075371    -0.000060947077    14.003074004430
         C           -0.916954373305    -0.000827075371    -0.000047947077    12.000000000000
         C           -0.147655673305    -1.154312375371    -0.020716247077    12.000000000000
         C           -0.156830373305     1.170381924629     0.021755052923    12.000000000000
         C            1.904486626695    -0.000842075371    -0.000052947077    12.000000000000
         C            1.232767626695    -1.219019075371    -0.007100947077    12.000000000000
         C            1.232779626695     1.217342924629     0.007000052923    12.000000000000
         C           -2.475424373305    -0.000817075371    -0.000079947077    12.000000000000
         H            1.770309626695    -2.160515075371    -0.004894947077     1.007825032230
         H            1.770332626695     2.158832924629     0.004794052923     1.007825032230

  Basis Set: AUG-CC-PVTZ
    Blend: AUG-CC-PVTZ
  Basis Set: (AUG-CC-PVTZ AUX)
    Blend: AUG-CC-PVTZ-JKFIT
	 Reference Energy          =   -1028.5282163513479645 [Eh]
	 Singles Energy            =      -0.0000000000000000 [Eh]
	 Same-Spin Energy          =      -1.0569459844695175 [Eh]
	 Opposite-Spin Energy      =      -2.9530564459283375 [Eh]
	 Correlation Energy        =      -4.0100024303978552 [Eh]
	 Total Energy              =   -1032.5382187817458544 [Eh]

	 ================> DF-SCS-MP2 Energies <==================
	-----------------------------------------------------------
	 SCS Same-Spin Scale       =       0.3333333333333333 [-]
	 SCS Opposite-Spin Scale   =       1.2000000000000000 [-]
	 SCS Same-Spin Energy      =      -0.3523153281565058 [Eh]
	 SCS Opposite-Spin Energy  =      -3.5436677351140049 [Eh]
	 SCS Correlation Energy    =      -3.8959830632705108 [Eh]
	 SCS Total Energy          =   -1032.4241994146184425 [Eh]
	-----------------------------------------------------------

  Dipole Moment: [D]
     X:     8.8273      Y:     0.0285      Z:     0.0021     Total:     8.8274

*** Psi4 exiting successfully. Buy a developer a beer!
