                               Psi4 1.4a3.dev225

  ==> Input File <==

--------------------------------------------------------------------------
#psi4
#
memory 32 gb

molecule  {
-1 1
  O       -2.9714190     0.8843310    -0.7445430
  O       -2.9714760    -0.8842960     0.7444570
  O       -0.5719940    -3.2988010     0.7833720
  O       -0.5719130     3.2988430    -0.7832930
  O       -1.5583320    -2.6751640    -1.0959160
  O       -1.5583470     2.6751420     1.0959240
  O        3.9378030    -1.0985810    -0.0520130
  O        3.9378150     1.0985380     0.0519920
  N       -0.8441900    -2.4722020    -0.1047670
  N       -0.8441610     2.4722110     0.1047990
  N        3.3563290    -0.0000180    -0.0000080
  C       -0.9300790     0.0000040     0.0000050
  C       -0.1469988    -1.1268882    -0.0189673
  C       -0.1699550     1.1712130     0.0218080
  C        1.8913620    -0.0000110     0.0000000
  C        1.2196430    -1.2181880    -0.0070480
  C        1.2196550     1.2181740     0.0070530
  C       -2.4885490     0.0000140    -0.0000270
  H        1.7571850    -2.1596840    -0.0048420
  H        1.7572080     2.1596640     0.0048470
units angstrom
no_reorient  #important for SAPT in psi4, default
symmetry c1  #important for SAPT in psi4, default
}

set PROPERTIES_ORIGIN ["COM"]
properties('MP2/aug-cc-pvtz', properties = ['dipole'])
--------------------------------------------------------------------------

    Molecular point group: c1
  Charge       = -1
  Multiplicity = 1
  Basis Set: AUG-CC-PVTZ
    Blend: AUG-CC-PVTZ
  Basis Set: (AUG-CC-PVTZ AUX)
    Blend: AUG-CC-PVTZ-JKFIT

    Orbital Energies [Eh]
    ---------------------

    Doubly Occupied:

       1A    -20.542865     2A    -20.542749     3A    -20.516656
       4A    -20.514068     5A    -20.513824     6A    -20.511294
       7A    -20.370498     8A    -20.370227     9A    -15.794352
      10A    -15.763039    11A    -15.759478    12A    -11.249492
      13A    -11.241785    14A    -11.240418    15A    -11.230436
      16A    -11.222635    17A    -11.221417    18A    -11.208250
      19A     -1.526151    20A     -1.497190    21A     -1.490801
      22A     -1.324053    23A     -1.296922    24A     -1.293089
      25A     -1.247041    26A     -1.154073    27A     -1.153604
      28A     -1.050575    29A     -1.039550    30A     -0.913384
      31A     -0.898250    32A     -0.884551    33A     -0.761501
      34A     -0.741460    35A     -0.712173    36A     -0.678319
      37A     -0.672967    38A     -0.658052    39A     -0.648703
      40A     -0.647681    41A     -0.633974    42A     -0.628996
      43A     -0.624915    44A     -0.602675    45A     -0.566198
      46A     -0.559975    47A     -0.523552    48A     -0.507124
      49A     -0.492587    50A     -0.466838    51A     -0.441575
      52A     -0.434407    53A     -0.428703    54A     -0.415680
      55A     -0.405725    56A     -0.402770    57A     -0.392051
      58A     -0.388469    59A     -0.357631    60A     -0.352701
      61A     -0.319092    62A     -0.309976    63A     -0.283519
      64A     -0.281265    65A     -0.264371

  @DF-RHF Final Energy: -1028.52597207571534

   => Energetics <=

    Nuclear Repulsion Energy =           1323.7357838367724980
    One-Electron Energy =               -4058.1468254384194552
    Two-Electron Energy =                1705.8850695259316126
    Total Energy =                      -1028.5259720757153445
  Basis Set: (AUG-CC-PVTZ AUX)
    Blend: AUG-CC-PVTZ-RI
    Molecular point group: c1

    Geometry (in Angstrom), charge = -1, multiplicity = 1:

       Center              X                  Y                   Z               Mass
    ------------   -----------------  -----------------  -----------------  -----------------
         O           -2.958940421019     0.882253296073    -0.744675451988    15.994914619570
         O           -2.958997421019    -0.886373703927     0.744324548012    15.994914619570
         O           -0.559515421019    -3.300878703927     0.783239548012    15.994914619570
         O           -0.559434421019     3.296765296073    -0.783425451988    15.994914619570
         O           -1.545853421019    -2.677241703927    -1.096048451988    15.994914619570
         O           -1.545868421019     2.673064296073     1.095791548012    15.994914619570
         O            3.950281578981    -1.100658703927    -0.052145451988    15.994914619570
         O            3.950293578981     1.096460296073     0.051859548012    15.994914619570
         N           -0.831711421019    -2.474279703927    -0.104899451988    14.003074004430
         N           -0.831682421019     2.470133296073     0.104666548012    14.003074004430
         N            3.368807578981    -0.002095703927    -0.000140451988    14.003074004430
         C           -0.917600421019    -0.002073703927    -0.000127451988    12.000000000000
         C           -0.134520221019    -1.128965903927    -0.019099751988    12.000000000000
         C           -0.157476421019     1.169135296073     0.021675548012    12.000000000000
         C            1.903840578981    -0.002088703927    -0.000132451988    12.000000000000
         C            1.232121578981    -1.220265703927    -0.007180451988    12.000000000000
         C            1.232133578981     1.216096296073     0.006920548012    12.000000000000
         C           -2.476070421019    -0.002063703927    -0.000159451988    12.000000000000
         H            1.769663578981    -2.161761703927    -0.004974451988     1.007825032230
         H            1.769686578981     2.157586296073     0.004714548012     1.007825032230

  Basis Set: AUG-CC-PVTZ
    Blend: AUG-CC-PVTZ
  Basis Set: (AUG-CC-PVTZ AUX)
    Blend: AUG-CC-PVTZ-JKFIT
	 Reference Energy          =   -1028.5259720757153445 [Eh]
	 Singles Energy            =      -0.0000000000000000 [Eh]
	 Same-Spin Energy          =      -1.0570755183507372 [Eh]
	 Opposite-Spin Energy      =      -2.9532564034072148 [Eh]
	 Correlation Energy        =      -4.0103319217579525 [Eh]
	 Total Energy              =   -1032.5363039974733965 [Eh]

	 ================> DF-SCS-MP2 Energies <==================
	-----------------------------------------------------------
	 SCS Same-Spin Scale       =       0.3333333333333333 [-]
	 SCS Opposite-Spin Scale   =       1.2000000000000000 [-]
	 SCS Same-Spin Energy      =      -0.3523585061169124 [Eh]
	 SCS Opposite-Spin Energy  =      -3.5439076840886576 [Eh]
	 SCS Correlation Energy    =      -3.8962661902055702 [Eh]
	 SCS Total Energy          =   -1032.4222382659208961 [Eh]
	-----------------------------------------------------------

  Dipole Moment: [D]
     X:     8.8442      Y:     0.0753      Z:     0.0051     Total:     8.8446

*** Psi4 exiting successfully. Buy a developer a beer!
