                               Psi4 1.4a3.dev225

  ==> Input File <==

--------------------------------------------------------------------------
#psi4
#
memory 32 gb

molecule  {
-1 1
  O       -2.9714190     0.8843310    -0.7445430
  O       -2.9714760    -0.8842960     0.7444570
  O       -0.5719940    -3.2988010     0.7833720
  O       -0.5719130     3.2988430    -0.7832930
  O       -1.5583320    -2.6751640    -1.0959160
  O       -1.5583470     2.6751420     1.0959240
  O        3.9378030    -1.0985810    -0.0520130
  O        3.9378150     1.0985380     0.0519920
  N       -0.8441900    -2.4722020    -0.1047670
  N       -0.8441610     2.4722110     0.1047990
  N        3.3563290    -0.0000180    -0.0000080
  C       -0.9300790     0.0000040     0.0000050
  C       -0.1699680    -1.1712100    -0.0217940
  C       -0.1699550     1.1712130     0.0218080
  C        1.8713620    -0.0000109     0.0000001
  C        1.2196430    -1.2181880    -0.0070480
  C        1.2196550     1.2181740     0.0070530
  C       -2.4885490     0.0000140    -0.0000270
  H        1.7571850    -2.1596840    -0.0048420
  H        1.7572080     2.1596640     0.0048470
units angstrom
no_reorient  #important for SAPT in psi4, default
symmetry c1  #important for SAPT in psi4, default
}

set PROPERTIES_ORIGIN ["COM"]
properties('MP2/aug-cc-pvtz', properties = ['dipole'])
--------------------------------------------------------------------------

    Molecular point group: c1
  Charge       = -1
  Multiplicity = 1
  Basis Set: AUG-CC-PVTZ
    Blend: AUG-CC-PVTZ
  Basis Set: (AUG-CC-PVTZ AUX)
    Blend: AUG-CC-PVTZ-JKFIT

    Orbital Energies [Eh]
    ---------------------

    Doubly Occupied:

       1A    -20.542854     2A    -20.542805     3A    -20.516296
       4A    -20.516295     5A    -20.513475     6A    -20.513475
       7A    -20.369271     8A    -20.369239     9A    -15.793702
      10A    -15.762814    11A    -15.762814    12A    -11.249195
      13A    -11.240890    14A    -11.240869    15A    -11.228612
      16A    -11.221814    17A    -11.221769    18A    -11.209730
      19A     -1.524368    20A     -1.496973    21A     -1.496690
      22A     -1.323316    23A     -1.296634    24A     -1.296509
      25A     -1.245979    26A     -1.152626    27A     -1.151246
      28A     -1.046950    29A     -1.043132    30A     -0.909338
      31A     -0.896302    32A     -0.894577    33A     -0.760792
      34A     -0.741548    35A     -0.712675    36A     -0.674414
      37A     -0.672368    38A     -0.660935    39A     -0.651692
      40A     -0.645815    41A     -0.635002    42A     -0.629599
      43A     -0.628197    44A     -0.604537    45A     -0.562751
      46A     -0.556961    47A     -0.525236    48A     -0.504653
      49A     -0.490288    50A     -0.465664    51A     -0.439516
      52A     -0.434118    53A     -0.428120    54A     -0.416778
      55A     -0.407098    56A     -0.404004    57A     -0.394426
      58A     -0.391571    59A     -0.358163    60A     -0.353739
      61A     -0.317786    62A     -0.307700    63A     -0.281716
      64A     -0.279737    65A     -0.263606

  @DF-RHF Final Energy: -1028.52801555217661

   => Energetics <=

    Nuclear Repulsion Energy =           1323.6674788740019721
    One-Electron Energy =               -4058.0074561490209817
    Two-Electron Energy =                1705.8119617228423976
    Total Energy =                      -1028.5280155521766119
  Basis Set: (AUG-CC-PVTZ AUX)
    Blend: AUG-CC-PVTZ-RI
    Molecular point group: c1

    Geometry (in Angstrom), charge = -1, multiplicity = 1:

       Center              X                  Y                   Z               Mass
    ------------   -----------------  -----------------  -----------------  -----------------
         O           -2.956926115362     0.884331004083    -0.744542946929    15.994914619570
         O           -2.956983115362    -0.884295995917     0.744457053071    15.994914619570
         O           -0.557501115362    -3.298800995917     0.783372053071    15.994914619570
         O           -0.557420115362     3.298843004083    -0.783292946929    15.994914619570
         O           -1.543839115362    -2.675163995917    -1.095915946929    15.994914619570
         O           -1.543854115362     2.675142004083     1.095924053071    15.994914619570
         O            3.952295884638    -1.098580995917    -0.052012946929    15.994914619570
         O            3.952307884638     1.098538004083     0.051992053071    15.994914619570
         N           -0.829697115362    -2.472201995917    -0.104766946929    14.003074004430
         N           -0.829668115362     2.472211004083     0.104799053071    14.003074004430
         N            3.370821884638    -0.000017995917    -0.000007946929    14.003074004430
         C           -0.915586115362     0.000004004083     0.000005053071    12.000000000000
         C           -0.155475115362    -1.171209995917    -0.021793946929    12.000000000000
         C           -0.155462115362     1.171213004083     0.021808053071    12.000000000000
         C            1.885854884638    -0.000010895917     0.000000153071    12.000000000000
         C            1.234135884638    -1.218187995917    -0.007047946929    12.000000000000
         C            1.234147884638     1.218174004083     0.007053053071    12.000000000000
         C           -2.474056115362     0.000014004083    -0.000026946929    12.000000000000
         H            1.771677884638    -2.159683995917    -0.004841946929     1.007825032230
         H            1.771700884638     2.159664004083     0.004847053071     1.007825032230

  Basis Set: AUG-CC-PVTZ
    Blend: AUG-CC-PVTZ
  Basis Set: (AUG-CC-PVTZ AUX)
    Blend: AUG-CC-PVTZ-JKFIT
	 Reference Energy          =   -1028.5280155521766119 [Eh]
	 Singles Energy            =      -0.0000000000000000 [Eh]
	 Same-Spin Energy          =      -1.0570134120706007 [Eh]
	 Opposite-Spin Energy      =      -2.9531704171684425 [Eh]
	 Correlation Energy        =      -4.0101838292390433 [Eh]
	 Total Energy              =   -1032.5381993814155521 [Eh]

	 ================> DF-SCS-MP2 Energies <==================
	-----------------------------------------------------------
	 SCS Same-Spin Scale       =       0.3333333333333333 [-]
	 SCS Opposite-Spin Scale   =       1.2000000000000000 [-]
	 SCS Same-Spin Energy      =      -0.3523378040235335 [Eh]
	 SCS Opposite-Spin Energy  =      -3.5438045006021310 [Eh]
	 SCS Correlation Energy    =      -3.8961423046256645 [Eh]
	 SCS Total Energy          =   -1032.4241578568023670 [Eh]
	-----------------------------------------------------------

  Dipole Moment: [D]
     X:     8.8558      Y:    -0.0001      Z:     0.0001     Total:     8.8558

*** Psi4 exiting successfully. Buy a developer a beer!
