                               Psi4 1.4a3.dev225

  ==> Input File <==

--------------------------------------------------------------------------
#psi4
#
memory 32 gb

molecule  {
-1 1
  O       -2.9714190     0.8843310    -0.7445430
  O       -2.9714760    -0.8842960     0.7444570
  O       -0.5719940    -3.2988010     0.7833720
  O       -0.5719130     3.2988430    -0.7832930
  O       -1.5583320    -2.6751640    -1.0959160
  O       -1.5583470     2.6751420     1.0959240
  O        3.9378030    -1.0985810    -0.0520130
  O        3.9378150     1.0985380     0.0519920
  N       -0.7982876    -2.4949354    -0.1054931
  N       -0.8441610     2.4722110     0.1047990
  N        3.3563290    -0.0000180    -0.0000080
  C       -0.9300790     0.0000040     0.0000050
  C       -0.1699680    -1.1712100    -0.0217940
  C       -0.1699550     1.1712130     0.0218080
  C        1.8913620    -0.0000110     0.0000000
  C        1.2196430    -1.2181880    -0.0070480
  C        1.2196550     1.2181740     0.0070530
  C       -2.4885490     0.0000140    -0.0000270
  H        1.7571850    -2.1596840    -0.0048420
  H        1.7572080     2.1596640     0.0048470
units angstrom
no_reorient  #important for SAPT in psi4, default
symmetry c1  #important for SAPT in psi4, default
}

set PROPERTIES_ORIGIN ["COM"]
properties('MP2/aug-cc-pvtz', properties = ['dipole'])
--------------------------------------------------------------------------

    Molecular point group: c1
  Charge       = -1
  Multiplicity = 1
  Basis Set: AUG-CC-PVTZ
    Blend: AUG-CC-PVTZ
  Basis Set: (AUG-CC-PVTZ AUX)
    Blend: AUG-CC-PVTZ-JKFIT

    Orbital Energies [Eh]
    ---------------------

    Doubly Occupied:

       1A    -20.542249     2A    -20.542193     3A    -20.524219
       4A    -20.516309     5A    -20.513506     6A    -20.507171
       7A    -20.368604     8A    -20.368246     9A    -15.794035
      10A    -15.763011    11A    -15.762819    12A    -11.248465
      13A    -11.240985    14A    -11.240902    15A    -11.227966
      16A    -11.223457    17A    -11.222689    18A    -11.211754
      19A     -1.525656    20A     -1.500706    21A     -1.496861
      22A     -1.323558    23A     -1.296598    24A     -1.295381
      25A     -1.244982    26A     -1.151650    27A     -1.149824
      28A     -1.049100    29A     -1.043619    30A     -0.911421
      31A     -0.898816    32A     -0.891424    33A     -0.760384
      34A     -0.742393    35A     -0.713106    36A     -0.675403
      37A     -0.672754    38A     -0.661094    39A     -0.652677
      40A     -0.647484    41A     -0.635074    42A     -0.630037
      43A     -0.628337    44A     -0.604633    45A     -0.562635
      46A     -0.557543    47A     -0.522085    48A     -0.504107
      49A     -0.488855    50A     -0.464595    51A     -0.441173
      52A     -0.433684    53A     -0.427127    54A     -0.418256
      55A     -0.406804    56A     -0.403080    57A     -0.394467
      58A     -0.391692    59A     -0.358077    60A     -0.353323
      61A     -0.316805    62A     -0.307705    63A     -0.281040
      64A     -0.278954    65A     -0.262493

  @DF-RHF Final Energy: -1028.52658648509100

   => Energetics <=

    Nuclear Repulsion Energy =           1323.2299463083868432
    One-Electron Energy =               -4057.1209633075718557
    Two-Electron Energy =                1705.3644305140940105
    Total Energy =                      -1028.5265864850910020
  Basis Set: (AUG-CC-PVTZ AUX)
    Blend: AUG-CC-PVTZ-RI
    Molecular point group: c1

    Geometry (in Angstrom), charge = -1, multiplicity = 1:

       Center              X                  Y                   Z               Mass
    ------------   -----------------  -----------------  -----------------  -----------------
         O           -2.960374667038     0.885574591368    -0.744503222475    15.994914619570
         O           -2.960431667038    -0.883052408632     0.744496777525    15.994914619570
         O           -0.560949667038    -3.297557408632     0.783411777525    15.994914619570
         O           -0.560868667038     3.300086591368    -0.783253222475    15.994914619570
         O           -1.547287667038    -2.673920408632    -1.095876222475    15.994914619570
         O           -1.547302667038     2.676385591368     1.095963777525    15.994914619570
         O            3.948847332962    -1.097337408632    -0.051973222475    15.994914619570
         O            3.948859332962     1.099781591368     0.052031777525    15.994914619570
         N           -0.787243267038    -2.493691808632    -0.105453322475    14.003074004430
         N           -0.833116667038     2.473454591368     0.104838777525    14.003074004430
         N            3.367373332962     0.001225591368     0.000031777525    14.003074004430
         C           -0.919034667038     0.001247591368     0.000044777525    12.000000000000
         C           -0.158923667038    -1.169966408632    -0.021754222475    12.000000000000
         C           -0.158910667038     1.172456591368     0.021847777525    12.000000000000
         C            1.902406332962     0.001232591368     0.000039777525    12.000000000000
         C            1.230687332962    -1.216944408632    -0.007008222475    12.000000000000
         C            1.230699332962     1.219417591368     0.007092777525    12.000000000000
         C           -2.477504667038     0.001257591368     0.000012777525    12.000000000000
         H            1.768229332962    -2.158440408632    -0.004802222475     1.007825032230
         H            1.768252332962     2.160907591368     0.004886777525     1.007825032230

  Basis Set: AUG-CC-PVTZ
    Blend: AUG-CC-PVTZ
  Basis Set: (AUG-CC-PVTZ AUX)
    Blend: AUG-CC-PVTZ-JKFIT
	 Reference Energy          =   -1028.5265864850910020 [Eh]
	 Singles Energy            =      -0.0000000000000000 [Eh]
	 Same-Spin Energy          =      -1.0569448792751659 [Eh]
	 Opposite-Spin Energy      =      -2.9531059698882323 [Eh]
	 Correlation Energy        =      -4.0100508491633979 [Eh]
	 Total Energy              =   -1032.5366373342544648 [Eh]

	 ================> DF-SCS-MP2 Energies <==================
	-----------------------------------------------------------
	 SCS Same-Spin Scale       =       0.3333333333333333 [-]
	 SCS Opposite-Spin Scale   =       1.2000000000000000 [-]
	 SCS Same-Spin Energy      =      -0.3523149597583886 [Eh]
	 SCS Opposite-Spin Energy  =      -3.5437271638658787 [Eh]
	 SCS Correlation Energy    =      -3.8960421236242673 [Eh]
	 SCS Total Energy          =   -1032.4226286087152857 [Eh]
	-----------------------------------------------------------

  Dipole Moment: [D]
     X:     8.8903      Y:    -0.0638      Z:     0.0874     Total:     8.8909

*** Psi4 exiting successfully. Buy a developer a beer!
