                               Psi4 1.4a3.dev225

  ==> Input File <==

--------------------------------------------------------------------------
#psi4
#
memory 32 gb

molecule  {
-1 1
  O       -2.9714190     0.8843310    -0.7445430
  O       -2.9714760    -0.8842960     0.7444570
  O       -0.5719940    -3.2988010     0.7833720
  O       -0.5719130     3.2988430    -0.7832930
  O       -1.5583320    -2.6751640    -1.0959160
  O       -1.5583470     2.6751420     1.0959240
  O        3.9378030    -1.0985810    -0.0520130
  O        3.9378150     1.0985380     0.0519920
  N       -0.8441900    -2.4722020    -0.1047670
  N       -0.9595035     2.5049848     0.2648677
  N        3.3563290    -0.0000180    -0.0000080
  C       -0.9300790     0.0000040     0.0000050
  C       -0.1699680    -1.1712100    -0.0217940
  C       -0.1699550     1.1712130     0.0218080
  C        1.8913620    -0.0000110     0.0000000
  C        1.2196430    -1.2181880    -0.0070480
  C        1.2196550     1.2181740     0.0070530
  C       -2.4885490     0.0000140    -0.0000270
  H        1.7571850    -2.1596840    -0.0048420
  H        1.7572080     2.1596640     0.0048470
units angstrom
no_reorient  #important for SAPT in psi4, default
symmetry c1  #important for SAPT in psi4, default
}

set PROPERTIES_ORIGIN ["COM"]
properties('MP2/aug-cc-pvtz', properties = ['dipole'])
--------------------------------------------------------------------------

    Molecular point group: c1
  Charge       = -1
  Multiplicity = 1
  Basis Set: AUG-CC-PVTZ
    Blend: AUG-CC-PVTZ
  Basis Set: (AUG-CC-PVTZ AUX)
    Blend: AUG-CC-PVTZ-JKFIT

    Orbital Energies [Eh]
    ---------------------

    Doubly Occupied:

       1A    -20.582576     2A    -20.538743     3A    -20.538692
       4A    -20.514061     5A    -20.511300     6A    -20.454041
       7A    -20.373324     8A    -20.371844     9A    -15.790514
      10A    -15.760361    11A    -15.756744    12A    -11.244564
      13A    -11.236870    14A    -11.235419    15A    -11.230528
      16A    -11.217072    17A    -11.216568    18A    -11.203805
      19A     -1.661591    20A     -1.522121    21A     -1.494617
      22A     -1.320018    23A     -1.294442    24A     -1.250662
      25A     -1.246117    26A     -1.156068    27A     -1.141528
      28A     -1.044182    29A     -1.022911    30A     -0.907213
      31A     -0.889163    32A     -0.874586    33A     -0.772564
      34A     -0.754736    35A     -0.721863    36A     -0.693772
      37A     -0.683991    38A     -0.672746    39A     -0.664013
      40A     -0.660058    41A     -0.643799    42A     -0.639908
      43A     -0.629562    44A     -0.620401    45A     -0.572198
      46A     -0.556266    47A     -0.518360    48A     -0.505666
      49A     -0.486981    50A     -0.467000    51A     -0.438135
      52A     -0.432501    53A     -0.426488    54A     -0.409102
      55A     -0.402210    56A     -0.390001    57A     -0.388060
      58A     -0.356391    59A     -0.354684    60A     -0.351456
      61A     -0.315988    62A     -0.296324    63A     -0.283780
      64A     -0.278774    65A     -0.268035

  @DF-RHF Final Energy: -1028.46797533649487

   => Energetics <=

    Nuclear Repulsion Energy =           1323.5486642977316478
    One-Electron Energy =               -4057.5171685912409885
    Two-Electron Energy =                1705.5005289570144669
    Total Energy =                      -1028.4679753364948738
  Basis Set: (AUG-CC-PVTZ AUX)
    Blend: AUG-CC-PVTZ-RI
    Molecular point group: c1

    Geometry (in Angstrom), charge = -1, multiplicity = 1:

       Center              X                  Y                   Z               Mass
    ------------   -----------------  -----------------  -----------------  -----------------
         O           -2.951554105596     0.882538187314    -0.753299162148    15.994914619570
         O           -2.951611105596    -0.886088812686     0.735700837852    15.994914619570
         O           -0.552129105596    -3.300593812686     0.774615837852    15.994914619570
         O           -0.552048105596     3.297050187314    -0.792049162148    15.994914619570
         O           -1.538467105596    -2.676956812686    -1.104672162148    15.994914619570
         O           -1.538482105596     2.673349187314     1.087167837852    15.994914619570
         O            3.957667894404    -1.100373812686    -0.060769162148    15.994914619570
         O            3.957679894404     1.096745187314     0.043235837852    15.994914619570
         N           -0.824325105596    -2.473994812686    -0.113523162148    14.003074004430
         N           -0.939638605596     2.503191987314     0.256111537852    14.003074004430
         N            3.376193894404    -0.001810812686    -0.008764162148    14.003074004430
         C           -0.910214105596    -0.001788812686    -0.008751162148    12.000000000000
         C           -0.150103105596    -1.173002812686    -0.030550162148    12.000000000000
         C           -0.150090105596     1.169420187314     0.013051837852    12.000000000000
         C            1.911226894404    -0.001803812686    -0.008756162148    12.000000000000
         C            1.239507894404    -1.219980812686    -0.015804162148    12.000000000000
         C            1.239519894404     1.216381187314    -0.001703162148    12.000000000000
         C           -2.468684105596    -0.001778812686    -0.008783162148    12.000000000000
         H            1.777049894404    -2.161476812686    -0.013598162148     1.007825032230
         H            1.777072894404     2.157871187314    -0.003909162148     1.007825032230

  Basis Set: AUG-CC-PVTZ
    Blend: AUG-CC-PVTZ
  Basis Set: (AUG-CC-PVTZ AUX)
    Blend: AUG-CC-PVTZ-JKFIT
	 Reference Energy          =   -1028.4679753364948738 [Eh]
	 Singles Energy            =      -0.0000000000000000 [Eh]
	 Same-Spin Energy          =      -1.0504857187683292 [Eh]
	 Opposite-Spin Energy      =      -2.9387190524014204 [Eh]
	 Correlation Energy        =      -3.9892047711697494 [Eh]
	 Total Energy              =   -1032.4571801076647262 [Eh]

	 ================> DF-SCS-MP2 Energies <==================
	-----------------------------------------------------------
	 SCS Same-Spin Scale       =       0.3333333333333333 [-]
	 SCS Opposite-Spin Scale   =       1.2000000000000000 [-]
	 SCS Same-Spin Energy      =      -0.3501619062561097 [Eh]
	 SCS Opposite-Spin Energy  =      -3.5264628628817043 [Eh]
	 SCS Correlation Energy    =      -3.8766247691378140 [Eh]
	 SCS Total Energy          =   -1032.3446001056327077 [Eh]
	-----------------------------------------------------------

  Dipole Moment: [D]
     X:     7.9904      Y:     0.0297      Z:     1.3512     Total:     8.1039

*** Psi4 exiting successfully. Buy a developer a beer!
