                               Psi4 1.4a3.dev225

  ==> Input File <==

--------------------------------------------------------------------------
#psi4
#
memory 32 gb

molecule  {
-1 1
  O       -2.9714190     0.8843310    -0.7445430
  O       -2.9714760    -0.8842960     0.7444570
  O       -0.5719940    -3.2988010     0.7833720
  O       -0.5719130     3.2988430    -0.7832930
  O       -1.5583320    -2.6751640    -1.0959160
  O       -1.5583470     2.6751420     1.0959240
  O        3.9378030    -1.0985810    -0.0520130
  O        3.9378150     1.0985380     0.0519920
  N       -0.8441900    -2.4722020    -0.1047670
  N       -0.8441610     2.4722110     0.1047990
  N        3.3563290    -0.0000180    -0.0000080
  C       -0.9300790     0.0000040     0.0000050
  C       -0.1699680    -1.1712100    -0.0217940
  C       -0.1929237     1.2155351     0.0246353
  C        1.8913620    -0.0000110     0.0000000
  C        1.2196430    -1.2181880    -0.0070480
  C        1.2196550     1.2181740     0.0070530
  C       -2.4885490     0.0000140    -0.0000270
  H        1.7571850    -2.1596840    -0.0048420
  H        1.7572080     2.1596640     0.0048470
units angstrom
no_reorient  #important for SAPT in psi4, default
symmetry c1  #important for SAPT in psi4, default
}

set PROPERTIES_ORIGIN ["COM"]
properties('MP2/aug-cc-pvtz', properties = ['dipole'])
--------------------------------------------------------------------------

    Molecular point group: c1
  Charge       = -1
  Multiplicity = 1
  Basis Set: AUG-CC-PVTZ
    Blend: AUG-CC-PVTZ
  Basis Set: (AUG-CC-PVTZ AUX)
    Blend: AUG-CC-PVTZ-JKFIT

    Orbital Energies [Eh]
    ---------------------

    Doubly Occupied:

       1A    -20.541853     2A    -20.541736     3A    -20.517898
       4A    -20.516207     5A    -20.515109     6A    -20.513431
       7A    -20.369353     8A    -20.369165     9A    -15.794039
      10A    -15.764957    11A    -15.763055    12A    -11.248289
      13A    -11.241429    14A    -11.240079    15A    -11.227944
      16A    -11.225793    17A    -11.224281    18A    -11.214170
      19A     -1.525324    20A     -1.503004    21A     -1.496787
      22A     -1.323191    23A     -1.299670    24A     -1.296526
      25A     -1.245949    26A     -1.152667    27A     -1.146089
      28A     -1.051735    29A     -1.045058    30A     -0.913882
      31A     -0.901627    32A     -0.891075    33A     -0.760146
      34A     -0.741497    35A     -0.712983    36A     -0.674049
      37A     -0.672604    38A     -0.663855    39A     -0.653721
      40A     -0.647236    41A     -0.636077    42A     -0.632227
      43A     -0.628806    44A     -0.606253    45A     -0.561117
      46A     -0.552485    47A     -0.519509    48A     -0.502225
      49A     -0.486261    50A     -0.464376    51A     -0.440842
      52A     -0.433527    53A     -0.427338    54A     -0.418338
      55A     -0.411034    56A     -0.404362    57A     -0.397608
      58A     -0.391335    59A     -0.359099    60A     -0.354313
      61A     -0.316261    62A     -0.304791    63A     -0.280926
      64A     -0.278471    65A     -0.263681

  @DF-RHF Final Energy: -1028.52545433949695

   => Energetics <=

    Nuclear Repulsion Energy =           1323.3068037976631786
    One-Electron Energy =               -4057.2270709334443382
    Two-Electron Energy =                1705.3948127962842136
    Total Energy =                      -1028.5254543394969460
  Basis Set: (AUG-CC-PVTZ AUX)
    Blend: AUG-CC-PVTZ-RI
    Molecular point group: c1

    Geometry (in Angstrom), charge = -1, multiplicity = 1:

       Center              X                  Y                   Z               Mass
    ------------   -----------------  -----------------  -----------------  -----------------
         O           -2.956786948954     0.882253282010    -0.744675480114    15.994914619570
         O           -2.956843948954    -0.886373717990     0.744324519886    15.994914619570
         O           -0.557361948954    -3.300878717990     0.783239519886    15.994914619570
         O           -0.557280948954     3.296765282010    -0.783425480114    15.994914619570
         O           -1.543699948954    -2.677241717990    -1.096048480114    15.994914619570
         O           -1.543714948954     2.673064282010     1.095791519886    15.994914619570
         O            3.952435051046    -1.100658717990    -0.052145480114    15.994914619570
         O            3.952447051046     1.096460282010     0.051859519886    15.994914619570
         N           -0.829557948954    -2.474279717990    -0.104899480114    14.003074004430
         N           -0.829528948954     2.470133282010     0.104666519886    14.003074004430
         N            3.370961051046    -0.002095717990    -0.000140480114    14.003074004430
         C           -0.915446948954    -0.002073717990    -0.000127480114    12.000000000000
         C           -0.155335948954    -1.173287717990    -0.021926480114    12.000000000000
         C           -0.178291648954     1.213457382010     0.024502819886    12.000000000000
         C            1.905994051046    -0.002088717990    -0.000132480114    12.000000000000
         C            1.234275051046    -1.220265717990    -0.007180480114    12.000000000000
         C            1.234287051046     1.216096282010     0.006920519886    12.000000000000
         C           -2.473916948954    -0.002063717990    -0.000159480114    12.000000000000
         H            1.771817051046    -2.161761717990    -0.004974480114     1.007825032230
         H            1.771840051046     2.157586282010     0.004714519886     1.007825032230

  Basis Set: AUG-CC-PVTZ
    Blend: AUG-CC-PVTZ
  Basis Set: (AUG-CC-PVTZ AUX)
    Blend: AUG-CC-PVTZ-JKFIT
	 Reference Energy          =   -1028.5254543394969460 [Eh]
	 Singles Energy            =      -0.0000000000000000 [Eh]
	 Same-Spin Energy          =      -1.0571090356599793 [Eh]
	 Opposite-Spin Energy      =      -2.9532765722713150 [Eh]
	 Correlation Energy        =      -4.0103856079312941 [Eh]
	 Total Energy              =   -1032.5358399474282578 [Eh]

	 ================> DF-SCS-MP2 Energies <==================
	-----------------------------------------------------------
	 SCS Same-Spin Scale       =       0.3333333333333333 [-]
	 SCS Opposite-Spin Scale   =       1.2000000000000000 [-]
	 SCS Same-Spin Energy      =      -0.3523696785533264 [Eh]
	 SCS Opposite-Spin Energy  =      -3.5439318867255780 [Eh]
	 SCS Correlation Energy    =      -3.8963015652789044 [Eh]
	 SCS Total Energy          =   -1032.4217559047758641 [Eh]
	-----------------------------------------------------------

  Dipole Moment: [D]
     X:     8.7853      Y:     0.0622      Z:     0.0049     Total:     8.7855

*** Psi4 exiting successfully. Buy a developer a beer!
