                               Psi4 1.4a3.dev225

  ==> Input File <==

--------------------------------------------------------------------------
#psi4
#
memory 32 gb

molecule  {
-1 1
  O       -2.9714190     0.8843310    -0.7445430
  O       -2.9714760    -0.8842960     0.7444570
  O       -0.5719940    -3.2988010     0.7833720
  O       -0.5719130     3.2988430    -0.7832930
  O       -1.5583320    -2.6751640    -1.0959160
  O       -1.5583470     2.6751420     1.0959240
  O        3.9378030    -1.0985810    -0.0520130
  O        3.9378150     1.0985380     0.0519920
  N       -0.8441900    -2.4722020    -0.1047670
  N       -0.8441610     2.4722110     0.1047990
  N        3.3563290    -0.0000180    -0.0000080
  C       -0.9300790     0.0000040     0.0000050
  C       -0.1699680    -1.1712100    -0.0217940
  C       -0.1699550     1.1712130     0.0218080
  C        1.8913620    -0.0000110     0.0000000
  C        1.1230705    -1.3933243    -0.0080613
  C        1.2196550     1.2181740     0.0070530
  C       -2.4885490     0.0000140    -0.0000270
  H        1.7571850    -2.1596840    -0.0048420
  H        1.7572080     2.1596640     0.0048470
units angstrom
no_reorient  #important for SAPT in psi4, default
symmetry c1  #important for SAPT in psi4, default
}

set PROPERTIES_ORIGIN ["COM"]
properties('MP2/aug-cc-pvtz', properties = ['dipole'])
--------------------------------------------------------------------------

    Molecular point group: c1
  Charge       = -1
  Multiplicity = 1
  Basis Set: AUG-CC-PVTZ
    Blend: AUG-CC-PVTZ
  Basis Set: (AUG-CC-PVTZ AUX)
    Blend: AUG-CC-PVTZ-JKFIT

    Orbital Energies [Eh]
    ---------------------

    Doubly Occupied:

       1A    -20.538714     2A    -20.536704     3A    -20.517419
       4A    -20.514783     5A    -20.514438     6A    -20.512215
       7A    -20.373135     8A    -20.372329     9A    -15.790951
      10A    -15.763720    11A    -15.758908    12A    -11.257072
      13A    -11.240770    14A    -11.240486    15A    -11.232945
      16A    -11.228226    17A    -11.226899    18A    -11.217373
      19A     -1.521229    20A     -1.497877    21A     -1.497001
      22A     -1.319356    23A     -1.297613    24A     -1.296117
      25A     -1.249357    26A     -1.155943    27A     -1.144465
      28A     -1.059112    29A     -1.035390    30A     -0.910695
      31A     -0.902864    32A     -0.886068    33A     -0.758116
      34A     -0.743486    35A     -0.708957    36A     -0.687490
      37A     -0.671665    38A     -0.654098    39A     -0.649734
      40A     -0.642714    41A     -0.640500    42A     -0.630836
      43A     -0.628347    44A     -0.607099    45A     -0.576958
      46A     -0.559923    47A     -0.512719    48A     -0.498831
      49A     -0.487385    50A     -0.466896    51A     -0.436490
      52A     -0.431490    53A     -0.426886    54A     -0.418600
      55A     -0.405814    56A     -0.401629    57A     -0.390123
      58A     -0.388863    59A     -0.359064    60A     -0.354223
      61A     -0.325958    62A     -0.309356    63A     -0.286360
      64A     -0.273939    65A     -0.266485

  @DF-RHF Final Energy: -1028.48557024004231

   => Energetics <=

    Nuclear Repulsion Energy =           1322.1806393370636670
    One-Electron Energy =               -4054.9100041463420894
    Two-Electron Energy =                1704.2437945692358880
    Total Energy =                      -1028.4855702400423070
  Basis Set: (AUG-CC-PVTZ AUX)
    Blend: AUG-CC-PVTZ-RI
    Molecular point group: c1

    Geometry (in Angstrom), charge = -1, multiplicity = 1:

       Center              X                  Y                   Z               Mass
    ------------   -----------------  -----------------  -----------------  -----------------
         O           -2.953336557728     0.892541029897    -0.744495440870    15.994914619570
         O           -2.953393557728    -0.876085970103     0.744504559130    15.994914619570
         O           -0.553911557728    -3.290590970103     0.783419559130    15.994914619570
         O           -0.553830557728     3.307053029897    -0.783245440870    15.994914619570
         O           -1.540249557728    -2.666953970103    -1.095868440870    15.994914619570
         O           -1.540264557728     2.683352029897     1.095971559130    15.994914619570
         O            3.955885442272    -1.090370970103    -0.051965440870    15.994914619570
         O            3.955897442272     1.106748029897     0.052039559130    15.994914619570
         N           -0.826107557728    -2.463991970103    -0.104719440870    14.003074004430
         N           -0.826078557728     2.480421029897     0.104846559130    14.003074004430
         N            3.374411442272     0.008192029897     0.000039559130    14.003074004430
         C           -0.911996557728     0.008214029897     0.000052559130    12.000000000000
         C           -0.151885557728    -1.162999970103    -0.021746440870    12.000000000000
         C           -0.151872557728     1.179423029897     0.021855559130    12.000000000000
         C            1.909444442272     0.008199029897     0.000047559130    12.000000000000
         C            1.141152942272    -1.385114270103    -0.008013740870    12.000000000000
         C            1.237737442272     1.226384029897     0.007100559130    12.000000000000
         C           -2.470466557728     0.008224029897     0.000020559130    12.000000000000
         H            1.775267442272    -2.151473970103    -0.004794440870     1.007825032230
         H            1.775290442272     2.167874029897     0.004894559130     1.007825032230

  Basis Set: AUG-CC-PVTZ
    Blend: AUG-CC-PVTZ
  Basis Set: (AUG-CC-PVTZ AUX)
    Blend: AUG-CC-PVTZ-JKFIT
	 Reference Energy          =   -1028.4855702400423070 [Eh]
	 Singles Energy            =      -0.0000000000000000 [Eh]
	 Same-Spin Energy          =      -1.0567755496471773 [Eh]
	 Opposite-Spin Energy      =      -2.9552077496766156 [Eh]
	 Correlation Energy        =      -4.0119832993237932 [Eh]
	 Total Energy              =   -1032.4975535393662085 [Eh]

	 ================> DF-SCS-MP2 Energies <==================
	-----------------------------------------------------------
	 SCS Same-Spin Scale       =       0.3333333333333333 [-]
	 SCS Opposite-Spin Scale   =       1.2000000000000000 [-]
	 SCS Same-Spin Energy      =      -0.3522585165490591 [Eh]
	 SCS Opposite-Spin Energy  =      -3.5462492996119388 [Eh]
	 SCS Correlation Energy    =      -3.8985078161609978 [Eh]
	 SCS Total Energy          =   -1032.3840780562034070 [Eh]
	-----------------------------------------------------------

  Dipole Moment: [D]
     X:     8.6653      Y:     0.0934      Z:     0.0230     Total:     8.6658

*** Psi4 exiting successfully. Buy a developer a beer!
