                               Psi4 1.4a3.dev225

  ==> Input File <==

--------------------------------------------------------------------------
#psi4
#
memory 32 gb

molecule  {
-1 1
  O       -2.9714190     0.8843310    -0.7445430
  O       -2.9714760    -0.8842960     0.7444570
  O       -0.5719940    -3.2988010     0.7833720
  O       -0.5719130     3.2988430    -0.7832930
  O       -1.5583320    -2.6751640    -1.0959160
  O       -1.5583470     2.6751420     1.0959240
  O        3.9378030    -1.0985810    -0.0520130
  O        3.9378150     1.0985380     0.0519920
  N       -0.8668366    -2.4602391    -0.1043660
  N       -0.8441610     2.4722110     0.1047990
  N        3.3563290    -0.0000180    -0.0000080
  C       -0.9300790     0.0000040     0.0000050
  C       -0.1699680    -1.1712100    -0.0217940
  C       -0.1699550     1.1712130     0.0218080
  C        1.8913620    -0.0000110     0.0000000
  C        1.2196430    -1.2181880    -0.0070480
  C        1.2196550     1.2181740     0.0070530
  C       -2.4885490     0.0000140    -0.0000270
  H        1.7571850    -2.1596840    -0.0048420
  H        1.7572080     2.1596640     0.0048470
units angstrom
no_reorient  #important for SAPT in psi4, default
symmetry c1  #important for SAPT in psi4, default
}

set PROPERTIES_ORIGIN ["COM"]
properties('MP2/aug-cc-pvtz', properties = ['dipole'])
--------------------------------------------------------------------------

    Molecular point group: c1
  Charge       = -1
  Multiplicity = 1
  Basis Set: AUG-CC-PVTZ
    Blend: AUG-CC-PVTZ
  Basis Set: (AUG-CC-PVTZ AUX)
    Blend: AUG-CC-PVTZ-JKFIT

    Orbital Energies [Eh]
    ---------------------

    Doubly Occupied:

       1A    -20.542240     2A    -20.542189     3A    -20.520948
       4A    -20.516380     5A    -20.513577     6A    -20.508216
       7A    -20.370587     8A    -20.370373     9A    -15.794153
      10A    -15.762947    11A    -15.762743    12A    -11.248869
      13A    -11.240801    14A    -11.240662    15A    -11.229711
      16A    -11.223681    17A    -11.223294    18A    -11.210595
      19A     -1.525656    20A     -1.497054    21A     -1.496758
      22A     -1.323534    23A     -1.296683    24A     -1.294538
      25A     -1.247224    26A     -1.153866    27A     -1.149612
      28A     -1.049699    29A     -1.042234    30A     -0.912689
      31A     -0.895523    32A     -0.893353    33A     -0.761032
      34A     -0.741343    35A     -0.712534    36A     -0.676050
      37A     -0.672704    38A     -0.660413    39A     -0.651204
      40A     -0.647473    41A     -0.634787    42A     -0.629462
      43A     -0.628023    44A     -0.604504    45A     -0.562014
      46A     -0.557649    47A     -0.521408    48A     -0.505622
      49A     -0.489316    50A     -0.466219    51A     -0.441141
      52A     -0.434009    53A     -0.428333    54A     -0.415922
      55A     -0.408494    56A     -0.403407    57A     -0.393897
      58A     -0.391585    59A     -0.357995    60A     -0.353710
      61A     -0.317806    62A     -0.307383    63A     -0.282807
      64A     -0.280391    65A     -0.264792

  @DF-RHF Final Energy: -1028.52789679607531

   => Energetics <=

    Nuclear Repulsion Energy =           1323.6243364160161491
    One-Electron Energy =               -4057.8968310302975624
    Two-Electron Energy =                1705.7445978182063300
    Total Energy =                      -1028.5278967960753107
  Basis Set: (AUG-CC-PVTZ AUX)
    Blend: AUG-CC-PVTZ-RI
    Molecular point group: c1

    Geometry (in Angstrom), charge = -1, multiplicity = 1:

       Center              X                  Y                   Z               Mass
    ------------   -----------------  -----------------  -----------------  -----------------
         O           -2.956624838881     0.883676603612    -0.744564878098    15.994914619570
         O           -2.956681838881    -0.884950396388     0.744435121902    15.994914619570
         O           -0.557199838881    -3.299455396388     0.783350121902    15.994914619570
         O           -0.557118838881     3.298188603612    -0.783314878098    15.994914619570
         O           -1.543537838881    -2.675818396388    -1.095937878098    15.994914619570
         O           -1.543552838881     2.674487603612     1.095902121902    15.994914619570
         O            3.952597161119    -1.099235396388    -0.052034878098    15.994914619570
         O            3.952609161119     1.097883603612     0.051970121902    15.994914619570
         N           -0.852042438881    -2.460893496388    -0.104387878098    14.003074004430
         N           -0.829366838881     2.471556603612     0.104777121902    14.003074004430
         N            3.371123161119    -0.000672396388    -0.000029878098    14.003074004430
         C           -0.915284838881    -0.000650396388    -0.000016878098    12.000000000000
         C           -0.155173838881    -1.171864396388    -0.021815878098    12.000000000000
         C           -0.155160838881     1.170558603612     0.021786121902    12.000000000000
         C            1.906156161119    -0.000665396388    -0.000021878098    12.000000000000
         C            1.234437161119    -1.218842396388    -0.007069878098    12.000000000000
         C            1.234449161119     1.217519603612     0.007031121902    12.000000000000
         C           -2.473754838881    -0.000640396388    -0.000048878098    12.000000000000
         H            1.771979161119    -2.160338396388    -0.004863878098     1.007825032230
         H            1.772002161119     2.159009603612     0.004825121902     1.007825032230

  Basis Set: AUG-CC-PVTZ
    Blend: AUG-CC-PVTZ
  Basis Set: (AUG-CC-PVTZ AUX)
    Blend: AUG-CC-PVTZ-JKFIT
	 Reference Energy          =   -1028.5278967960753107 [Eh]
	 Singles Energy            =      -0.0000000000000000 [Eh]
	 Same-Spin Energy          =      -1.0569317151306090 [Eh]
	 Opposite-Spin Energy      =      -2.9530673018146714 [Eh]
	 Correlation Energy        =      -4.0099990169452804 [Eh]
	 Total Energy              =   -1032.5378958130206684 [Eh]

	 ================> DF-SCS-MP2 Energies <==================
	-----------------------------------------------------------
	 SCS Same-Spin Scale       =       0.3333333333333333 [-]
	 SCS Opposite-Spin Scale   =       1.2000000000000000 [-]
	 SCS Same-Spin Energy      =      -0.3523105717102030 [Eh]
	 SCS Opposite-Spin Energy  =      -3.5436807621776056 [Eh]
	 SCS Correlation Energy    =      -3.8959913338878085 [Eh]
	 SCS Total Energy          =   -1032.4238881299631885 [Eh]
	-----------------------------------------------------------

  Dipole Moment: [D]
     X:     8.7778      Y:     0.0407      Z:    -0.0435     Total:     8.7780

*** Psi4 exiting successfully. Buy a developer a beer!
