                               Psi4 1.4a3.dev225

  ==> Input File <==

--------------------------------------------------------------------------
#psi4
#
memory 32 gb

molecule  {
-1 1
  O       -2.9714190     0.8843310    -0.7445430
  O       -2.9714760    -0.8842960     0.7444570
  O       -0.5719940    -3.2988010     0.7833720
  O       -0.5719130     3.2988430    -0.7832930
  O       -1.5583320    -2.6751640    -1.0959160
  O       -1.5583470     2.6751420     1.0959240
  O        3.9378030    -1.0985810    -0.0520130
  O        3.9378150     1.0985380     0.0519920
  N       -0.8441900    -2.4722020    -0.1047670
  N       -0.8441610     2.4722110     0.1047990
  N        3.3563290    -0.0000180    -0.0000080
  C       -0.9300790     0.0000040     0.0000050
  C       -0.1971844    -1.1292737    -0.0210135
  C       -0.1699550     1.1712130     0.0218080
  C        1.8913620    -0.0000110     0.0000000
  C        1.2196430    -1.2181880    -0.0070480
  C        1.2196550     1.2181740     0.0070530
  C       -2.4885490     0.0000140    -0.0000270
  H        1.7571850    -2.1596840    -0.0048420
  H        1.7572080     2.1596640     0.0048470
units angstrom
no_reorient  #important for SAPT in psi4, default
symmetry c1  #important for SAPT in psi4, default
}

set PROPERTIES_ORIGIN ["COM"]
properties('MP2/aug-cc-pvtz', properties = ['dipole'])
--------------------------------------------------------------------------

    Molecular point group: c1
  Charge       = -1
  Multiplicity = 1
  Basis Set: AUG-CC-PVTZ
    Blend: AUG-CC-PVTZ
  Basis Set: (AUG-CC-PVTZ AUX)
    Blend: AUG-CC-PVTZ-JKFIT

    Orbital Energies [Eh]
    ---------------------

    Doubly Occupied:

       1A    -20.543846     2A    -20.543281     3A    -20.516378
       4A    -20.515014     5A    -20.513627     6A    -20.512683
       7A    -20.369129     8A    -20.368987     9A    -15.794974
      10A    -15.763053    11A    -15.761314    12A    -11.250188
      13A    -11.242426    14A    -11.240318    15A    -11.228500
      16A    -11.227803    17A    -11.221532    18A    -11.202825
      19A     -1.526807    20A     -1.496973    21A     -1.493726
      22A     -1.324701    23A     -1.296684    24A     -1.294842
      25A     -1.246049    26A     -1.152524    27A     -1.151222
      28A     -1.052602    29A     -1.038271    30A     -0.912457
      31A     -0.899181    32A     -0.888261    33A     -0.759823
      34A     -0.743183    35A     -0.712058    36A     -0.677410
      37A     -0.673203    38A     -0.658811    39A     -0.651788
      40A     -0.648348    41A     -0.633411    42A     -0.628911
      43A     -0.626183    44A     -0.603552    45A     -0.563587
      46A     -0.557301    47A     -0.524177    48A     -0.504673
      49A     -0.490951    50A     -0.465427    51A     -0.441995
      52A     -0.434593    53A     -0.427769    54A     -0.415840
      55A     -0.406304    56A     -0.403236    57A     -0.392491
      58A     -0.392390    59A     -0.357775    60A     -0.353280
      61A     -0.321588    62A     -0.303892    63A     -0.281858
      64A     -0.281346    65A     -0.263462

  @DF-RHF Final Energy: -1028.52502049547138

   => Energetics <=

    Nuclear Repulsion Energy =           1323.8579968949791237
    One-Electron Energy =               -4058.3844468425713785
    Two-Electron Energy =                1706.0014294521211013
    Total Energy =                      -1028.5250204954713809
  Basis Set: (AUG-CC-PVTZ AUX)
    Blend: AUG-CC-PVTZ-RI
    Molecular point group: c1

    Geometry (in Angstrom), charge = -1, multiplicity = 1:

       Center              X                  Y                   Z               Mass
    ------------   -----------------  -----------------  -----------------  -----------------
         O           -2.956587825719     0.882365123292    -0.744579530438    15.994914619570
         O           -2.956644825719    -0.886261876708     0.744420469562    15.994914619570
         O           -0.557162825719    -3.300766876708     0.783335469562    15.994914619570
         O           -0.557081825719     3.296877123292    -0.783329530438    15.994914619570
         O           -1.543500825719    -2.677129876708    -1.095952530438    15.994914619570
         O           -1.543515825719     2.673176123292     1.095887469562    15.994914619570
         O            3.952634174281    -1.100546876708    -0.052049530438    15.994914619570
         O            3.952646174281     1.096572123292     0.051955469562    15.994914619570
         N           -0.829358825719    -2.474167876708    -0.104803530438    14.003074004430
         N           -0.829329825719     2.470245123292     0.104762469562    14.003074004430
         N            3.371160174281    -0.001983876708    -0.000044530438    14.003074004430
         C           -0.915247825719    -0.001961876708    -0.000031530438    12.000000000000
         C           -0.182353225719    -1.131239576708    -0.021050030438    12.000000000000
         C           -0.155123825719     1.169247123292     0.021771469562    12.000000000000
         C            1.906193174281    -0.001976876708    -0.000036530438    12.000000000000
         C            1.234474174281    -1.220153876708    -0.007084530438    12.000000000000
         C            1.234486174281     1.216208123292     0.007016469562    12.000000000000
         C           -2.473717825719    -0.001951876708    -0.000063530438    12.000000000000
         H            1.772016174281    -2.161649876708    -0.004878530438     1.007825032230
         H            1.772039174281     2.157698123292     0.004810469562     1.007825032230

  Basis Set: AUG-CC-PVTZ
    Blend: AUG-CC-PVTZ
  Basis Set: (AUG-CC-PVTZ AUX)
    Blend: AUG-CC-PVTZ-JKFIT
	 Reference Energy          =   -1028.5250204954713809 [Eh]
	 Singles Energy            =      -0.0000000000000000 [Eh]
	 Same-Spin Energy          =      -1.0570467006872581 [Eh]
	 Opposite-Spin Energy      =      -2.9534955736177881 [Eh]
	 Correlation Energy        =      -4.0105422743050463 [Eh]
	 Total Energy              =   -1032.5355627697763339 [Eh]

	 ================> DF-SCS-MP2 Energies <==================
	-----------------------------------------------------------
	 SCS Same-Spin Scale       =       0.3333333333333333 [-]
	 SCS Opposite-Spin Scale   =       1.2000000000000000 [-]
	 SCS Same-Spin Energy      =      -0.3523489002290860 [Eh]
	 SCS Opposite-Spin Energy  =      -3.5441946883413458 [Eh]
	 SCS Correlation Energy    =      -3.8965435885704318 [Eh]
	 SCS Total Energy          =   -1032.4215640840418473 [Eh]
	-----------------------------------------------------------

  Dipole Moment: [D]
     X:     8.8427      Y:     0.0752      Z:     0.0152     Total:     8.8430

*** Psi4 exiting successfully. Buy a developer a beer!
