                               Psi4 1.4a3.dev225

  ==> Input File <==

--------------------------------------------------------------------------
#psi4
#
memory 32 gb

molecule  {
-1 1
  O       -2.9714190     0.8843310    -0.7445430
  O       -2.9714760    -0.8842960     0.7444570
  O       -0.5719940    -3.2988010     0.7833720
  O       -0.5719130     3.2988430    -0.7832930
  O       -1.5583320    -2.6751640    -1.0959160
  O       -1.5583470     2.6751420     1.0959240
  O        3.9378030    -1.0985810    -0.0520130
  O        3.9378150     1.0985380     0.0519920
  N       -0.8441900    -2.4722020    -0.1047670
  N       -0.8441610     2.4722110     0.1047990
  N        3.3563290    -0.0000180    -0.0000080
  C       -0.9300790     0.0000040     0.0000050
  C       -0.1699680    -1.1712100    -0.0217940
  C       -0.1699550     1.1712130     0.0218080
  C        1.8913620    -0.0000110     0.0000000
  C        1.2099858    -1.2357016    -0.0071493
  C        1.2196550     1.2181740     0.0070530
  C       -2.4885490     0.0000140    -0.0000270
  H        1.7571850    -2.1596840    -0.0048420
  H        1.7572080     2.1596640     0.0048470
units angstrom
no_reorient  #important for SAPT in psi4, default
symmetry c1  #important for SAPT in psi4, default
}

set PROPERTIES_ORIGIN ["COM"]
properties('MP2/aug-cc-pvtz', properties = ['dipole'])
--------------------------------------------------------------------------

    Molecular point group: c1
  Charge       = -1
  Multiplicity = 1
  Basis Set: AUG-CC-PVTZ
    Blend: AUG-CC-PVTZ
  Basis Set: (AUG-CC-PVTZ AUX)
    Blend: AUG-CC-PVTZ-JKFIT

    Orbital Energies [Eh]
    ---------------------

    Doubly Occupied:

       1A    -20.541814     2A    -20.541588     3A    -20.516446
       4A    -20.516222     5A    -20.513625     6A    -20.513434
       7A    -20.370155     8A    -20.370052     9A    -15.793820
      10A    -15.763024    11A    -15.762573    12A    -11.250033
      13A    -11.240656    14A    -11.240632    15A    -11.229540
      16A    -11.223920    17A    -11.223805    18A    -11.211723
      19A     -1.525174    20A     -1.497095    21A     -1.496796
      22A     -1.323084    23A     -1.296758    24A     -1.296567
      25A     -1.246785    26A     -1.153424    27A     -1.148681
      28A     -1.048333    29A     -1.043852    30A     -0.911611
      31A     -0.897334    32A     -0.892181    33A     -0.760499
      34A     -0.741457    35A     -0.712157    36A     -0.676510
      37A     -0.672255    38A     -0.659670    39A     -0.651824
      40A     -0.646941    41A     -0.635260    42A     -0.629714
      43A     -0.628172    44A     -0.604905    45A     -0.561824
      46A     -0.559269    47A     -0.521780    48A     -0.505862
      49A     -0.488924    50A     -0.465779    51A     -0.440669
      52A     -0.433620    53A     -0.427876    54A     -0.417002
      55A     -0.407508    56A     -0.403653    57A     -0.394291
      58A     -0.391336    59A     -0.358285    60A     -0.353830
      61A     -0.316793    62A     -0.308687    63A     -0.282679
      64A     -0.279542    65A     -0.264285

  @DF-RHF Final Energy: -1028.52807903698022

   => Energetics <=

    Nuclear Repulsion Energy =           1323.3411780861147236
    One-Electron Energy =               -4057.3313200687052813
    Two-Electron Energy =                1705.4620629456103416
    Total Energy =                      -1028.5280790369802162
  Basis Set: (AUG-CC-PVTZ AUX)
    Blend: AUG-CC-PVTZ-RI
    Molecular point group: c1

    Geometry (in Angstrom), charge = -1, multiplicity = 1:

       Center              X                  Y                   Z               Mass
    ------------   -----------------  -----------------  -----------------  -----------------
         O           -2.957410964057     0.885152009477    -0.744538193510    15.994914619570
         O           -2.957467964057    -0.883474990523     0.744461806490    15.994914619570
         O           -0.557985964057    -3.297979990523     0.783376806490    15.994914619570
         O           -0.557904964057     3.299664009477    -0.783288193510    15.994914619570
         O           -1.544323964057    -2.674342990523    -1.095911193510    15.994914619570
         O           -1.544338964057     2.675963009477     1.095928806490    15.994914619570
         O            3.951811035943    -1.097759990523    -0.052008193510    15.994914619570
         O            3.951823035943     1.099359009477     0.051996806490    15.994914619570
         N           -0.830181964057    -2.471380990523    -0.104762193510    14.003074004430
         N           -0.830152964057     2.473032009477     0.104803806490    14.003074004430
         N            3.370337035943     0.000803009477    -0.000003193510    14.003074004430
         C           -0.916070964057     0.000825009477     0.000009806490    12.000000000000
         C           -0.155959964057    -1.170388990523    -0.021789193510    12.000000000000
         C           -0.155946964057     1.172034009477     0.021812806490    12.000000000000
         C            1.905370035943     0.000810009477     0.000004806490    12.000000000000
         C            1.223993835943    -1.234880590523    -0.007144493510    12.000000000000
         C            1.233663035943     1.218995009477     0.007057806490    12.000000000000
         C           -2.474540964057     0.000835009477    -0.000022193510    12.000000000000
         H            1.771193035943    -2.158862990523    -0.004837193510     1.007825032230
         H            1.771216035943     2.160485009477     0.004851806490     1.007825032230

  Basis Set: AUG-CC-PVTZ
    Blend: AUG-CC-PVTZ
  Basis Set: (AUG-CC-PVTZ AUX)
    Blend: AUG-CC-PVTZ-JKFIT
	 Reference Energy          =   -1028.5280790369802162 [Eh]
	 Singles Energy            =      -0.0000000000000000 [Eh]
	 Same-Spin Energy          =      -1.0568818956320425 [Eh]
	 Opposite-Spin Energy      =      -2.9530005676884117 [Eh]
	 Correlation Energy        =      -4.0098824633204542 [Eh]
	 Total Energy              =   -1032.5379615003007530 [Eh]

	 ================> DF-SCS-MP2 Energies <==================
	-----------------------------------------------------------
	 SCS Same-Spin Scale       =       0.3333333333333333 [-]
	 SCS Opposite-Spin Scale   =       1.2000000000000000 [-]
	 SCS Same-Spin Energy      =      -0.3522939652106808 [Eh]
	 SCS Opposite-Spin Energy  =      -3.5436006812260938 [Eh]
	 SCS Correlation Energy    =      -3.8958946464367745 [Eh]
	 SCS Total Energy          =   -1032.4239736834169889 [Eh]
	-----------------------------------------------------------

  Dipole Moment: [D]
     X:     8.7983      Y:     0.0132      Z:     0.0027     Total:     8.7983

*** Psi4 exiting successfully. Buy a developer a beer!
