                               Psi4 1.4a3.dev225

  ==> Input File <==

--------------------------------------------------------------------------
#psi4
#
memory 32 gb

molecule  {
-1 1
  O       -2.9714190     0.8843310    -0.7445430
  O       -2.9714760    -0.8842960     0.7444570
  O       -0.5719940    -3.2988010     0.7833720
  O       -0.5719130     3.2988430    -0.7832930
  O       -1.5583320    -2.6751640    -1.0959160
  O       -1.5583470     2.6751420     1.0959240
  O        3.9378030    -1.0985810    -0.0520130
  O        3.9378150     1.0985380     0.0519920
  N       -0.8441900    -2.4722020    -0.1047670
  N       -0.8441610     2.4722110     0.1047990
  N        3.3563290    -0.0000180    -0.0000080
  C       -1.0483494     0.0858161     0.0036029
  C       -0.1699680    -1.1712100    -0.0217940
  C       -0.1699550     1.1712130     0.0218080
  C        1.8913620    -0.0000110     0.0000000
  C        1.2196430    -1.2181880    -0.0070480
  C        1.2196550     1.2181740     0.0070530
  C       -2.4885490     0.0000140    -0.0000270
  H        1.7571850    -2.1596840    -0.0048420
  H        1.7572080     2.1596640     0.0048470
units angstrom
no_reorient  #important for SAPT in psi4, default
symmetry c1  #important for SAPT in psi4, default
}

set PROPERTIES_ORIGIN ["COM"]
properties('MP2/aug-cc-pvtz', properties = ['dipole'])
--------------------------------------------------------------------------

    Molecular point group: c1
  Charge       = -1
  Multiplicity = 1
  Basis Set: AUG-CC-PVTZ
    Blend: AUG-CC-PVTZ
  Basis Set: (AUG-CC-PVTZ AUX)
    Blend: AUG-CC-PVTZ-JKFIT

    Orbital Energies [Eh]
    ---------------------

    Doubly Occupied:

       1A    -20.542418     2A    -20.541338     3A    -20.515187
       4A    -20.514553     5A    -20.512315     6A    -20.512172
       7A    -20.372308     8A    -20.371609     9A    -15.793769
      10A    -15.761828    11A    -15.759564    12A    -11.252447
      13A    -11.249119    14A    -11.242832    15A    -11.232249
      16A    -11.227920    17A    -11.222451    18A    -11.220773
      19A     -1.525367    20A     -1.496202    21A     -1.495380
      22A     -1.323263    23A     -1.295832    24A     -1.295233
      25A     -1.255172    26A     -1.157527    27A     -1.143191
      28A     -1.050440    29A     -1.035801    30A     -0.916170
      31A     -0.895764    32A     -0.890294    33A     -0.766329
      34A     -0.735635    35A     -0.711880    36A     -0.701906
      37A     -0.671378    38A     -0.659234    39A     -0.647268
      40A     -0.641515    41A     -0.631313    42A     -0.628740
      43A     -0.627089    44A     -0.605651    45A     -0.566682
      46A     -0.550393    47A     -0.520774    48A     -0.512417
      49A     -0.489990    50A     -0.464032    51A     -0.440766
      52A     -0.436029    53A     -0.428892    54A     -0.415792
      55A     -0.406381    56A     -0.402957    57A     -0.391488
      58A     -0.387763    59A     -0.357648    60A     -0.353284
      61A     -0.319679    62A     -0.306488    63A     -0.289809
      64A     -0.272898    65A     -0.265240

  @DF-RHF Final Energy: -1028.50249721222553

   => Energetics <=

    Nuclear Repulsion Energy =           1322.9782077617858249
    One-Electron Energy =               -4056.5057587616761339
    Two-Electron Energy =                1705.0250537876645467
    Total Energy =                      -1028.5024972122255349
  Basis Set: (AUG-CC-PVTZ AUX)
    Blend: AUG-CC-PVTZ-RI
    Molecular point group: c1

    Geometry (in Angstrom), charge = -1, multiplicity = 1:

       Center              X                  Y                   Z               Mass
    ------------   -----------------  -----------------  -----------------  -----------------
         O           -2.952319405844     0.880308318136    -0.744711604220    15.994914619570
         O           -2.952376405844    -0.888318681864     0.744288395780    15.994914619570
         O           -0.552894405844    -3.302823681864     0.783203395780    15.994914619570
         O           -0.552813405844     3.294820318136    -0.783461604220    15.994914619570
         O           -1.539232405844    -2.679186681864    -1.096084604220    15.994914619570
         O           -1.539247405844     2.671119318136     1.095755395780    15.994914619570
         O            3.956902594156    -1.102603681864    -0.052181604220    15.994914619570
         O            3.956914594156     1.094515318136     0.051823395780    15.994914619570
         N           -0.825090405844    -2.476224681864    -0.104935604220    14.003074004430
         N           -0.825061405844     2.468188318136     0.104630395780    14.003074004430
         N            3.375428594156    -0.004040681864    -0.000176604220    14.003074004430
         C           -1.029249805844     0.081793418136     0.003434295780    12.000000000000
         C           -0.150868405844    -1.175232681864    -0.021962604220    12.000000000000
         C           -0.150855405844     1.167190318136     0.021639395780    12.000000000000
         C            1.910461594156    -0.004033681864    -0.000168604220    12.000000000000
         C            1.238742594156    -1.222210681864    -0.007216604220    12.000000000000
         C            1.238754594156     1.214151318136     0.006884395780    12.000000000000
         C           -2.469449405844    -0.004008681864    -0.000195604220    12.000000000000
         H            1.776284594156    -2.163706681864    -0.005010604220     1.007825032230
         H            1.776307594156     2.155641318136     0.004678395780     1.007825032230

  Basis Set: AUG-CC-PVTZ
    Blend: AUG-CC-PVTZ
  Basis Set: (AUG-CC-PVTZ AUX)
    Blend: AUG-CC-PVTZ-JKFIT
	 Reference Energy          =   -1028.5024972122255349 [Eh]
	 Singles Energy            =      -0.0000000000000000 [Eh]
	 Same-Spin Energy          =      -1.0587833224200418 [Eh]
	 Opposite-Spin Energy      =      -2.9570584939168292 [Eh]
	 Correlation Energy        =      -4.0158418163368710 [Eh]
	 Total Energy              =   -1032.5183390285624228 [Eh]

	 ================> DF-SCS-MP2 Energies <==================
	-----------------------------------------------------------
	 SCS Same-Spin Scale       =       0.3333333333333333 [-]
	 SCS Opposite-Spin Scale   =       1.2000000000000000 [-]
	 SCS Same-Spin Energy      =      -0.3529277741400139 [Eh]
	 SCS Opposite-Spin Energy  =      -3.5484701927001949 [Eh]
	 SCS Correlation Energy    =      -3.9013979668402090 [Eh]
	 SCS Total Energy          =   -1032.4038951790657848 [Eh]
	-----------------------------------------------------------

  Dipole Moment: [D]
     X:     8.6732      Y:     0.0121      Z:     0.0057     Total:     8.6732

*** Psi4 exiting successfully. Buy a developer a beer!
