                               Psi4 1.4a3.dev225

  ==> Input File <==

--------------------------------------------------------------------------
#psi4
#
memory 32 gb

molecule  {
-1 1
  O       -2.9714190     0.8843310    -0.7445430
  O       -2.9714760    -0.8842960     0.7444570
  O       -0.5719940    -3.2988010     0.7833720
  O       -0.5719130     3.2988430    -0.7832930
  O       -1.5583320    -2.6751640    -1.0959160
  O       -1.5583470     2.6751420     1.0959240
  O        3.9378030    -1.0985810    -0.0520130
  O        3.9378150     1.0985380     0.0519920
  N       -0.8441900    -2.4722020    -0.1047670
  N       -0.8397821     2.4855069     0.0905146
  N        3.3563290    -0.0000180    -0.0000080
  C       -0.9300790     0.0000040     0.0000050
  C       -0.1699680    -1.1712100    -0.0217940
  C       -0.1699550     1.1712130     0.0218080
  C        1.8913620    -0.0000110     0.0000000
  C        1.2196430    -1.2181880    -0.0070480
  C        1.2196550     1.2181740     0.0070530
  C       -2.4885490     0.0000140    -0.0000270
  H        1.7571850    -2.1596840    -0.0048420
  H        1.7572080     2.1596640     0.0048470
units angstrom
no_reorient  #important for SAPT in psi4, default
symmetry c1  #important for SAPT in psi4, default
}

set PROPERTIES_ORIGIN ["COM"]
properties('MP2/aug-cc-pvtz', properties = ['dipole'])
--------------------------------------------------------------------------

    Molecular point group: c1
  Charge       = -1
  Multiplicity = 1
  Basis Set: AUG-CC-PVTZ
    Blend: AUG-CC-PVTZ
  Basis Set: (AUG-CC-PVTZ AUX)
    Blend: AUG-CC-PVTZ-JKFIT

    Orbital Energies [Eh]
    ---------------------

    Doubly Occupied:

       1A    -20.542068     2A    -20.542017     3A    -20.520652
       4A    -20.516108     5A    -20.513307     6A    -20.509643
       7A    -20.369203     8A    -20.369159     9A    -15.793921
      10A    -15.763305    11A    -15.762729    12A    -11.248442
      13A    -11.240807    14A    -11.240508    15A    -11.228558
      16A    -11.222923    17A    -11.222813    18A    -11.210648
      19A     -1.525483    20A     -1.501296    21A     -1.496659
      22A     -1.323377    23A     -1.299643    24A     -1.296400
      25A     -1.245784    26A     -1.152484    27A     -1.149114
      28A     -1.048702    29A     -1.041169    30A     -0.911440
      31A     -0.895840    32A     -0.891211    33A     -0.760497
      34A     -0.741870    35A     -0.712943    36A     -0.675379
      37A     -0.672468    38A     -0.660733    39A     -0.651914
      40A     -0.647311    41A     -0.635193    42A     -0.630432
      43A     -0.628345    44A     -0.605149    45A     -0.563074
      46A     -0.557603    47A     -0.521510    48A     -0.504617
      49A     -0.489019    50A     -0.465208    51A     -0.440948
      52A     -0.433633    53A     -0.427490    54A     -0.418166
      55A     -0.406438    56A     -0.403912    57A     -0.393330
      58A     -0.391499    59A     -0.358762    60A     -0.353929
      61A     -0.316905    62A     -0.307258    63A     -0.281599
      64A     -0.279356    65A     -0.263373

  @DF-RHF Final Energy: -1028.52904646645106

   => Energetics <=

    Nuclear Repulsion Energy =           1323.3433491303474057
    One-Electron Energy =               -4057.3542436702732630
    Two-Electron Energy =                1705.4818480734750210
    Total Energy =                      -1028.5290464664510637
  Basis Set: (AUG-CC-PVTZ AUX)
    Blend: AUG-CC-PVTZ-RI
    Molecular point group: c1

    Geometry (in Angstrom), charge = -1, multiplicity = 1:

       Center              X                  Y                   Z               Mass
    ------------   -----------------  -----------------  -----------------  -----------------
         O           -2.958103211736     0.883603684664    -0.743761544331    15.994914619570
         O           -2.958160211736    -0.885023315336     0.745238455669    15.994914619570
         O           -0.558678211736    -3.299528315336     0.784153455669    15.994914619570
         O           -0.558597211736     3.298115684664    -0.782511544331    15.994914619570
         O           -1.545016211736    -2.675891315336    -1.095134544331    15.994914619570
         O           -1.545031211736     2.674414684664     1.096705455669    15.994914619570
         O            3.951118788264    -1.099308315336    -0.051231544331    15.994914619570
         O            3.951130788264     1.097810684664     0.052773455669    15.994914619570
         N           -0.830874211736    -2.472929315336    -0.103985544331    14.003074004430
         N           -0.826466311736     2.484779584664     0.091296055669    14.003074004430
         N            3.369644788264    -0.000745315336     0.000773455669    14.003074004430
         C           -0.916763211736    -0.000723315336     0.000786455669    12.000000000000
         C           -0.156652211736    -1.171937315336    -0.021012544331    12.000000000000
         C           -0.156639211736     1.170485684664     0.022589455669    12.000000000000
         C            1.904677788264    -0.000738315336     0.000781455669    12.000000000000
         C            1.232958788264    -1.218915315336    -0.006266544331    12.000000000000
         C            1.232970788264     1.217446684664     0.007834455669    12.000000000000
         C           -2.475233211736    -0.000713315336     0.000754455669    12.000000000000
         H            1.770500788264    -2.160411315336    -0.004060544331     1.007825032230
         H            1.770523788264     2.158936684664     0.005628455669     1.007825032230

  Basis Set: AUG-CC-PVTZ
    Blend: AUG-CC-PVTZ
  Basis Set: (AUG-CC-PVTZ AUX)
    Blend: AUG-CC-PVTZ-JKFIT
	 Reference Energy          =   -1028.5290464664510637 [Eh]
	 Singles Energy            =      -0.0000000000000000 [Eh]
	 Same-Spin Energy          =      -1.0566726588048219 [Eh]
	 Opposite-Spin Energy      =      -2.9523968919217567 [Eh]
	 Correlation Energy        =      -4.0090695507265783 [Eh]
	 Total Energy              =   -1032.5381160171775718 [Eh]

	 ================> DF-SCS-MP2 Energies <==================
	-----------------------------------------------------------
	 SCS Same-Spin Scale       =       0.3333333333333333 [-]
	 SCS Opposite-Spin Scale   =       1.2000000000000000 [-]
	 SCS Same-Spin Energy      =      -0.3522242196016073 [Eh]
	 SCS Opposite-Spin Energy  =      -3.5428762703061079 [Eh]
	 SCS Correlation Energy    =      -3.8951004899077151 [Eh]
	 SCS Total Energy          =   -1032.4241469563587543 [Eh]
	-----------------------------------------------------------

  Dipole Moment: [D]
     X:     8.8239      Y:     0.0739      Z:    -0.0741     Total:     8.8245

*** Psi4 exiting successfully. Buy a developer a beer!
