                               Psi4 1.4a3.dev225

  ==> Input File <==

--------------------------------------------------------------------------
#psi4
#
memory 32 gb

molecule  {
-1 1
  O       -2.9714190     0.8843310    -0.7445430
  O       -2.9714760    -0.8842960     0.7444570
  O       -0.5719940    -3.2988010     0.7833720
  O       -0.5719130     3.2988430    -0.7832930
  O       -1.5583320    -2.6751640    -1.0959160
  O       -1.5583470     2.6751420     1.0959240
  O        3.9378030    -1.0985810    -0.0520130
  O        3.9378150     1.0985380     0.0519920
  N       -0.8441900    -2.4722020    -0.1047670
  N       -0.8441610     2.4722110     0.1047990
  N        3.3563290    -0.0000180    -0.0000080
  C       -0.9300790     0.0000040     0.0000050
  C       -0.1699680    -1.1712100    -0.0217940
  C       -0.1607675     1.1534842     0.0206771
  C        1.8913620    -0.0000110     0.0000000
  C        1.2196430    -1.2181880    -0.0070480
  C        1.2196550     1.2181740     0.0070530
  C       -2.4885490     0.0000140    -0.0000270
  H        1.7571850    -2.1596840    -0.0048420
  H        1.7572080     2.1596640     0.0048470
units angstrom
no_reorient  #important for SAPT in psi4, default
symmetry c1  #important for SAPT in psi4, default
}

set PROPERTIES_ORIGIN ["COM"]
properties('MP2/aug-cc-pvtz', properties = ['dipole'])
--------------------------------------------------------------------------

    Molecular point group: c1
  Charge       = -1
  Multiplicity = 1
  Basis Set: AUG-CC-PVTZ
    Blend: AUG-CC-PVTZ
  Basis Set: (AUG-CC-PVTZ AUX)
    Blend: AUG-CC-PVTZ-JKFIT

    Orbital Energies [Eh]
    ---------------------

    Doubly Occupied:

       1A    -20.542462     2A    -20.542396     3A    -20.516452
       4A    -20.515522     5A    -20.513636     6A    -20.512725
       7A    -20.370038     8A    -20.369933     9A    -15.794186
      10A    -15.762971    11A    -15.761745    12A    -11.248997
      13A    -11.241130    14A    -11.240578    15A    -11.229616
      16A    -11.223033    17A    -11.222506    18A    -11.209822
      19A     -1.525831    20A     -1.497006    21A     -1.494464
      22A     -1.323724    23A     -1.296738    24A     -1.295283
      25A     -1.246671    26A     -1.153285    27A     -1.151348
      28A     -1.049739    29A     -1.041326    30A     -0.912429
      31A     -0.896733    32A     -0.890235    33A     -0.761065
      34A     -0.741527    35A     -0.712428    36A     -0.676754
      37A     -0.672780    38A     -0.659397    39A     -0.650462
      40A     -0.647604    41A     -0.634530    42A     -0.629176
      43A     -0.627120    44A     -0.603739    45A     -0.563343
      46A     -0.558961    47A     -0.522419    48A     -0.505980
      49A     -0.490480    50A     -0.466138    51A     -0.441288
      52A     -0.434073    53A     -0.428232    54A     -0.416342
      55A     -0.406709    56A     -0.403509    57A     -0.392411
      58A     -0.391776    59A     -0.357929    60A     -0.353437
      61A     -0.318061    62A     -0.308521    63A     -0.282714
      64A     -0.280452    65A     -0.264138

  @DF-RHF Final Energy: -1028.52821634787961

   => Energetics <=

    Nuclear Repulsion Energy =           1323.5880635781056753
    One-Electron Energy =               -4057.8404520903882258
    Two-Electron Energy =                1705.7241721644031713
    Total Energy =                      -1028.5282163478796065
  Basis Set: (AUG-CC-PVTZ AUX)
    Blend: AUG-CC-PVTZ-RI
    Molecular point group: c1

    Geometry (in Angstrom), charge = -1, multiplicity = 1:

       Center              X                  Y                   Z               Mass
    ------------   -----------------  -----------------  -----------------  -----------------
         O           -2.958294363930     0.885162097600    -0.744489928029    15.994914619570
         O           -2.958351363930    -0.883464902400     0.744510071971    15.994914619570
         O           -0.558869363930    -3.297969902400     0.783425071971    15.994914619570
         O           -0.558788363930     3.299674097600    -0.783239928029    15.994914619570
         O           -1.545207363930    -2.674332902400    -1.095862928029    15.994914619570
         O           -1.545222363930     2.675973097600     1.095977071971    15.994914619570
         O            3.950927636070    -1.097749902400    -0.051959928029    15.994914619570
         O            3.950939636070     1.099369097600     0.052045071971    15.994914619570
         N           -0.831065363930    -2.471370902400    -0.104713928029    14.003074004430
         N           -0.831036363930     2.473042097600     0.104852071971    14.003074004430
         N            3.369453636070     0.000813097600     0.000045071971    14.003074004430
         C           -0.916954363930     0.000835097600     0.000058071971    12.000000000000
         C           -0.156843363930    -1.170378902400    -0.021740928029    12.000000000000
         C           -0.147642863930     1.154315297600     0.020730171971    12.000000000000
         C            1.904486636070     0.000820097600     0.000053071971    12.000000000000
         C            1.232767636070    -1.217356902400    -0.006994928029    12.000000000000
         C            1.232779636070     1.219005097600     0.007106071971    12.000000000000
         C           -2.475424363930     0.000845097600     0.000026071971    12.000000000000
         H            1.770309636070    -2.158852902400    -0.004788928029     1.007825032230
         H            1.770332636070     2.160495097600     0.004900071971     1.007825032230

  Basis Set: AUG-CC-PVTZ
    Blend: AUG-CC-PVTZ
  Basis Set: (AUG-CC-PVTZ AUX)
    Blend: AUG-CC-PVTZ-JKFIT
	 Reference Energy          =   -1028.5282163478796065 [Eh]
	 Singles Energy            =      -0.0000000000000000 [Eh]
	 Same-Spin Energy          =      -1.0569459886129826 [Eh]
	 Opposite-Spin Energy      =      -2.9530564585356394 [Eh]
	 Correlation Energy        =      -4.0100024471486222 [Eh]
	 Total Energy              =   -1032.5382187950281150 [Eh]

	 ================> DF-SCS-MP2 Energies <==================
	-----------------------------------------------------------
	 SCS Same-Spin Scale       =       0.3333333333333333 [-]
	 SCS Opposite-Spin Scale   =       1.2000000000000000 [-]
	 SCS Same-Spin Energy      =      -0.3523153295376609 [Eh]
	 SCS Opposite-Spin Energy  =      -3.5436677502427671 [Eh]
	 SCS Correlation Energy    =      -3.8959830797804278 [Eh]
	 SCS Total Energy          =   -1032.4241994276601417 [Eh]
	-----------------------------------------------------------

  Dipole Moment: [D]
     X:     8.8273      Y:    -0.0286      Z:    -0.0018     Total:     8.8274

*** Psi4 exiting successfully. Buy a developer a beer!
