                               Psi4 1.4a3.dev225

  ==> Input File <==

--------------------------------------------------------------------------
#psi4
#
memory 32 gb

molecule  {
-1 1
  O       -2.9714190     0.8843310    -0.7445430
  O       -2.9714760    -0.8842960     0.7444570
  O       -0.5719940    -3.2988010     0.7833720
  O       -0.5719130     3.2988430    -0.7832930
  O       -1.5583320    -2.6751640    -1.0959160
  O       -1.5583470     2.6751420     1.0959240
  O        3.9378030    -1.0985810    -0.0520130
  O        3.9378150     1.0985380     0.0519920
  N       -0.8441900    -2.4722020    -0.1047670
  N       -0.7516672     2.5162157     0.1031438
  N        3.3563290    -0.0000180    -0.0000080
  C       -0.9300790     0.0000040     0.0000050
  C       -0.1699680    -1.1712100    -0.0217940
  C       -0.1699550     1.1712130     0.0218080
  C        1.8913620    -0.0000110     0.0000000
  C        1.2196430    -1.2181880    -0.0070480
  C        1.2196550     1.2181740     0.0070530
  C       -2.4885490     0.0000140    -0.0000270
  H        1.7571850    -2.1596840    -0.0048420
  H        1.7572080     2.1596640     0.0048470
units angstrom
no_reorient  #important for SAPT in psi4, default
symmetry c1  #important for SAPT in psi4, default
}

set PROPERTIES_ORIGIN ["COM"]
properties('MP2/aug-cc-pvtz', properties = ['dipole'])
--------------------------------------------------------------------------

    Molecular point group: c1
  Charge       = -1
  Multiplicity = 1
  Basis Set: AUG-CC-PVTZ
    Blend: AUG-CC-PVTZ
  Basis Set: (AUG-CC-PVTZ AUX)
    Blend: AUG-CC-PVTZ-JKFIT

    Orbital Energies [Eh]
    ---------------------

    Doubly Occupied:

       1A    -20.542290     2A    -20.542217     3A    -20.535718
       4A    -20.516294     5A    -20.513490     6A    -20.497179
       7A    -20.367521     8A    -20.366871     9A    -15.793981
      10A    -15.763082    11A    -15.761868    12A    -11.248219
      13A    -11.241335    14A    -11.241227    15A    -11.226898
      16A    -11.223590    17A    -11.222081    18A    -11.212560
      19A     -1.525683    20A     -1.510135    21A     -1.496847
      22A     -1.323602    23A     -1.296563    24A     -1.286635
      25A     -1.243559    26A     -1.150320    27A     -1.149918
      28A     -1.048747    29A     -1.044647    30A     -0.910771
      31A     -0.901169    32A     -0.890122    33A     -0.760132
      34A     -0.743900    35A     -0.714272    36A     -0.675232
      37A     -0.672715    38A     -0.662210    39A     -0.654284
      40A     -0.647534    41A     -0.635138    42A     -0.630780
      43A     -0.628636    44A     -0.605187    45A     -0.563564
      46A     -0.557655    47A     -0.522613    48A     -0.503203
      49A     -0.488451    50A     -0.463605    51A     -0.441325
      52A     -0.433539    53A     -0.426265    54A     -0.418359
      55A     -0.406807    56A     -0.401004    57A     -0.392410
      58A     -0.391666    59A     -0.357354    60A     -0.351784
      61A     -0.316148    62A     -0.307866    63A     -0.279960
      64A     -0.278009    65A     -0.261056

  @DF-RHF Final Energy: -1028.51971644323612

   => Energetics <=

    Nuclear Repulsion Energy =           1322.9488093516515619
    One-Electron Energy =               -4056.5614448715450635
    Two-Electron Energy =                1705.0929190766573811
    Total Energy =                      -1028.5197164432361205
  Basis Set: (AUG-CC-PVTZ AUX)
    Blend: AUG-CC-PVTZ-RI
    Molecular point group: c1

    Geometry (in Angstrom), charge = -1, multiplicity = 1:

       Center              X                  Y                   Z               Mass
    ------------   -----------------  -----------------  -----------------  -----------------
         O           -2.962923351098     0.881923824667    -0.744452398023    15.994914619570
         O           -2.962980351098    -0.886703175333     0.744547601977    15.994914619570
         O           -0.563498351098    -3.301208175333     0.783462601977    15.994914619570
         O           -0.563417351098     3.296435824667    -0.783202398023    15.994914619570
         O           -1.549836351098    -2.677571175333    -1.095825398023    15.994914619570
         O           -1.549851351098     2.672734824667     1.096014601977    15.994914619570
         O            3.946298648902    -1.100988175333    -0.051922398023    15.994914619570
         O            3.946310648902     1.096130824667     0.052082601977    15.994914619570
         N           -0.835694351098    -2.474609175333    -0.104676398023    14.003074004430
         N           -0.743171551098     2.513808524667     0.103234401977    14.003074004430
         N            3.364824648902    -0.002425175333     0.000082601977    14.003074004430
         C           -0.921583351098    -0.002403175333     0.000095601977    12.000000000000
         C           -0.161472351098    -1.173617175333    -0.021703398023    12.000000000000
         C           -0.161459351098     1.168805824667     0.021898601977    12.000000000000
         C            1.899857648902    -0.002418175333     0.000090601977    12.000000000000
         C            1.228138648902    -1.220595175333    -0.006957398023    12.000000000000
         C            1.228150648902     1.215766824667     0.007143601977    12.000000000000
         C           -2.480053351098    -0.002393175333     0.000063601977    12.000000000000
         H            1.765680648902    -2.162091175333    -0.004751398023     1.007825032230
         H            1.765703648902     2.157256824667     0.004937601977     1.007825032230

  Basis Set: AUG-CC-PVTZ
    Blend: AUG-CC-PVTZ
  Basis Set: (AUG-CC-PVTZ AUX)
    Blend: AUG-CC-PVTZ-JKFIT
	 Reference Energy          =   -1028.5197164432361205 [Eh]
	 Singles Energy            =      -0.0000000000000000 [Eh]
	 Same-Spin Energy          =      -1.0569661305647051 [Eh]
	 Opposite-Spin Energy      =      -2.9533275522699900 [Eh]
	 Correlation Energy        =      -4.0102936828346953 [Eh]
	 Total Energy              =   -1032.5300101260709198 [Eh]

	 ================> DF-SCS-MP2 Energies <==================
	-----------------------------------------------------------
	 SCS Same-Spin Scale       =       0.3333333333333333 [-]
	 SCS Opposite-Spin Scale   =       1.2000000000000000 [-]
	 SCS Same-Spin Energy      =      -0.3523220435215684 [Eh]
	 SCS Opposite-Spin Energy  =      -3.5439930627239877 [Eh]
	 SCS Correlation Energy    =      -3.8963151062455559 [Eh]
	 SCS Total Energy          =   -1032.4160315494816587 [Eh]
	-----------------------------------------------------------

  Dipole Moment: [D]
     X:     8.9690      Y:     0.1071      Z:    -0.1892     Total:     8.9716

*** Psi4 exiting successfully. Buy a developer a beer!
