                               Psi4 1.4a3.dev225

  ==> Input File <==

--------------------------------------------------------------------------
#psi4
#
memory 32 gb

molecule  {
-1 1
  O       -2.9714190     0.8843310    -0.7445430
  O       -2.9714760    -0.8842960     0.7444570
  O       -0.5719940    -3.2988010     0.7833720
  O       -0.5719130     3.2988430    -0.7832930
  O       -1.5583320    -2.6751640    -1.0959160
  O       -1.5583470     2.6751420     1.0959240
  O        3.9378030    -1.0985810    -0.0520130
  O        3.9378150     1.0985380     0.0519920
  N       -0.8441900    -2.4722020    -0.1047670
  N       -0.8551084     2.4389713     0.1405100
  N        3.3563290    -0.0000180    -0.0000080
  C       -0.9300790     0.0000040     0.0000050
  C       -0.1699680    -1.1712100    -0.0217940
  C       -0.1699550     1.1712130     0.0218080
  C        1.8913620    -0.0000110     0.0000000
  C        1.2196430    -1.2181880    -0.0070480
  C        1.2196550     1.2181740     0.0070530
  C       -2.4885490     0.0000140    -0.0000270
  H        1.7571850    -2.1596840    -0.0048420
  H        1.7572080     2.1596640     0.0048470
units angstrom
no_reorient  #important for SAPT in psi4, default
symmetry c1  #important for SAPT in psi4, default
}

set PROPERTIES_ORIGIN ["COM"]
properties('MP2/aug-cc-pvtz', properties = ['dipole'])
--------------------------------------------------------------------------

    Molecular point group: c1
  Charge       = -1
  Multiplicity = 1
  Basis Set: AUG-CC-PVTZ
    Blend: AUG-CC-PVTZ
  Basis Set: (AUG-CC-PVTZ AUX)
    Blend: AUG-CC-PVTZ-JKFIT

    Orbital Energies [Eh]
    ---------------------

    Doubly Occupied:

       1A    -20.542633     2A    -20.542577     3A    -20.532807
       4A    -20.516904     5A    -20.514093     6A    -20.495996
       7A    -20.371212     8A    -20.371114     9A    -15.794548
      10A    -15.763486    11A    -15.761166    12A    -11.249419
      13A    -11.241335    14A    -11.240559    15A    -11.230417
      16A    -11.224593    17A    -11.224310    18A    -11.211659
      19A     -1.526041    20A     -1.498982    21A     -1.497451
      22A     -1.323908    23A     -1.297201    24A     -1.279810
      25A     -1.248038    26A     -1.154573    27A     -1.150925
      28A     -1.052367    29A     -1.045443    30A     -0.914580
      31A     -0.899451    32A     -0.894877    33A     -0.761660
      34A     -0.741804    35A     -0.713038    36A     -0.676826
      37A     -0.673566    38A     -0.661368    39A     -0.652301
      40A     -0.647865    41A     -0.634982    42A     -0.629412
      43A     -0.626901    44A     -0.604403    45A     -0.561275
      46A     -0.557459    47A     -0.521972    48A     -0.506252
      49A     -0.489453    50A     -0.466717    51A     -0.441596
      52A     -0.434514    53A     -0.429072    54A     -0.414066
      55A     -0.411013    56A     -0.400700    57A     -0.393869
      58A     -0.391818    59A     -0.357257    60A     -0.351463
      61A     -0.318612    62A     -0.307622    63A     -0.283617
      64A     -0.281153    65A     -0.265507

  @DF-RHF Final Energy: -1028.52326013352990

   => Energetics <=

    Nuclear Repulsion Energy =           1323.9288504826704411
    One-Electron Energy =               -4058.4610102938863747
    Two-Electron Energy =                1706.0088996776860313
    Total Energy =                      -1028.5232601335299023
  Basis Set: (AUG-CC-PVTZ AUX)
    Blend: AUG-CC-PVTZ-RI
    Molecular point group: c1

    Geometry (in Angstrom), charge = -1, multiplicity = 1:

       Center              X                  Y                   Z               Mass
    ------------   -----------------  -----------------  -----------------  -----------------
         O           -2.957264818889     0.886149316303    -0.746496437016    15.994914619570
         O           -2.957321818889    -0.882477683697     0.742503562984    15.994914619570
         O           -0.557839818889    -3.296982683697     0.781418562984    15.994914619570
         O           -0.557758818889     3.300661316303    -0.785246437016    15.994914619570
         O           -1.544177818889    -2.673345683697    -1.097869437016    15.994914619570
         O           -1.544192818889     2.676960316303     1.093970562984    15.994914619570
         O            3.951957181111    -1.096762683697    -0.053966437016    15.994914619570
         O            3.951969181111     1.100356316303     0.050038562984    15.994914619570
         N           -0.830035818889    -2.470383683697    -0.106720437016    14.003074004430
         N           -0.840954218889     2.440789616303     0.138556562984    14.003074004430
         N            3.370483181111     0.001800316303    -0.001961437016    14.003074004430
         C           -0.915924818889     0.001822316303    -0.001948437016    12.000000000000
         C           -0.155813818889    -1.169391683697    -0.023747437016    12.000000000000
         C           -0.155800818889     1.173031316303     0.019854562984    12.000000000000
         C            1.905516181111     0.001807316303    -0.001953437016    12.000000000000
         C            1.233797181111    -1.216369683697    -0.009001437016    12.000000000000
         C            1.233809181111     1.219992316303     0.005099562984    12.000000000000
         C           -2.474394818889     0.001832316303    -0.001980437016    12.000000000000
         H            1.771339181111    -2.157865683697    -0.006795437016     1.007825032230
         H            1.771362181111     2.161482316303     0.002893562984     1.007825032230

  Basis Set: AUG-CC-PVTZ
    Blend: AUG-CC-PVTZ
  Basis Set: (AUG-CC-PVTZ AUX)
    Blend: AUG-CC-PVTZ-JKFIT
	 Reference Energy          =   -1028.5232601335299023 [Eh]
	 Singles Energy            =      -0.0000000000000000 [Eh]
	 Same-Spin Energy          =      -1.0571169305619064 [Eh]
	 Opposite-Spin Energy      =      -2.9536141987690354 [Eh]
	 Correlation Energy        =      -4.0107311293309422 [Eh]
	 Total Energy              =   -1032.5339912628608090 [Eh]

	 ================> DF-SCS-MP2 Energies <==================
	-----------------------------------------------------------
	 SCS Same-Spin Scale       =       0.3333333333333333 [-]
	 SCS Opposite-Spin Scale   =       1.2000000000000000 [-]
	 SCS Same-Spin Energy      =      -0.3523723101873021 [Eh]
	 SCS Opposite-Spin Energy  =      -3.5443370385228423 [Eh]
	 SCS Correlation Energy    =      -3.8967093487101443 [Eh]
	 SCS Total Energy          =   -1032.4199694822400488 [Eh]
	-----------------------------------------------------------

  Dipole Moment: [D]
     X:     8.8001      Y:    -0.1947      Z:     0.1791     Total:     8.8041

*** Psi4 exiting successfully. Buy a developer a beer!
