                               Psi4 1.4a3.dev225

  ==> Input File <==

--------------------------------------------------------------------------
#psi4
#
memory 32 gb

molecule  {
-1 1
  O       -2.9714190     0.8843310    -0.7445430
  O       -2.9714760    -0.8842960     0.7444570
  O       -0.5719940    -3.2988010     0.7833720
  O       -0.5719130     3.2988430    -0.7832930
  O       -1.5583320    -2.6751640    -1.0959160
  O       -1.5583470     2.6751420     1.0959240
  O        3.9378030    -1.0985810    -0.0520130
  O        3.9378150     1.0985380     0.0519920
  N       -0.8441900    -2.4722020    -0.1047670
  N       -0.8441610     2.4722110     0.1047990
  N        3.3563290    -0.0000180    -0.0000080
  C       -0.9300790     0.0000040     0.0000050
  C       -0.1699680    -1.1712100    -0.0217940
  C       -0.1699550     1.1712130     0.0218080
  C        1.8913620    -0.0000110     0.0000000
  C        1.2196430    -1.2181880    -0.0070480
  C        1.2196550     1.2181740     0.0070530
  C       -2.5270926     0.0706018    -0.0594556
  H        1.7571850    -2.1596840    -0.0048420
  H        1.7572080     2.1596640     0.0048470
units angstrom
no_reorient  #important for SAPT in psi4, default
symmetry c1  #important for SAPT in psi4, default
}

set PROPERTIES_ORIGIN ["COM"]
properties('MP2/aug-cc-pvtz', properties = ['dipole'])
--------------------------------------------------------------------------

    Molecular point group: c1
  Charge       = -1
  Multiplicity = 1
  Basis Set: AUG-CC-PVTZ
    Blend: AUG-CC-PVTZ
  Basis Set: (AUG-CC-PVTZ AUX)
    Blend: AUG-CC-PVTZ-JKFIT

    Orbital Energies [Eh]
    ---------------------

    Doubly Occupied:

       1A    -20.540007     2A    -20.539882     3A    -20.518943
       4A    -20.516069     5A    -20.511438     6A    -20.508888
       7A    -20.395738     8A    -20.351605     9A    -15.791911
      10A    -15.764518    11A    -15.758321    12A    -11.245438
      13A    -11.237101    14A    -11.236685    15A    -11.229862
      16A    -11.221134    17A    -11.220359    18A    -11.204857
      19A     -1.523453    20A     -1.499606    21A     -1.491877
      22A     -1.321372    23A     -1.301222    24A     -1.297049
      25A     -1.291579    26A     -1.149396    27A     -1.130863
      28A     -1.046164    29A     -1.039632    30A     -0.909318
      31A     -0.891957    32A     -0.890021    33A     -0.757387
      34A     -0.739654    35A     -0.710696    36A     -0.671643
      37A     -0.666439    38A     -0.658396    39A     -0.648834
      40A     -0.645328    41A     -0.634109    42A     -0.629803
      43A     -0.624590    44A     -0.603929    45A     -0.562207
      46A     -0.559122    47A     -0.520838    48A     -0.518615
      49A     -0.489103    50A     -0.470955    51A     -0.448895
      52A     -0.439032    53A     -0.429347    54A     -0.416419
      55A     -0.407655    56A     -0.402383    57A     -0.393483
      58A     -0.389728    59A     -0.359181    60A     -0.352263
      61A     -0.316708    62A     -0.304828    63A     -0.290653
      64A     -0.267028    65A     -0.258934

  @DF-RHF Final Energy: -1028.51473034559672

   => Energetics <=

    Nuclear Repulsion Energy =           1323.1898357341319752
    One-Electron Energy =               -4057.0802313815784146
    Two-Electron Energy =                1705.3756653018497218
    Total Energy =                      -1028.5147303455967176
  Basis Set: (AUG-CC-PVTZ AUX)
    Blend: AUG-CC-PVTZ-RI
    Molecular point group: c1

    Geometry (in Angstrom), charge = -1, multiplicity = 1:

       Center              X                  Y                   Z               Mass
    ------------   -----------------  -----------------  -----------------  -----------------
         O           -2.956056830424     0.881022001276    -0.741757054555    15.994914619570
         O           -2.956113830424    -0.887604998724     0.747242945445    15.994914619570
         O           -0.556631830424    -3.302109998724     0.786157945445    15.994914619570
         O           -0.556550830424     3.295534001276    -0.780507054555    15.994914619570
         O           -1.542969830424    -2.678472998724    -1.093130054555    15.994914619570
         O           -1.542984830424     2.671833001276     1.098709945445    15.994914619570
         O            3.953165169576    -1.101889998724    -0.049227054555    15.994914619570
         O            3.953177169576     1.095229001276     0.054777945445    15.994914619570
         N           -0.828827830424    -2.475510998724    -0.101981054555    14.003074004430
         N           -0.828798830424     2.468902001276     0.107584945445    14.003074004430
         N            3.371691169576    -0.003326998724     0.002777945445    14.003074004430
         C           -0.914716830424    -0.003304998724     0.002790945445    12.000000000000
         C           -0.154605830424    -1.174518998724    -0.019008054555    12.000000000000
         C           -0.154592830424     1.167904001276     0.024593945445    12.000000000000
         C            1.906724169576    -0.003319998724     0.002785945445    12.000000000000
         C            1.235005169576    -1.221496998724    -0.004262054555    12.000000000000
         C            1.235017169576     1.214865001276     0.009838945445    12.000000000000
         C           -2.511730430424     0.067292801276    -0.056669654555    12.000000000000
         H            1.772547169576    -2.162992998724    -0.002056054555     1.007825032230
         H            1.772570169576     2.156355001276     0.007632945445     1.007825032230

  Basis Set: AUG-CC-PVTZ
    Blend: AUG-CC-PVTZ
  Basis Set: (AUG-CC-PVTZ AUX)
    Blend: AUG-CC-PVTZ-JKFIT
	 Reference Energy          =   -1028.5147303455967176 [Eh]
	 Singles Energy            =      -0.0000000000000000 [Eh]
	 Same-Spin Energy          =      -1.0559267312866623 [Eh]
	 Opposite-Spin Energy      =      -2.9506188719512516 [Eh]
	 Correlation Energy        =      -4.0065456032379139 [Eh]
	 Total Energy              =   -1032.5212759488347274 [Eh]

	 ================> DF-SCS-MP2 Energies <==================
	-----------------------------------------------------------
	 SCS Same-Spin Scale       =       0.3333333333333333 [-]
	 SCS Opposite-Spin Scale   =       1.2000000000000000 [-]
	 SCS Same-Spin Energy      =      -0.3519755770955540 [Eh]
	 SCS Opposite-Spin Energy  =      -3.5407426463415019 [Eh]
	 SCS Correlation Energy    =      -3.8927182234370559 [Eh]
	 SCS Total Energy          =   -1032.4074485690337042 [Eh]
	-----------------------------------------------------------

  Dipole Moment: [D]
     X:     8.4311      Y:     0.6187      Z:    -0.5820     Total:     8.4737

*** Psi4 exiting successfully. Buy a developer a beer!
