                               Psi4 1.4a3.dev225

  ==> Input File <==

--------------------------------------------------------------------------
#psi4
#
memory 32 gb

molecule  {
-1 1
  O       -2.9714190     0.8843310    -0.7445430
  O       -2.9714760    -0.8842960     0.7444570
  O       -0.5719940    -3.2988010     0.7833720
  O       -0.5719130     3.2988430    -0.7832930
  O       -1.5583320    -2.6751640    -1.0959160
  O       -1.5583470     2.6751420     1.0959240
  O        3.9378030    -1.0985810    -0.0520130
  O        3.9378150     1.0985380     0.0519920
  N       -0.8441900    -2.4722020    -0.1047670
  N       -0.8441610     2.4722110     0.1047990
  N        3.3563290    -0.0000180    -0.0000080
  C       -0.9300790     0.0000040     0.0000050
  C       -0.1699680    -1.1712100    -0.0217940
  C       -0.1699550     1.1712130     0.0218080
  C        1.8913620    -0.0000110     0.0000000
  C        1.2196430    -1.2181880    -0.0070480
  C        1.2196550     1.2181740     0.0070530
  C       -2.4692772    -0.0352799     0.0296873
  H        1.7571850    -2.1596840    -0.0048420
  H        1.7572080     2.1596640     0.0048470
units angstrom
no_reorient  #important for SAPT in psi4, default
symmetry c1  #important for SAPT in psi4, default
}

set PROPERTIES_ORIGIN ["COM"]
properties('MP2/aug-cc-pvtz', properties = ['dipole'])
--------------------------------------------------------------------------

    Molecular point group: c1
  Charge       = -1
  Multiplicity = 1
  Basis Set: AUG-CC-PVTZ
    Blend: AUG-CC-PVTZ
  Basis Set: (AUG-CC-PVTZ AUX)
    Blend: AUG-CC-PVTZ-JKFIT

    Orbital Energies [Eh]
    ---------------------

    Doubly Occupied:

       1A    -20.543095     2A    -20.543019     3A    -20.518666
       4A    -20.515736     5A    -20.514998     6A    -20.512230
       7A    -20.379227     8A    -20.357556     9A    -15.794933
      10A    -15.765088    11A    -15.762065    12A    -11.249983
      13A    -11.242464    14A    -11.242133    15A    -11.227390
      16A    -11.224514    17A    -11.224170    18A    -11.213323
      19A     -1.526474    20A     -1.499293    21A     -1.495503
      22A     -1.324348    23A     -1.298974    24A     -1.295223
      25A     -1.252696    26A     -1.152371    27A     -1.135848
      28A     -1.050852    29A     -1.043604    30A     -0.913584
      31A     -0.898699    32A     -0.893614    33A     -0.762390
      34A     -0.742489    35A     -0.713288    36A     -0.680523
      37A     -0.673549    38A     -0.661420    39A     -0.652492
      40A     -0.648284    41A     -0.635761    42A     -0.630886
      43A     -0.627759    44A     -0.605096    45A     -0.563113
      46A     -0.558500    47A     -0.522732    48A     -0.507341
      49A     -0.489963    50A     -0.461279    51A     -0.441936
      52A     -0.434321    53A     -0.427718    54A     -0.417466
      55A     -0.408425    56A     -0.404053    57A     -0.394710
      58A     -0.392331    59A     -0.358819    60A     -0.353686
      61A     -0.316138    62A     -0.308468    63A     -0.287452
      64A     -0.272363    65A     -0.258299

  @DF-RHF Final Energy: -1028.52359256171803

   => Energetics <=

    Nuclear Repulsion Energy =           1323.7620753249973404
    One-Electron Energy =               -4058.1218883553560772
    Two-Electron Energy =                1705.8362204686409314
    Total Energy =                      -1028.5235925617180328
  Basis Set: (AUG-CC-PVTZ AUX)
    Blend: AUG-CC-PVTZ-RI
    Molecular point group: c1

    Geometry (in Angstrom), charge = -1, multiplicity = 1:

       Center              X                  Y                   Z               Mass
    ------------   -----------------  -----------------  -----------------  -----------------
         O           -2.958767094689     0.885985512518    -0.745935886084    15.994914619570
         O           -2.958824094689    -0.882641487482     0.743064113916    15.994914619570
         O           -0.559342094689    -3.297146487482     0.781979113916    15.994914619570
         O           -0.559261094689     3.300497512518    -0.784685886084    15.994914619570
         O           -1.545680094689    -2.673509487482    -1.097308886084    15.994914619570
         O           -1.545695094689     2.676796512518     1.094531113916    15.994914619570
         O            3.950454905311    -1.096926487482    -0.053405886084    15.994914619570
         O            3.950466905311     1.100192512518     0.050599113916    15.994914619570
         N           -0.831538094689    -2.470547487482    -0.106159886084    14.003074004430
         N           -0.831509094689     2.473865512518     0.103406113916    14.003074004430
         N            3.368980905311     0.001636512518    -0.001400886084    14.003074004430
         C           -0.917427094689     0.001658512518    -0.001387886084    12.000000000000
         C           -0.157316094689    -1.169555487482    -0.023186886084    12.000000000000
         C           -0.157303094689     1.172867512518     0.020415113916    12.000000000000
         C            1.904013905311     0.001643512518    -0.001392886084    12.000000000000
         C            1.232294905311    -1.216533487482    -0.008440886084    12.000000000000
         C            1.232306905311     1.219828512518     0.005660113916    12.000000000000
         C           -2.456625294689    -0.033625387482     0.028294413916    12.000000000000
         H            1.769836905311    -2.158029487482    -0.006234886084     1.007825032230
         H            1.769859905311     2.161318512518     0.003454113916     1.007825032230

  Basis Set: AUG-CC-PVTZ
    Blend: AUG-CC-PVTZ
  Basis Set: (AUG-CC-PVTZ AUX)
    Blend: AUG-CC-PVTZ-JKFIT
	 Reference Energy          =   -1028.5235925617180328 [Eh]
	 Singles Energy            =      -0.0000000000000000 [Eh]
	 Same-Spin Energy          =      -1.0573553684945320 [Eh]
	 Opposite-Spin Energy      =      -2.9541095521512388 [Eh]
	 Correlation Energy        =      -4.0114649206457713 [Eh]
	 Total Energy              =   -1032.5350574823637544 [Eh]

	 ================> DF-SCS-MP2 Energies <==================
	-----------------------------------------------------------
	 SCS Same-Spin Scale       =       0.3333333333333333 [-]
	 SCS Opposite-Spin Scale   =       1.2000000000000000 [-]
	 SCS Same-Spin Energy      =      -0.3524517894981773 [Eh]
	 SCS Opposite-Spin Energy  =      -3.5449314625814865 [Eh]
	 SCS Correlation Energy    =      -3.8973832520796639 [Eh]
	 SCS Total Energy          =   -1032.4209758137976678 [Eh]
	-----------------------------------------------------------

  Dipole Moment: [D]
     X:     8.9503      Y:    -0.2873      Z:     0.2750     Total:     8.9592

*** Psi4 exiting successfully. Buy a developer a beer!
