                               Psi4 1.4a3.dev225

  ==> Input File <==

--------------------------------------------------------------------------
#psi4
#
memory 32 gb

molecule  {
-1 1
  O       -2.9714190     0.8843310    -0.7445430
  O       -2.9714760    -0.8842960     0.7444570
  O       -0.5719940    -3.2988010     0.7833720
  O       -0.5719130     3.2988430    -0.7832930
  O       -1.5583320    -2.6751640    -1.0959160
  O       -1.5583470     2.6751420     1.0959240
  O        3.9378030    -1.0985810    -0.0520130
  O        3.9378150     1.0985380     0.0519920
  N       -0.8441900    -2.4722020    -0.1047670
  N       -0.8729966     2.4804044     0.1448162
  N        3.3563290    -0.0000180    -0.0000080
  C       -0.9300790     0.0000040     0.0000050
  C       -0.1699680    -1.1712100    -0.0217940
  C       -0.1699550     1.1712130     0.0218080
  C        1.8913620    -0.0000110     0.0000000
  C        1.2196430    -1.2181880    -0.0070480
  C        1.2196550     1.2181740     0.0070530
  C       -2.4885490     0.0000140    -0.0000270
  H        1.7571850    -2.1596840    -0.0048420
  H        1.7572080     2.1596640     0.0048470
units angstrom
no_reorient  #important for SAPT in psi4, default
symmetry c1  #important for SAPT in psi4, default
}

set PROPERTIES_ORIGIN ["COM"]
properties('MP2/aug-cc-pvtz', properties = ['dipole'])
--------------------------------------------------------------------------

    Molecular point group: c1
  Charge       = -1
  Multiplicity = 1
  Basis Set: AUG-CC-PVTZ
    Blend: AUG-CC-PVTZ
  Basis Set: (AUG-CC-PVTZ AUX)
    Blend: AUG-CC-PVTZ-JKFIT

    Orbital Energies [Eh]
    ---------------------

    Doubly Occupied:

       1A    -20.541552     2A    -20.541502     3A    -20.533635
       4A    -20.515948     5A    -20.513153     6A    -20.497165
       7A    -20.370723     8A    -20.370406     9A    -15.793424
      10A    -15.762790    11A    -15.762497    12A    -11.247973
      13A    -11.240375    14A    -11.240037    15A    -11.229623
      16A    -11.222129    17A    -11.222084    18A    -11.209508
      19A     -1.524962    20A     -1.515503    21A     -1.496506
      22A     -1.322845    23A     -1.298429    24A     -1.296262
      25A     -1.247360    26A     -1.153957    27A     -1.147932
      28A     -1.048092    29A     -1.037732    30A     -0.911024
      31A     -0.893602    32A     -0.888951    33A     -0.760419
      34A     -0.742555    35A     -0.713629    36A     -0.675550
      37A     -0.672088    38A     -0.661573    39A     -0.652635
      40A     -0.646786    41A     -0.636200    42A     -0.632419
      43A     -0.628614    44A     -0.607965    45A     -0.565228
      46A     -0.557844    47A     -0.520924    48A     -0.505440
      49A     -0.489027    50A     -0.466298    51A     -0.440777
      52A     -0.433539    53A     -0.427970    54A     -0.415689
      55A     -0.409076    56A     -0.402720    57A     -0.390975
      58A     -0.388968    59A     -0.359433    60A     -0.354776
      61A     -0.317528    62A     -0.305856    63A     -0.282809
      64A     -0.280086    65A     -0.265156

  @DF-RHF Final Energy: -1028.52872008162672

   => Energetics <=

    Nuclear Repulsion Energy =           1323.3780983500239472
    One-Electron Energy =               -4057.3971620830279790
    Two-Electron Energy =                1705.4903436513775432
    Total Energy =                      -1028.5287200816267159
  Basis Set: (AUG-CC-PVTZ AUX)
    Blend: AUG-CC-PVTZ-RI
    Molecular point group: c1

    Geometry (in Angstrom), charge = -1, multiplicity = 1:

       Center              X                  Y                   Z               Mass
    ------------   -----------------  -----------------  -----------------  -----------------
         O           -2.956286282717     0.883882806142    -0.746731998585    15.994914619570
         O           -2.956343282717    -0.884744193858     0.742268001415    15.994914619570
         O           -0.556861282717    -3.299249193858     0.781183001415    15.994914619570
         O           -0.556780282717     3.298394806142    -0.785481998585    15.994914619570
         O           -1.543199282717    -2.675612193858    -1.098104998585    15.994914619570
         O           -1.543214282717     2.674693806142     1.093735001415    15.994914619570
         O            3.952935717283    -1.099029193858    -0.054201998585    15.994914619570
         O            3.952947717283     1.098089806142     0.049803001415    15.994914619570
         N           -0.829057282717    -2.472650193858    -0.106955998585    14.003074004430
         N           -0.857863882717     2.479956206142     0.142627201415    14.003074004430
         N            3.371461717283    -0.000466193858    -0.002196998585    14.003074004430
         C           -0.914946282717    -0.000444193858    -0.002183998585    12.000000000000
         C           -0.154835282717    -1.171658193858    -0.023982998585    12.000000000000
         C           -0.154822282717     1.170764806142     0.019619001415    12.000000000000
         C            1.906494717283    -0.000459193858    -0.002188998585    12.000000000000
         C            1.234775717283    -1.218636193858    -0.009236998585    12.000000000000
         C            1.234787717283     1.217725806142     0.004864001415    12.000000000000
         C           -2.473416282717    -0.000434193858    -0.002215998585    12.000000000000
         H            1.772317717283    -2.160132193858    -0.007030998585     1.007825032230
         H            1.772340717283     2.159215806142     0.002658001415     1.007825032230

  Basis Set: AUG-CC-PVTZ
    Blend: AUG-CC-PVTZ
  Basis Set: (AUG-CC-PVTZ AUX)
    Blend: AUG-CC-PVTZ-JKFIT
	 Reference Energy          =   -1028.5287200816267159 [Eh]
	 Singles Energy            =      -0.0000000000000000 [Eh]
	 Same-Spin Energy          =      -1.0557253589655435 [Eh]
	 Opposite-Spin Energy      =      -2.9503241465626315 [Eh]
	 Correlation Energy        =      -4.0060495055281748 [Eh]
	 Total Energy              =   -1032.5347695871548694 [Eh]

	 ================> DF-SCS-MP2 Energies <==================
	-----------------------------------------------------------
	 SCS Same-Spin Scale       =       0.3333333333333333 [-]
	 SCS Opposite-Spin Scale   =       1.2000000000000000 [-]
	 SCS Same-Spin Energy      =      -0.3519084529885145 [Eh]
	 SCS Opposite-Spin Energy  =      -3.5403889758751577 [Eh]
	 SCS Correlation Energy    =      -3.8922974288636722 [Eh]
	 SCS Total Energy          =   -1032.4210175104904010 [Eh]
	-----------------------------------------------------------

  Dipole Moment: [D]
     X:     8.6826      Y:     0.0276      Z:     0.2185     Total:     8.6854

*** Psi4 exiting successfully. Buy a developer a beer!
