                               Psi4 1.4a3.dev225

  ==> Input File <==

--------------------------------------------------------------------------
#psi4
#
memory 32 gb

molecule  {
-1 1
  O       -2.9714190     0.8843310    -0.7445430
  O       -2.9714760    -0.8842960     0.7444570
  O       -0.5719940    -3.2988010     0.7833720
  O       -0.5719130     3.2988430    -0.7832930
  O       -1.5583320    -2.6751640    -1.0959160
  O       -1.5583470     2.6751420     1.0959240
  O        3.9378030    -1.0985810    -0.0520130
  O        3.9378150     1.0985380     0.0519920
  N       -0.8441900    -2.4722020    -0.1047670
  N       -0.8441610     2.4722110     0.1047990
  N        3.3563290    -0.0000180    -0.0000080
  C       -0.9300790     0.0000040     0.0000050
  C       -0.1699680    -1.1712100    -0.0217940
  C       -0.1699550     1.1712130     0.0218080
  C        1.8913620    -0.0000110     0.0000000
  C        1.3162155    -1.0430517    -0.0060347
  C        1.2196550     1.2181740     0.0070530
  C       -2.4885490     0.0000140    -0.0000270
  H        1.7571850    -2.1596840    -0.0048420
  H        1.7572080     2.1596640     0.0048470
units angstrom
no_reorient  #important for SAPT in psi4, default
symmetry c1  #important for SAPT in psi4, default
}

set PROPERTIES_ORIGIN ["COM"]
properties('MP2/aug-cc-pvtz', properties = ['dipole'])
--------------------------------------------------------------------------

    Molecular point group: c1
  Charge       = -1
  Multiplicity = 1
  Basis Set: AUG-CC-PVTZ
    Blend: AUG-CC-PVTZ
  Basis Set: (AUG-CC-PVTZ AUX)
    Blend: AUG-CC-PVTZ-JKFIT

    Orbital Energies [Eh]
    ---------------------

    Doubly Occupied:

       1A    -20.548671     2A    -20.546593     3A    -20.516927
       4A    -20.515512     5A    -20.514025     6A    -20.512868
       7A    -20.366701     8A    -20.365610     9A    -15.796287
      10A    -15.766109    11A    -15.762485    12A    -11.242483
      13A    -11.242429    14A    -11.230032    15A    -11.224635
      16A    -11.218538    17A    -11.212843    18A    -11.203223
      19A     -1.530492    20A     -1.496726    21A     -1.496144
      22A     -1.328143    23A     -1.296751    24A     -1.295861
      25A     -1.242917    26A     -1.169622    27A     -1.149615
      28A     -1.065861    29A     -1.027620    30A     -0.921379
      31A     -0.899514    32A     -0.889499    33A     -0.760938
      34A     -0.744149    35A     -0.716675    36A     -0.681522
      37A     -0.672766    38A     -0.658570    39A     -0.653732
      40A     -0.648776    41A     -0.632886    42A     -0.629561
      43A     -0.627778    44A     -0.599702    45A     -0.566022
      46A     -0.551324    47A     -0.508590    48A     -0.497056
      49A     -0.482606    50A     -0.464531    51A     -0.443841
      52A     -0.435939    53A     -0.426787    54A     -0.415643
      55A     -0.408388    56A     -0.405619    57A     -0.394701
      58A     -0.394395    59A     -0.357547    60A     -0.353354
      61A     -0.333350    62A     -0.296744    63A     -0.279166
      64A     -0.275619    65A     -0.260956

  @DF-RHF Final Energy: -1028.46304950853778

   => Energetics <=

    Nuclear Repulsion Energy =           1325.5183865141414117
    One-Electron Energy =               -4061.6121805683887942
    Two-Electron Energy =                1707.6307445457093763
    Total Energy =                      -1028.4630495085377788
  Basis Set: (AUG-CC-PVTZ AUX)
    Blend: AUG-CC-PVTZ-RI
    Molecular point group: c1

    Geometry (in Angstrom), charge = -1, multiplicity = 1:

       Center              X                  Y                   Z               Mass
    ------------   -----------------  -----------------  -----------------  -----------------
         O           -2.962390788806     0.876120987644    -0.744590443612    15.994914619570
         O           -2.962447788806    -0.892506012356     0.744409556388    15.994914619570
         O           -0.562965788806    -3.307011012356     0.783324556388    15.994914619570
         O           -0.562884788806     3.290632987644    -0.783340443612    15.994914619570
         O           -1.549303788806    -2.683374012356    -1.095963443612    15.994914619570
         O           -1.549318788806     2.666931987644     1.095876556388    15.994914619570
         O            3.946831211194    -1.106791012356    -0.052060443612    15.994914619570
         O            3.946843211194     1.090327987644     0.051944556388    15.994914619570
         N           -0.835161788806    -2.480412012356    -0.104814443612    14.003074004430
         N           -0.835132788806     2.464000987644     0.104751556388    14.003074004430
         N            3.365357211194    -0.008228012356    -0.000055443612    14.003074004430
         C           -0.921050788806    -0.008206012356    -0.000042443612    12.000000000000
         C           -0.160939788806    -1.179420012356    -0.021841443612    12.000000000000
         C           -0.160926788806     1.163002987644     0.021760556388    12.000000000000
         C            1.900390211194    -0.008221012356    -0.000047443612    12.000000000000
         C            1.325243711194    -1.051261712356    -0.006082143612    12.000000000000
         C            1.228683211194     1.209963987644     0.007005556388    12.000000000000
         C           -2.479520788806    -0.008196012356    -0.000074443612    12.000000000000
         H            1.766213211194    -2.167894012356    -0.004889443612     1.007825032230
         H            1.766236211194     2.151453987644     0.004799556388     1.007825032230

  Basis Set: AUG-CC-PVTZ
    Blend: AUG-CC-PVTZ
  Basis Set: (AUG-CC-PVTZ AUX)
    Blend: AUG-CC-PVTZ-JKFIT
	 Reference Energy          =   -1028.4630495085377788 [Eh]
	 Singles Energy            =      -0.0000000000000000 [Eh]
	 Same-Spin Energy          =      -1.0571525585902464 [Eh]
	 Opposite-Spin Energy      =      -2.9558179574113730 [Eh]
	 Correlation Energy        =      -4.0129705160016194 [Eh]
	 Total Energy              =   -1032.4760200245393662 [Eh]

	 ================> DF-SCS-MP2 Energies <==================
	-----------------------------------------------------------
	 SCS Same-Spin Scale       =       0.3333333333333333 [-]
	 SCS Opposite-Spin Scale   =       1.2000000000000000 [-]
	 SCS Same-Spin Energy      =      -0.3523841861967488 [Eh]
	 SCS Opposite-Spin Energy  =      -3.5469815488936476 [Eh]
	 SCS Correlation Energy    =      -3.8993657350903965 [Eh]
	 SCS Total Energy          =   -1032.3624152436282202 [Eh]
	-----------------------------------------------------------

  Dipole Moment: [D]
     X:     9.0505      Y:    -0.1367      Z:    -0.0277     Total:     9.0516

*** Psi4 exiting successfully. Buy a developer a beer!
