                               Psi4 1.4a3.dev225

  ==> Input File <==

--------------------------------------------------------------------------
#psi4
#
memory 32 gb

molecule  {
-1 1
  O       -2.9714190     0.8843310    -0.7445430
  O       -2.9714760    -0.8842960     0.7444570
  O       -0.5719940    -3.2988010     0.7833720
  O       -0.5719130     3.2988430    -0.7832930
  O       -1.5583320    -2.6751640    -1.0959160
  O       -1.5583470     2.6751420     1.0959240
  O        3.9378030    -1.0985810    -0.0520130
  O        3.9378150     1.0985380     0.0519920
  N       -0.8441900    -2.4722020    -0.1047670
  N       -0.8441610     2.4722110     0.1047990
  N        3.3563290    -0.0000180    -0.0000080
  C       -0.9300790     0.0000040     0.0000050
  C       -0.1699680    -1.1712100    -0.0217940
  C       -0.2243887     1.0873409     0.0202467
  C        1.8913620    -0.0000110     0.0000000
  C        1.2196430    -1.2181880    -0.0070480
  C        1.2196550     1.2181740     0.0070530
  C       -2.4885490     0.0000140    -0.0000270
  H        1.7571850    -2.1596840    -0.0048420
  H        1.7572080     2.1596640     0.0048470
units angstrom
no_reorient  #important for SAPT in psi4, default
symmetry c1  #important for SAPT in psi4, default
}

set PROPERTIES_ORIGIN ["COM"]
properties('MP2/aug-cc-pvtz', properties = ['dipole'])
--------------------------------------------------------------------------

    Molecular point group: c1
  Charge       = -1
  Multiplicity = 1
  Basis Set: AUG-CC-PVTZ
    Blend: AUG-CC-PVTZ
  Basis Set: (AUG-CC-PVTZ AUX)
    Blend: AUG-CC-PVTZ-JKFIT

    Orbital Energies [Eh]
    ---------------------

    Doubly Occupied:

       1A    -20.545369     2A    -20.544234     3A    -20.516409
       4A    -20.513722     5A    -20.513572     6A    -20.511747
       7A    -20.368667     8A    -20.368349     9A    -15.795740
      10A    -15.763155    11A    -15.759272    12A    -11.251599
      13A    -11.244162    14A    -11.239366    15A    -11.232007
      16A    -11.228110    17A    -11.219835    18A    -11.193808
      19A     -1.527865    20A     -1.497040    21A     -1.490527
      22A     -1.325764    23A     -1.296732    24A     -1.292972
      25A     -1.245833    26A     -1.153389    27A     -1.151972
      28A     -1.056440    29A     -1.034336    30A     -0.913932
      31A     -0.901002    32A     -0.882987    33A     -0.759272
      34A     -0.744492    35A     -0.711422    36A     -0.679276
      37A     -0.673872    38A     -0.657555    39A     -0.652129
      40A     -0.649143    41A     -0.631983    42A     -0.627888
      43A     -0.623713    44A     -0.602637    45A     -0.564563
      46A     -0.556609    47A     -0.525894    48A     -0.504060
      49A     -0.493228    50A     -0.465223    51A     -0.442749
      52A     -0.435423    53A     -0.427531    54A     -0.414923
      55A     -0.405364    56A     -0.402488    57A     -0.393283
      58A     -0.389054    59A     -0.357425    60A     -0.352680
      61A     -0.327201    62A     -0.300417    63A     -0.283537
      64A     -0.280467    65A     -0.263044

  @DF-RHF Final Energy: -1028.51436430481658

   => Energetics <=

    Nuclear Repulsion Energy =           1324.2615485926658039
    One-Electron Energy =               -4059.1949038486091013
    Two-Electron Energy =                1706.4189909511267160
    Total Energy =                      -1028.5143643048165814
  Basis Set: (AUG-CC-PVTZ AUX)
    Blend: AUG-CC-PVTZ-RI
    Molecular point group: c1

    Geometry (in Angstrom), charge = -1, multiplicity = 1:

       Center              X                  Y                   Z               Mass
    ------------   -----------------  -----------------  -----------------  -----------------
         O           -2.955311935980     0.888262756289    -0.744469751783    15.994914619570
         O           -2.955368935980    -0.880364243711     0.744530248217    15.994914619570
         O           -0.555886935980    -3.294869243711     0.783445248217    15.994914619570
         O           -0.555805935980     3.302774756289    -0.783219751783    15.994914619570
         O           -1.542224935980    -2.671232243711    -1.095842751783    15.994914619570
         O           -1.542239935980     2.679073756289     1.095997248217    15.994914619570
         O            3.953910064020    -1.094649243711    -0.051939751783    15.994914619570
         O            3.953922064020     1.102469756289     0.052065248217    15.994914619570
         N           -0.828082935980    -2.468270243711    -0.104693751783    14.003074004430
         N           -0.828053935980     2.476142756289     0.104872248217    14.003074004430
         N            3.372436064020     0.003913756289     0.000065248217    14.003074004430
         C           -0.913971935980     0.003935756289     0.000078248217    12.000000000000
         C           -0.153860935980    -1.167278243711    -0.021720751783    12.000000000000
         C           -0.208281635980     1.091272656289     0.020319948217    12.000000000000
         C            1.907469064020     0.003920756289     0.000073248217    12.000000000000
         C            1.235750064020    -1.214256243711    -0.006974751783    12.000000000000
         C            1.235762064020     1.222105756289     0.007126248217    12.000000000000
         C           -2.472441935980     0.003945756289     0.000046248217    12.000000000000
         H            1.773292064020    -2.155752243711    -0.004768751783     1.007825032230
         H            1.773315064020     2.163595756289     0.004920248217     1.007825032230

  Basis Set: AUG-CC-PVTZ
    Blend: AUG-CC-PVTZ
  Basis Set: (AUG-CC-PVTZ AUX)
    Blend: AUG-CC-PVTZ-JKFIT
	 Reference Energy          =   -1028.5143643048165814 [Eh]
	 Singles Energy            =      -0.0000000000000000 [Eh]
	 Same-Spin Energy          =      -1.0570713090698249 [Eh]
	 Opposite-Spin Energy      =      -2.9541864287703135 [Eh]
	 Correlation Energy        =      -4.0112577378401379 [Eh]
	 Total Energy              =   -1032.5256220426567779 [Eh]

	 ================> DF-SCS-MP2 Energies <==================
	-----------------------------------------------------------
	 SCS Same-Spin Scale       =       0.3333333333333333 [-]
	 SCS Opposite-Spin Scale   =       1.2000000000000000 [-]
	 SCS Same-Spin Energy      =      -0.3523571030232749 [Eh]
	 SCS Opposite-Spin Energy  =      -3.5450237145243761 [Eh]
	 SCS Correlation Energy    =      -3.8973808175476510 [Eh]
	 SCS Total Energy          =   -1032.4117451223642092 [Eh]
	-----------------------------------------------------------

  Dipole Moment: [D]
     X:     8.8654      Y:    -0.1578      Z:    -0.0297     Total:     8.8668

*** Psi4 exiting successfully. Buy a developer a beer!
