                               Psi4 1.4a3.dev225

  ==> Input File <==

--------------------------------------------------------------------------
#psi4
#
memory 32 gb

molecule  {
-1 1
  O       -2.9714190     0.8843310    -0.7445430
  O       -2.9714760    -0.8842960     0.7444570
  O       -0.5719940    -3.2988010     0.7833720
  O       -0.5719130     3.2988430    -0.7832930
  O       -1.5583320    -2.6751640    -1.0959160
  O       -1.5583470     2.6751420     1.0959240
  O        3.9378030    -1.0985810    -0.0520130
  O        3.9378150     1.0985380     0.0519920
  N       -0.8441900    -2.4722020    -0.1047670
  N       -0.8441610     2.4722110     0.1047990
  N        3.3563290    -0.0000180    -0.0000080
  C       -0.9300790     0.0000040     0.0000050
  C       -0.2618448    -1.3484973    -0.0331008
  C       -0.1699550     1.1712130     0.0218080
  C        1.8913620    -0.0000110     0.0000000
  C        1.2196430    -1.2181880    -0.0070480
  C        1.2196550     1.2181740     0.0070530
  C       -2.4885490     0.0000140    -0.0000270
  H        1.7571850    -2.1596840    -0.0048420
  H        1.7572080     2.1596640     0.0048470
units angstrom
no_reorient  #important for SAPT in psi4, default
symmetry c1  #important for SAPT in psi4, default
}

set PROPERTIES_ORIGIN ["COM"]
properties('MP2/aug-cc-pvtz', properties = ['dipole'])
--------------------------------------------------------------------------

    Molecular point group: c1
  Charge       = -1
  Multiplicity = 1
  Basis Set: AUG-CC-PVTZ
    Blend: AUG-CC-PVTZ
  Basis Set: (AUG-CC-PVTZ AUX)
    Blend: AUG-CC-PVTZ-JKFIT

    Orbital Energies [Eh]
    ---------------------

    Doubly Occupied:

       1A    -20.541992     2A    -20.541548     3A    -20.517360
       4A    -20.516859     5A    -20.515002     6A    -20.514172
       7A    -20.368468     8A    -20.368434     9A    -15.794985
      10A    -15.764453    11A    -15.761462    12A    -11.248995
      13A    -11.244302    14A    -11.240101    15A    -11.236047
      16A    -11.228651    17A    -11.226438    18A    -11.225586
      19A     -1.525528    20A     -1.522389    21A     -1.497523
      22A     -1.323312    23A     -1.305326    24A     -1.297227
      25A     -1.245079    26A     -1.151997    27A     -1.140972
      28A     -1.083158    29A     -1.044989    30A     -0.926972
      31A     -0.905945    32A     -0.882714    33A     -0.758939
      34A     -0.739770    35A     -0.713971    36A     -0.679803
      37A     -0.675085    38A     -0.667182    39A     -0.656530
      40A     -0.648184    41A     -0.644274    42A     -0.634648
      43A     -0.630111    44A     -0.610600    45A     -0.561292
      46A     -0.541605    47A     -0.514547    48A     -0.485928
      49A     -0.480215    50A     -0.458898    51A     -0.440831
      52A     -0.433621    53A     -0.427299    54A     -0.422414
      55A     -0.417213    56A     -0.404560    57A     -0.399787
      58A     -0.391477    59A     -0.360961    60A     -0.355226
      61A     -0.314966    62A     -0.296701    63A     -0.277464
      64A     -0.272865    65A     -0.263116

  @DF-RHF Final Energy: -1028.47253531705837

   => Energetics <=

    Nuclear Repulsion Energy =           1323.0819263042385501
    One-Electron Energy =               -4056.5327862491440101
    Two-Electron Energy =                1704.9783246278470870
    Total Energy =                      -1028.4725353170583730
  Basis Set: (AUG-CC-PVTZ AUX)
    Blend: AUG-CC-PVTZ-RI
    Molecular point group: c1

    Geometry (in Angstrom), charge = -1, multiplicity = 1:

       Center              X                  Y                   Z               Mass
    ------------   -----------------  -----------------  -----------------  -----------------
         O           -2.953556682261     0.892641864250    -0.744012903255    15.994914619570
         O           -2.953613682261    -0.875985135750     0.744987096745    15.994914619570
         O           -0.554131682261    -3.290490135750     0.783902096745    15.994914619570
         O           -0.554050682261     3.307153864250    -0.782762903255    15.994914619570
         O           -1.540469682261    -2.666853135750    -1.095385903255    15.994914619570
         O           -1.540484682261     2.683452864250     1.096454096745    15.994914619570
         O            3.955665317739    -1.090270135750    -0.051482903255    15.994914619570
         O            3.955677317739     1.106848864250     0.052522096745    15.994914619570
         N           -0.826327682261    -2.463891135750    -0.104236903255    14.003074004430
         N           -0.826298682261     2.480521864250     0.105329096745    14.003074004430
         N            3.374191317739     0.008292864250     0.000522096745    14.003074004430
         C           -0.912216682261     0.008314864250     0.000535096745    12.000000000000
         C           -0.243982482261    -1.340186435750    -0.032570703255    12.000000000000
         C           -0.152092682261     1.179523864250     0.022338096745    12.000000000000
         C            1.909224317739     0.008299864250     0.000530096745    12.000000000000
         C            1.237505317739    -1.209877135750    -0.006517903255    12.000000000000
         C            1.237517317739     1.226484864250     0.007583096745    12.000000000000
         C           -2.470686682261     0.008324864250     0.000503096745    12.000000000000
         H            1.775047317739    -2.151373135750    -0.004311903255     1.007825032230
         H            1.775070317739     2.167974864250     0.005377096745     1.007825032230

  Basis Set: AUG-CC-PVTZ
    Blend: AUG-CC-PVTZ
  Basis Set: (AUG-CC-PVTZ AUX)
    Blend: AUG-CC-PVTZ-JKFIT
	 Reference Energy          =   -1028.4725353170583730 [Eh]
	 Singles Energy            =      -0.0000000000000000 [Eh]
	 Same-Spin Energy          =      -1.0599977450778379 [Eh]
	 Opposite-Spin Energy      =      -2.9573552350520451 [Eh]
	 Correlation Energy        =      -4.0173529801298828 [Eh]
	 Total Energy              =   -1032.4898882971881449 [Eh]

	 ================> DF-SCS-MP2 Energies <==================
	-----------------------------------------------------------
	 SCS Same-Spin Scale       =       0.3333333333333333 [-]
	 SCS Opposite-Spin Scale   =       1.2000000000000000 [-]
	 SCS Same-Spin Energy      =      -0.3533325816926126 [Eh]
	 SCS Opposite-Spin Energy  =      -3.5488262820624539 [Eh]
	 SCS Correlation Energy    =      -3.9021588637550666 [Eh]
	 SCS Total Energy          =   -1032.3746941808135489 [Eh]
	-----------------------------------------------------------

  Dipole Moment: [D]
     X:     8.6761      Y:    -0.1738      Z:    -0.0223     Total:     8.6779

*** Psi4 exiting successfully. Buy a developer a beer!
