                               Psi4 1.4a3.dev225

  ==> Input File <==

--------------------------------------------------------------------------
#psi4
#
memory 32 gb

molecule  {
-1 1
  O       -2.9714190     0.8843310    -0.7445430
  O       -2.9714760    -0.8842960     0.7444570
  O       -0.5719940    -3.2988010     0.7833720
  O       -0.5719130     3.2988430    -0.7832930
  O       -1.5583320    -2.6751640    -1.0959160
  O       -1.5583470     2.6751420     1.0959240
  O        3.9378030    -1.0985810    -0.0520130
  O        3.9378150     1.0985380     0.0519920
  N       -0.8441900    -2.4722020    -0.1047670
  N       -0.8441610     2.4722110     0.1047990
  N        3.3563290    -0.0000180    -0.0000080
  C       -0.9300790     0.0000040     0.0000050
  C       -0.1633101    -1.0743853    -0.0213557
  C       -0.1699550     1.1712130     0.0218080
  C        1.8913620    -0.0000110     0.0000000
  C        1.2196430    -1.2181880    -0.0070480
  C        1.2196550     1.2181740     0.0070530
  C       -2.4885490     0.0000140    -0.0000270
  H        1.7571850    -2.1596840    -0.0048420
  H        1.7572080     2.1596640     0.0048470
units angstrom
no_reorient  #important for SAPT in psi4, default
symmetry c1  #important for SAPT in psi4, default
}

set PROPERTIES_ORIGIN ["COM"]
properties('MP2/aug-cc-pvtz', properties = ['dipole'])
--------------------------------------------------------------------------

    Molecular point group: c1
  Charge       = -1
  Multiplicity = 1
  Basis Set: AUG-CC-PVTZ
    Blend: AUG-CC-PVTZ
  Basis Set: (AUG-CC-PVTZ AUX)
    Blend: AUG-CC-PVTZ-JKFIT

    Orbital Energies [Eh]
    ---------------------

    Doubly Occupied:

       1A    -20.544551     2A    -20.544167     3A    -20.516942
       4A    -20.514163     5A    -20.511415     6A    -20.509242
       7A    -20.370389     8A    -20.369822     9A    -15.795336
      10A    -15.763330    11A    -15.755528    12A    -11.251296
      13A    -11.244001    14A    -11.240105    15A    -11.230585
      16A    -11.225566    17A    -11.220917    18A    -11.200052
      19A     -1.527488    20A     -1.497504    21A     -1.485789
      22A     -1.325398    23A     -1.297210    24A     -1.289810
      25A     -1.247034    26A     -1.157517    27A     -1.153374
      28A     -1.054590    29A     -1.035494    30A     -0.916094
      31A     -0.900895    32A     -0.876040    33A     -0.761019
      34A     -0.742789    35A     -0.711415    36A     -0.680997
      37A     -0.673733    38A     -0.656698    39A     -0.649247
      40A     -0.647239    41A     -0.631945    42A     -0.627936
      43A     -0.621224    44A     -0.601644    45A     -0.569309
      46A     -0.560174    47A     -0.525863    48A     -0.507233
      49A     -0.495779    50A     -0.466982    51A     -0.442617
      52A     -0.435367    53A     -0.428895    54A     -0.414738
      55A     -0.405088    56A     -0.401186    57A     -0.393072
      58A     -0.382421    59A     -0.357415    60A     -0.351273
      61A     -0.324203    62A     -0.307057    63A     -0.283586
      64A     -0.283107    65A     -0.264121

  @DF-RHF Final Energy: -1028.51752407760614

   => Energetics <=

    Nuclear Repulsion Energy =           1324.1718313225605925
    One-Electron Energy =               -4059.0246730272974673
    Two-Electron Energy =                1706.3353176271307348
    Total Energy =                      -1028.5175240776061401
  Basis Set: (AUG-CC-PVTZ AUX)
    Blend: AUG-CC-PVTZ-RI
    Molecular point group: c1

    Geometry (in Angstrom), charge = -1, multiplicity = 1:

       Center              X                  Y                   Z               Mass
    ------------   -----------------  -----------------  -----------------  -----------------
         O           -2.958175781606     0.879792070626    -0.744563488822    15.994914619570
         O           -2.958232781606    -0.888834929374     0.744436511178    15.994914619570
         O           -0.558750781606    -3.303339929374     0.783351511178    15.994914619570
         O           -0.558669781606     3.294304070626    -0.783313488822    15.994914619570
         O           -1.545088781606    -2.679702929374    -1.095936488822    15.994914619570
         O           -1.545103781606     2.670603070626     1.095903511178    15.994914619570
         O            3.951046218394    -1.103119929374    -0.052033488822    15.994914619570
         O            3.951058218394     1.093999070626     0.051971511178    15.994914619570
         N           -0.830946781606    -2.476740929374    -0.104787488822    14.003074004430
         N           -0.830917781606     2.467672070626     0.104778511178    14.003074004430
         N            3.369572218394    -0.004556929374    -0.000028488822    14.003074004430
         C           -0.916835781606    -0.004534929374    -0.000015488822    12.000000000000
         C           -0.150066881606    -1.078924229374    -0.021376188822    12.000000000000
         C           -0.156711781606     1.166674070626     0.021787511178    12.000000000000
         C            1.904605218394    -0.004549929374    -0.000020488822    12.000000000000
         C            1.232886218394    -1.222726929374    -0.007068488822    12.000000000000
         C            1.232898218394     1.213635070626     0.007032511178    12.000000000000
         C           -2.475305781606    -0.004524929374    -0.000047488822    12.000000000000
         H            1.770428218394    -2.164222929374    -0.004862488822     1.007825032230
         H            1.770451218394     2.155125070626     0.004826511178     1.007825032230

  Basis Set: AUG-CC-PVTZ
    Blend: AUG-CC-PVTZ
  Basis Set: (AUG-CC-PVTZ AUX)
    Blend: AUG-CC-PVTZ-JKFIT
	 Reference Energy          =   -1028.5175240776061401 [Eh]
	 Singles Energy            =      -0.0000000000000000 [Eh]
	 Same-Spin Energy          =      -1.0574737966597982 [Eh]
	 Opposite-Spin Energy      =      -2.9541183070685291 [Eh]
	 Correlation Energy        =      -4.0115921037283275 [Eh]
	 Total Energy              =   -1032.5291161813345298 [Eh]

	 ================> DF-SCS-MP2 Energies <==================
	-----------------------------------------------------------
	 SCS Same-Spin Scale       =       0.3333333333333333 [-]
	 SCS Opposite-Spin Scale   =       1.2000000000000000 [-]
	 SCS Same-Spin Energy      =      -0.3524912655532660 [Eh]
	 SCS Opposite-Spin Energy  =      -3.5449419684822350 [Eh]
	 SCS Correlation Energy    =      -3.8974332340355011 [Eh]
	 SCS Total Energy          =   -1032.4149573116417287 [Eh]
	-----------------------------------------------------------

  Dipole Moment: [D]
     X:     8.8732      Y:     0.1831      Z:     0.0192     Total:     8.8751

*** Psi4 exiting successfully. Buy a developer a beer!
