                               Psi4 1.4a3.dev225

  ==> Input File <==

--------------------------------------------------------------------------
#psi4
#
memory 32 gb

molecule  {
-1 1
  O       -2.9714190     0.8843310    -0.7445430
  O       -2.9714760    -0.8842960     0.7444570
  O       -0.5719940    -3.2988010     0.7833720
  O       -0.5719130     3.2988430    -0.7832930
  O       -1.5583320    -2.6751640    -1.0959160
  O       -1.5583470     2.6751420     1.0959240
  O        3.9378030    -1.0985810    -0.0520130
  O        3.9378150     1.0985380     0.0519920
  N       -0.8441900    -2.4722020    -0.1047670
  N       -0.8441610     2.4722110     0.1047990
  N        3.3563290    -0.0000180    -0.0000080
  C       -0.9300790     0.0000040     0.0000050
  C       -0.1699680    -1.1712100    -0.0217940
  C       -0.1699550     1.1712130     0.0218080
  C        1.8913620    -0.0000110     0.0000000
  C        1.2196430    -1.2181880    -0.0070480
  C        1.2196550     1.2181740     0.0070530
  C       -2.4692749     0.0353077    -0.0297401
  H        1.7571850    -2.1596840    -0.0048420
  H        1.7572080     2.1596640     0.0048470
units angstrom
no_reorient  #important for SAPT in psi4, default
symmetry c1  #important for SAPT in psi4, default
}

set PROPERTIES_ORIGIN ["COM"]
properties('MP2/aug-cc-pvtz', properties = ['dipole'])
--------------------------------------------------------------------------

    Molecular point group: c1
  Charge       = -1
  Multiplicity = 1
  Basis Set: AUG-CC-PVTZ
    Blend: AUG-CC-PVTZ
  Basis Set: (AUG-CC-PVTZ AUX)
    Blend: AUG-CC-PVTZ-JKFIT

    Orbital Energies [Eh]
    ---------------------

    Doubly Occupied:

       1A    -20.543095     2A    -20.543020     3A    -20.518666
       4A    -20.515736     5A    -20.514998     6A    -20.512230
       7A    -20.379226     8A    -20.357556     9A    -15.794933
      10A    -15.765088    11A    -15.762065    12A    -11.249983
      13A    -11.242464    14A    -11.242133    15A    -11.227390
      16A    -11.224513    17A    -11.224171    18A    -11.213323
      19A     -1.526474    20A     -1.499293    21A     -1.495503
      22A     -1.324348    23A     -1.298974    24A     -1.295223
      25A     -1.252695    26A     -1.152371    27A     -1.135848
      28A     -1.050852    29A     -1.043604    30A     -0.913584
      31A     -0.898699    32A     -0.893614    33A     -0.762390
      34A     -0.742489    35A     -0.713288    36A     -0.680524
      37A     -0.673549    38A     -0.661421    39A     -0.652492
      40A     -0.648285    41A     -0.635761    42A     -0.630885
      43A     -0.627760    44A     -0.605096    45A     -0.563113
      46A     -0.558500    47A     -0.522732    48A     -0.507341
      49A     -0.489963    50A     -0.461279    51A     -0.441936
      52A     -0.434321    53A     -0.427717    54A     -0.417466
      55A     -0.408425    56A     -0.404054    57A     -0.394710
      58A     -0.392331    59A     -0.358819    60A     -0.353686
      61A     -0.316138    62A     -0.308468    63A     -0.287452
      64A     -0.272364    65A     -0.258299

  @DF-RHF Final Energy: -1028.52359273036791

   => Energetics <=

    Nuclear Repulsion Energy =           1323.7620894269691689
    One-Electron Energy =               -4058.1219139237737181
    Two-Electron Energy =                1705.8362317664364127
    Total Energy =                      -1028.5235927303679091
  Basis Set: (AUG-CC-PVTZ AUX)
    Blend: AUG-CC-PVTZ-RI
    Molecular point group: c1

    Geometry (in Angstrom), charge = -1, multiplicity = 1:

       Center              X                  Y                   Z               Mass
    ------------   -----------------  -----------------  -----------------  -----------------
         O           -2.958767202508     0.882676514399    -0.743150054652    15.994914619570
         O           -2.958824202508    -0.885950485601     0.745849945348    15.994914619570
         O           -0.559342202508    -3.300455485601     0.784764945348    15.994914619570
         O           -0.559261202508     3.297188514399    -0.781900054652    15.994914619570
         O           -1.545680202508    -2.676818485601    -1.094523054652    15.994914619570
         O           -1.545695202508     2.673487514399     1.097316945348    15.994914619570
         O            3.950454797492    -1.100235485601    -0.050620054652    15.994914619570
         O            3.950466797492     1.096883514399     0.053384945348    15.994914619570
         N           -0.831538202508    -2.473856485601    -0.103374054652    14.003074004430
         N           -0.831509202508     2.470556514399     0.106191945348    14.003074004430
         N            3.368980797492    -0.001672485601     0.001384945348    14.003074004430
         C           -0.917427202508    -0.001650485601     0.001397945348    12.000000000000
         C           -0.157316202508    -1.172864485601    -0.020401054652    12.000000000000
         C           -0.157303202508     1.169558514399     0.023200945348    12.000000000000
         C            1.904013797492    -0.001665485601     0.001392945348    12.000000000000
         C            1.232294797492    -1.219842485601    -0.005655054652    12.000000000000
         C            1.232306797492     1.216519514399     0.008445945348    12.000000000000
         C           -2.456623102508     0.033653214399    -0.028347154652    12.000000000000
         H            1.769836797492    -2.161338485601    -0.003449054652     1.007825032230
         H            1.769859797492     2.158009514399     0.006239945348     1.007825032230

  Basis Set: AUG-CC-PVTZ
    Blend: AUG-CC-PVTZ
  Basis Set: (AUG-CC-PVTZ AUX)
    Blend: AUG-CC-PVTZ-JKFIT
	 Reference Energy          =   -1028.5235927303679091 [Eh]
	 Singles Energy            =      -0.0000000000000000 [Eh]
	 Same-Spin Energy          =      -1.0573553748225912 [Eh]
	 Opposite-Spin Energy      =      -2.9541095636419565 [Eh]
	 Correlation Energy        =      -4.0114649384645480 [Eh]
	 Total Energy              =   -1032.5350576688324509 [Eh]

	 ================> DF-SCS-MP2 Energies <==================
	-----------------------------------------------------------
	 SCS Same-Spin Scale       =       0.3333333333333333 [-]
	 SCS Opposite-Spin Scale   =       1.2000000000000000 [-]
	 SCS Same-Spin Energy      =      -0.3524517916075304 [Eh]
	 SCS Opposite-Spin Energy  =      -3.5449314763703477 [Eh]
	 SCS Correlation Energy    =      -3.8973832679778782 [Eh]
	 SCS Total Energy          =   -1032.4209759983457388 [Eh]
	-----------------------------------------------------------

  Dipole Moment: [D]
     X:     8.9504      Y:     0.2872      Z:    -0.2747     Total:     8.9592

*** Psi4 exiting successfully. Buy a developer a beer!
