                               Psi4 1.4a3.dev225

  ==> Input File <==

--------------------------------------------------------------------------
#psi4
#
memory 32 gb

molecule  {
-1 1
  O       -2.9714190     0.8843310    -0.7445430
  O       -2.9714760    -0.8842960     0.7444570
  O       -0.5719940    -3.2988010     0.7833720
  O       -0.5719130     3.2988430    -0.7832930
  O       -1.5583320    -2.6751640    -1.0959160
  O       -1.5583470     2.6751420     1.0959240
  O        3.9378030    -1.0985810    -0.0520130
  O        3.9378150     1.0985380     0.0519920
  N       -0.8441900    -2.4722020    -0.1047670
  N       -0.8441610     2.4722110     0.1047990
  N        3.3563290    -0.0000180    -0.0000080
  C       -0.9300790     0.0000040     0.0000050
  C       -0.1699680    -1.1712100    -0.0217940
  C       -0.1699550     1.1712130     0.0218080
  C        1.8913620    -0.0000110     0.0000000
  C        1.2196430    -1.2181880    -0.0070480
  C        1.2196550     1.2181740     0.0070530
  C       -2.4500054    -0.0705738     0.0594016
  H        1.7571850    -2.1596840    -0.0048420
  H        1.7572080     2.1596640     0.0048470
units angstrom
no_reorient  #important for SAPT in psi4, default
symmetry c1  #important for SAPT in psi4, default
}

set PROPERTIES_ORIGIN ["COM"]
properties('MP2/aug-cc-pvtz', properties = ['dipole'])
--------------------------------------------------------------------------

    Molecular point group: c1
  Charge       = -1
  Multiplicity = 1
  Basis Set: AUG-CC-PVTZ
    Blend: AUG-CC-PVTZ
  Basis Set: (AUG-CC-PVTZ AUX)
    Blend: AUG-CC-PVTZ-JKFIT

    Orbital Energies [Eh]
    ---------------------

    Doubly Occupied:

       1A    -20.543790     2A    -20.543665     3A    -20.520886
       4A    -20.517831     5A    -20.513650     6A    -20.510916
       7A    -20.388674     8A    -20.346020     9A    -15.795590
      10A    -15.767090    11A    -15.761131    12A    -11.250997
      13A    -11.243978    14A    -11.243245    15A    -11.225504
      16A    -11.225043    17A    -11.224850    18A    -11.215399
      19A     -1.527130    20A     -1.501579    21A     -1.494113
      22A     -1.324993    23A     -1.301258    24A     -1.293835
      25A     -1.272218    26A     -1.153864    27A     -1.110929
      28A     -1.051825    29A     -1.044092    30A     -0.914887
      31A     -0.900627    32A     -0.894302    33A     -0.763946
      34A     -0.743457    35A     -0.713836    36A     -0.685356
      37A     -0.674164    38A     -0.662236    39A     -0.653165
      40A     -0.648943    41A     -0.636809    42A     -0.632356
      43A     -0.626768    44A     -0.605828    45A     -0.563868
      46A     -0.560499    47A     -0.523658    48A     -0.514932
      49A     -0.491260    50A     -0.457640    51A     -0.442598
      52A     -0.436262    53A     -0.430421    54A     -0.418319
      55A     -0.409544    56A     -0.404075    57A     -0.395051
      58A     -0.392900    59A     -0.360039    60A     -0.353166
      61A     -0.314442    62A     -0.309198    63A     -0.289938
      64A     -0.262542    65A     -0.249270

  @DF-RHF Final Energy: -1028.51198119683772

   => Energetics <=

    Nuclear Repulsion Energy =           1324.0855744239484011
    One-Electron Energy =               -4058.6943049457768211
    Two-Electron Energy =                1706.0967493249906966
    Total Energy =                      -1028.5119811968377235
  Basis Set: (AUG-CC-PVTZ AUX)
    Blend: AUG-CC-PVTZ-RI
    Molecular point group: c1

    Geometry (in Angstrom), charge = -1, multiplicity = 1:

       Center              X                  Y                   Z               Mass
    ------------   -----------------  -----------------  -----------------  -----------------
         O           -2.959670516111     0.887640016265    -0.747328829927    15.994914619570
         O           -2.959727516111    -0.880986983735     0.741671170073    15.994914619570
         O           -0.560245516111    -3.295491983735     0.780586170073    15.994914619570
         O           -0.560164516111     3.302152016265    -0.786078829927    15.994914619570
         O           -1.546583516111    -2.671854983735    -1.098701829927    15.994914619570
         O           -1.546598516111     2.678451016265     1.093138170073    15.994914619570
         O            3.949551483889    -1.095271983735    -0.054798829927    15.994914619570
         O            3.949563483889     1.101847016265     0.049206170073    15.994914619570
         N           -0.832441516111    -2.468892983735    -0.107552829927    14.003074004430
         N           -0.832412516111     2.475520016265     0.102013170073    14.003074004430
         N            3.368077483889     0.003291016265    -0.002793829927    14.003074004430
         C           -0.918330516111     0.003313016265    -0.002780829927    12.000000000000
         C           -0.158219516111    -1.167900983735    -0.024579829927    12.000000000000
         C           -0.158206516111     1.174522016265     0.019022170073    12.000000000000
         C            1.903110483889     0.003298016265    -0.002785829927    12.000000000000
         C            1.231391483889    -1.214878983735    -0.009833829927    12.000000000000
         C            1.231403483889     1.221483016265     0.004267170073    12.000000000000
         C           -2.438256916111    -0.067264783735     0.056615770073    12.000000000000
         H            1.768933483889    -2.156374983735    -0.007627829927     1.007825032230
         H            1.768956483889     2.162973016265     0.002061170073     1.007825032230

  Basis Set: AUG-CC-PVTZ
    Blend: AUG-CC-PVTZ
  Basis Set: (AUG-CC-PVTZ AUX)
    Blend: AUG-CC-PVTZ-JKFIT
	 Reference Energy          =   -1028.5119811968377235 [Eh]
	 Singles Energy            =      -0.0000000000000000 [Eh]
	 Same-Spin Energy          =      -1.0577848601959012 [Eh]
	 Opposite-Spin Energy      =      -2.9551985021026428 [Eh]
	 Correlation Energy        =      -4.0129833622985442 [Eh]
	 Total Energy              =   -1032.5249645591363787 [Eh]

	 ================> DF-SCS-MP2 Energies <==================
	-----------------------------------------------------------
	 SCS Same-Spin Scale       =       0.3333333333333333 [-]
	 SCS Opposite-Spin Scale   =       1.2000000000000000 [-]
	 SCS Same-Spin Energy      =      -0.3525949533986337 [Eh]
	 SCS Opposite-Spin Energy  =      -3.5462382025231713 [Eh]
	 SCS Correlation Energy    =      -3.8988331559218050 [Eh]
	 SCS Total Energy          =   -1032.4108143527594166 [Eh]
	-----------------------------------------------------------

  Dipole Moment: [D]
     X:     9.0447      Y:    -0.5654      Z:     0.5443     Total:     9.0787

*** Psi4 exiting successfully. Buy a developer a beer!
