                               Psi4 1.4a3.dev225

  ==> Input File <==

--------------------------------------------------------------------------
#psi4
#
memory 32 gb

molecule  {
-1 1
  O       -2.9714190     0.8843310    -0.7445430
  O       -2.9714760    -0.8842960     0.7444570
  O       -0.5719940    -3.2988010     0.7833720
  O       -0.5719130     3.2988430    -0.7832930
  O       -1.5583320    -2.6751640    -1.0959160
  O       -1.5583470     2.6751420     1.0959240
  O        3.9378030    -1.0985810    -0.0520130
  O        3.9378150     1.0985380     0.0519920
  N       -0.8441900    -2.4722020    -0.1047670
  N       -0.7864898     2.4558241     0.0247646
  N        3.3563290    -0.0000180    -0.0000080
  C       -0.9300790     0.0000040     0.0000050
  C       -0.1699680    -1.1712100    -0.0217940
  C       -0.1699550     1.1712130     0.0218080
  C        1.8913620    -0.0000110     0.0000000
  C        1.2196430    -1.2181880    -0.0070480
  C        1.2196550     1.2181740     0.0070530
  C       -2.4885490     0.0000140    -0.0000270
  H        1.7571850    -2.1596840    -0.0048420
  H        1.7572080     2.1596640     0.0048470
units angstrom
no_reorient  #important for SAPT in psi4, default
symmetry c1  #important for SAPT in psi4, default
}

set PROPERTIES_ORIGIN ["COM"]
properties('MP2/aug-cc-pvtz', properties = ['dipole'])
--------------------------------------------------------------------------

    Molecular point group: c1
  Charge       = -1
  Multiplicity = 1
  Basis Set: AUG-CC-PVTZ
    Blend: AUG-CC-PVTZ
  Basis Set: (AUG-CC-PVTZ AUX)
    Blend: AUG-CC-PVTZ-JKFIT

    Orbital Energies [Eh]
    ---------------------

    Doubly Occupied:

       1A    -20.546202     2A    -20.543413     3A    -20.543358
       4A    -20.517021     5A    -20.514198     6A    -20.481409
       7A    -20.368432     8A    -20.367916     9A    -15.795249
      10A    -15.763744    11A    -15.759357    12A    -11.249993
      13A    -11.242045    14A    -11.241189    15A    -11.228007
      16A    -11.225373    17A    -11.225269    18A    -11.213630
      19A     -1.526829    20A     -1.511910    21A     -1.497570
      22A     -1.324722    23A     -1.297278    24A     -1.258065
      25A     -1.243107    26A     -1.152427    27A     -1.151320
      28A     -1.055995    29A     -1.048423    30A     -0.915459
      31A     -0.905731    32A     -0.895098    33A     -0.762051
      34A     -0.744211    35A     -0.715654    36A     -0.676440
      37A     -0.674895    38A     -0.664428    39A     -0.654868
      40A     -0.648732    41A     -0.635897    42A     -0.629622
      43A     -0.626998    44A     -0.604429    45A     -0.561334
      46A     -0.557083    47A     -0.523618    48A     -0.504381
      49A     -0.488928    50A     -0.464510    51A     -0.442282
      52A     -0.434573    53A     -0.427275    54A     -0.415528
      55A     -0.409817    56A     -0.399443    57A     -0.392873
      58A     -0.386205    59A     -0.357105    60A     -0.344977
      61A     -0.316630    62A     -0.308167    63A     -0.280860
      64A     -0.278991    65A     -0.261607

  @DF-RHF Final Energy: -1028.51022079562335

   => Energetics <=

    Nuclear Repulsion Energy =           1323.9092895780879644
    One-Electron Energy =               -4058.4307175853932677
    Two-Electron Energy =                1706.0112072116817217
    Total Energy =                      -1028.5102207956233542
  Basis Set: (AUG-CC-PVTZ AUX)
    Blend: AUG-CC-PVTZ-RI
    Molecular point group: c1

    Geometry (in Angstrom), charge = -1, multiplicity = 1:

       Center              X                  Y                   Z               Mass
    ------------   -----------------  -----------------  -----------------  -----------------
         O           -2.961018454367     0.885227419499    -0.740164829552    15.994914619570
         O           -2.961075454367    -0.883399580501     0.748835170448    15.994914619570
         O           -0.561593454367    -3.297904580501     0.787750170448    15.994914619570
         O           -0.561512454367     3.299739419499    -0.778914829552    15.994914619570
         O           -1.547931454367    -2.674267580501    -1.091537829552    15.994914619570
         O           -1.547946454367     2.676038419499     1.100302170448    15.994914619570
         O            3.948203545633    -1.097684580501    -0.047634829552    15.994914619570
         O            3.948215545633     1.099434419499     0.056370170448    15.994914619570
         N           -0.833789454367    -2.471305580501    -0.100388829552    14.003074004430
         N           -0.776089254367     2.456720519499     0.029142770448    14.003074004430
         N            3.366729545633     0.000878419499     0.004370170448    14.003074004430
         C           -0.919678454367     0.000900419499     0.004383170448    12.000000000000
         C           -0.159567454367    -1.170313580501    -0.017415829552    12.000000000000
         C           -0.159554454367     1.172109419499     0.026186170448    12.000000000000
         C            1.901762545633     0.000885419499     0.004378170448    12.000000000000
         C            1.230043545633    -1.217291580501    -0.002669829552    12.000000000000
         C            1.230055545633     1.219070419499     0.011431170448    12.000000000000
         C           -2.478148454367     0.000910419499     0.004351170448    12.000000000000
         H            1.767585545633    -2.158787580501    -0.000463829552     1.007825032230
         H            1.767608545633     2.160560419499     0.009225170448     1.007825032230

  Basis Set: AUG-CC-PVTZ
    Blend: AUG-CC-PVTZ
  Basis Set: (AUG-CC-PVTZ AUX)
    Blend: AUG-CC-PVTZ-JKFIT
	 Reference Energy          =   -1028.5102207956233542 [Eh]
	 Singles Energy            =      -0.0000000000000000 [Eh]
	 Same-Spin Energy          =      -1.0574588196009960 [Eh]
	 Opposite-Spin Energy      =      -2.9543248688177108 [Eh]
	 Correlation Energy        =      -4.0117836884187064 [Eh]
	 Total Energy              =   -1032.5220044840420996 [Eh]

	 ================> DF-SCS-MP2 Energies <==================
	-----------------------------------------------------------
	 SCS Same-Spin Scale       =       0.3333333333333333 [-]
	 SCS Opposite-Spin Scale   =       1.2000000000000000 [-]
	 SCS Same-Spin Energy      =      -0.3524862732003320 [Eh]
	 SCS Opposite-Spin Energy  =      -3.5451898425812529 [Eh]
	 SCS Correlation Energy    =      -3.8976761157815849 [Eh]
	 SCS Total Energy          =   -1032.4078969114050324 [Eh]
	-----------------------------------------------------------

  Dipole Moment: [D]
     X:     9.0596      Y:    -0.1140      Z:    -0.3857     Total:     9.0685

*** Psi4 exiting successfully. Buy a developer a beer!
