                               Psi4 1.4a3.dev225

  ==> Input File <==

--------------------------------------------------------------------------
#psi4
#
memory 32 gb

molecule  {
-1 1
  O       -2.9714190     0.8843310    -0.7445430
  O       -2.9714760    -0.8842960     0.7444570
  O       -0.5719940    -3.2988010     0.7833720
  O       -0.5719130     3.2988430    -0.7832930
  O       -1.5583320    -2.6751640    -1.0959160
  O       -1.5583470     2.6751420     1.0959240
  O        3.9378030    -1.0985810    -0.0520130
  O        3.9378150     1.0985380     0.0519920
  N       -0.8441900    -2.4722020    -0.1047670
  N       -0.8441610     2.4722110     0.1047990
  N        3.3563290    -0.0000180    -0.0000080
  C       -0.9300790     0.0000040     0.0000050
  C       -0.1698559    -1.2682636    -0.0221605
  C       -0.1699550     1.1712130     0.0218080
  C        1.8913620    -0.0000110     0.0000000
  C        1.2196430    -1.2181880    -0.0070480
  C        1.2196550     1.2181740     0.0070530
  C       -2.4885490     0.0000140    -0.0000270
  H        1.7571850    -2.1596840    -0.0048420
  H        1.7572080     2.1596640     0.0048470
units angstrom
no_reorient  #important for SAPT in psi4, default
symmetry c1  #important for SAPT in psi4, default
}

set PROPERTIES_ORIGIN ["COM"]
properties('MP2/aug-cc-pvtz', properties = ['dipole'])
--------------------------------------------------------------------------

    Molecular point group: c1
  Charge       = -1
  Multiplicity = 1
  Basis Set: AUG-CC-PVTZ
    Blend: AUG-CC-PVTZ
  Basis Set: (AUG-CC-PVTZ AUX)
    Blend: AUG-CC-PVTZ-JKFIT

    Orbital Energies [Eh]
    ---------------------

    Doubly Occupied:

       1A    -20.540630     2A    -20.540241     3A    -20.519007
       4A    -20.516253     5A    -20.515801     6A    -20.513437
       7A    -20.370117     8A    -20.369872     9A    -15.793238
      10A    -15.765698    11A    -15.763101    12A    -11.247015
      13A    -11.241788    14A    -11.238617    15A    -11.228556
      16A    -11.226475    17A    -11.222498    18A    -11.221875
      19A     -1.524180    20A     -1.507670    21A     -1.496813
      22A     -1.322030    23A     -1.301793    24A     -1.296570
      25A     -1.246396    26A     -1.153274    27A     -1.144625
      28A     -1.056781    29A     -1.045154    30A     -0.918892
      31A     -0.902420    32A     -0.887873    33A     -0.761434
      34A     -0.739636    35A     -0.713384    36A     -0.675015
      37A     -0.672502    38A     -0.665093    39A     -0.653759
      40A     -0.646421    41A     -0.637688    42A     -0.634005
      43A     -0.629086    44A     -0.607526    45A     -0.560465
      46A     -0.551271    47A     -0.515887    48A     -0.499865
      49A     -0.484559    50A     -0.463990    51A     -0.439966
      52A     -0.433215    53A     -0.427376    54A     -0.419700
      55A     -0.413674    56A     -0.404732    57A     -0.397764
      58A     -0.390471    59A     -0.359862    60A     -0.354656
      61A     -0.315012    62A     -0.306309    63A     -0.281447
      64A     -0.275910    65A     -0.264237

  @DF-RHF Final Energy: -1028.51765005198058

   => Energetics <=

    Nuclear Repulsion Energy =           1322.9671869221272118
    One-Electron Energy =               -4056.5004636445405595
    Two-Electron Energy =                1705.0156266704329937
    Total Energy =                      -1028.5176500519805813
  Basis Set: (AUG-CC-PVTZ AUX)
    Blend: AUG-CC-PVTZ-RI
    Molecular point group: c1

    Geometry (in Angstrom), charge = -1, multiplicity = 1:

       Center              X                  Y                   Z               Mass
    ------------   -----------------  -----------------  -----------------  -----------------
         O           -2.957868928279     0.888880677266    -0.744525761492    15.994914619570
         O           -2.957925928279    -0.879746322734     0.744474238508    15.994914619570
         O           -0.558443928279    -3.294251322734     0.783389238508    15.994914619570
         O           -0.558362928279     3.303392677266    -0.783275761492    15.994914619570
         O           -1.544781928279    -2.670614322734    -1.095898761492    15.994914619570
         O           -1.544796928279     2.679691677266     1.095941238508    15.994914619570
         O            3.951353071721    -1.094031322734    -0.051995761492    15.994914619570
         O            3.951365071721     1.103087677266     0.052009238508    15.994914619570
         N           -0.830639928279    -2.467652322734    -0.104749761492    14.003074004430
         N           -0.830610928279     2.476760677266     0.104816238508    14.003074004430
         N            3.369879071721     0.004531677266     0.000009238508    14.003074004430
         C           -0.916528928279     0.004553677266     0.000022238508    12.000000000000
         C           -0.156305828279    -1.263713922734    -0.022143261492    12.000000000000
         C           -0.156404928279     1.175762677266     0.021825238508    12.000000000000
         C            1.904912071721     0.004538677266     0.000017238508    12.000000000000
         C            1.233193071721    -1.213638322734    -0.007030761492    12.000000000000
         C            1.233205071721     1.222723677266     0.007070238508    12.000000000000
         C           -2.474998928279     0.004563677266    -0.000009761492    12.000000000000
         H            1.770735071721    -2.155134322734    -0.004824761492     1.007825032230
         H            1.770758071721     2.164213677266     0.004864238508     1.007825032230

  Basis Set: AUG-CC-PVTZ
    Blend: AUG-CC-PVTZ
  Basis Set: (AUG-CC-PVTZ AUX)
    Blend: AUG-CC-PVTZ-JKFIT
	 Reference Energy          =   -1028.5176500519805813 [Eh]
	 Singles Energy            =      -0.0000000000000000 [Eh]
	 Same-Spin Energy          =      -1.0572140001249457 [Eh]
	 Opposite-Spin Energy      =      -2.9535018897207941 [Eh]
	 Correlation Energy        =      -4.0107158898457396 [Eh]
	 Total Energy              =   -1032.5283659418262232 [Eh]

	 ================> DF-SCS-MP2 Energies <==================
	-----------------------------------------------------------
	 SCS Same-Spin Scale       =       0.3333333333333333 [-]
	 SCS Opposite-Spin Scale   =       1.2000000000000000 [-]
	 SCS Same-Spin Energy      =      -0.3524046667083152 [Eh]
	 SCS Opposite-Spin Energy  =      -3.5442022676649527 [Eh]
	 SCS Correlation Energy    =      -3.8966069343732679 [Eh]
	 SCS Total Energy          =   -1032.4142569863538483 [Eh]
	-----------------------------------------------------------

  Dipole Moment: [D]
     X:     8.7456      Y:    -0.1331      Z:    -0.0190     Total:     8.7466

*** Psi4 exiting successfully. Buy a developer a beer!
