                               Psi4 1.4a3.dev225

  ==> Input File <==

--------------------------------------------------------------------------
#psi4
#
memory 32 gb

molecule  {
-1 1
  O       -2.9714190     0.8843310    -0.7445430
  O       -2.9714760    -0.8842960     0.7444570
  O       -0.5719940    -3.2988010     0.7833720
  O       -0.5719130     3.2988430    -0.7832930
  O       -1.5583320    -2.6751640    -1.0959160
  O       -1.5583470     2.6751420     1.0959240
  O        3.9378030    -1.0985810    -0.0520130
  O        3.9378150     1.0985380     0.0519920
  N       -0.8441900    -2.4722020    -0.1047670
  N       -0.8441610     2.4722110     0.1047990
  N        3.3563290    -0.0000180    -0.0000080
  C       -0.9300790     0.0000040     0.0000050
  C       -0.1699680    -1.1712100    -0.0217940
  C       -0.1699550     1.1712130     0.0218080
  C        1.8913620    -0.0000110     0.0000000
  C        1.2196430    -1.2181880    -0.0070480
  C        1.2196550     1.2181740     0.0070530
  C       -2.4500008     0.0706013    -0.0594532
  H        1.7571850    -2.1596840    -0.0048420
  H        1.7572080     2.1596640     0.0048470
units angstrom
no_reorient  #important for SAPT in psi4, default
symmetry c1  #important for SAPT in psi4, default
}

set PROPERTIES_ORIGIN ["COM"]
properties('MP2/aug-cc-pvtz', properties = ['dipole'])
--------------------------------------------------------------------------

    Molecular point group: c1
  Charge       = -1
  Multiplicity = 1
  Basis Set: AUG-CC-PVTZ
    Blend: AUG-CC-PVTZ
  Basis Set: (AUG-CC-PVTZ AUX)
    Blend: AUG-CC-PVTZ-JKFIT

    Orbital Energies [Eh]
    ---------------------

    Doubly Occupied:

       1A    -20.543790     2A    -20.543666     3A    -20.520886
       4A    -20.517831     5A    -20.513650     6A    -20.510916
       7A    -20.388673     8A    -20.346021     9A    -15.795590
      10A    -15.767091    11A    -15.761131    12A    -11.250997
      13A    -11.243978    14A    -11.243245    15A    -11.225504
      16A    -11.225043    17A    -11.224851    18A    -11.215399
      19A     -1.527131    20A     -1.501578    21A     -1.494114
      22A     -1.324994    23A     -1.301257    24A     -1.293835
      25A     -1.272217    26A     -1.153864    27A     -1.110929
      28A     -1.051825    29A     -1.044092    30A     -0.914887
      31A     -0.900627    32A     -0.894302    33A     -0.763947
      34A     -0.743457    35A     -0.713836    36A     -0.685356
      37A     -0.674164    38A     -0.662236    39A     -0.653165
      40A     -0.648943    41A     -0.636809    42A     -0.632356
      43A     -0.626769    44A     -0.605828    45A     -0.563868
      46A     -0.560499    47A     -0.523658    48A     -0.514932
      49A     -0.491261    50A     -0.457639    51A     -0.442598
      52A     -0.436262    53A     -0.430421    54A     -0.418319
      55A     -0.409544    56A     -0.404076    57A     -0.395051
      58A     -0.392900    59A     -0.360039    60A     -0.353166
      61A     -0.314441    62A     -0.309199    63A     -0.289938
      64A     -0.262542    65A     -0.249271

  @DF-RHF Final Energy: -1028.51198147077935

   => Energetics <=

    Nuclear Repulsion Energy =           1324.0856034667917811
    One-Electron Energy =               -4058.6943577563861254
    Two-Electron Energy =                1706.0967728188149977
    Total Energy =                      -1028.5119814707793466
  Basis Set: (AUG-CC-PVTZ AUX)
    Blend: AUG-CC-PVTZ-RI
    Molecular point group: c1

    Geometry (in Angstrom), charge = -1, multiplicity = 1:

       Center              X                  Y                   Z               Mass
    ------------   -----------------  -----------------  -----------------  -----------------
         O           -2.959670731749     0.881022024715    -0.741757167062    15.994914619570
         O           -2.959727731749    -0.887604975285     0.747242832938    15.994914619570
         O           -0.560245731749    -3.302109975285     0.786157832938    15.994914619570
         O           -0.560164731749     3.295534024715    -0.780507167062    15.994914619570
         O           -1.546583731749    -2.678472975285    -1.093130167062    15.994914619570
         O           -1.546598731749     2.671833024715     1.098709832938    15.994914619570
         O            3.949551268251    -1.101889975285    -0.049227167062    15.994914619570
         O            3.949563268251     1.095229024715     0.054777832938    15.994914619570
         N           -0.832441731749    -2.475510975285    -0.101981167062    14.003074004430
         N           -0.832412731749     2.468902024715     0.107584832938    14.003074004430
         N            3.368077268251    -0.003326975285     0.002777832938    14.003074004430
         C           -0.918330731749    -0.003304975285     0.002790832938    12.000000000000
         C           -0.158219731749    -1.174518975285    -0.019008167062    12.000000000000
         C           -0.158206731749     1.167904024715     0.024593832938    12.000000000000
         C            1.903110268251    -0.003319975285     0.002785832938    12.000000000000
         C            1.231391268251    -1.221496975285    -0.004262167062    12.000000000000
         C            1.231403268251     1.214865024715     0.009838832938    12.000000000000
         C           -2.438252531749     0.067292324715    -0.056667367062    12.000000000000
         H            1.768933268251    -2.162992975285    -0.002056167062     1.007825032230
         H            1.768956268251     2.156355024715     0.007632832938     1.007825032230

  Basis Set: AUG-CC-PVTZ
    Blend: AUG-CC-PVTZ
  Basis Set: (AUG-CC-PVTZ AUX)
    Blend: AUG-CC-PVTZ-JKFIT
	 Reference Energy          =   -1028.5119814707793466 [Eh]
	 Singles Energy            =      -0.0000000000000000 [Eh]
	 Same-Spin Energy          =      -1.0577848731899704 [Eh]
	 Opposite-Spin Energy      =      -2.9551985276308761 [Eh]
	 Correlation Energy        =      -4.0129834008208469 [Eh]
	 Total Energy              =   -1032.5249648716001047 [Eh]

	 ================> DF-SCS-MP2 Energies <==================
	-----------------------------------------------------------
	 SCS Same-Spin Scale       =       0.3333333333333333 [-]
	 SCS Opposite-Spin Scale   =       1.2000000000000000 [-]
	 SCS Same-Spin Energy      =      -0.3525949577299901 [Eh]
	 SCS Opposite-Spin Energy  =      -3.5462382331570512 [Eh]
	 SCS Correlation Energy    =      -3.8988331908870415 [Eh]
	 SCS Total Energy          =   -1032.4108146616663362 [Eh]
	-----------------------------------------------------------

  Dipole Moment: [D]
     X:     9.0448      Y:     0.5653      Z:    -0.5440     Total:     9.0788

*** Psi4 exiting successfully. Buy a developer a beer!
