                               Psi4 1.4a3.dev225

  ==> Input File <==

--------------------------------------------------------------------------
#psi4
#
memory 32 gb

molecule  {
-1 1
  O       -2.9714190     0.8843310    -0.7445430
  O       -2.9714760    -0.8842960     0.7444570
  O       -0.5719940    -3.2988010     0.7833720
  O       -0.5719130     3.2988430    -0.7832930
  O       -1.5583320    -2.6751640    -1.0959160
  O       -1.5583470     2.6751420     1.0959240
  O        3.9378030    -1.0985810    -0.0520130
  O        3.9378150     1.0985380     0.0519920
  N       -0.8441900    -2.4722020    -0.1047670
  N       -0.8441610     2.4722110     0.1047990
  N        3.3563290    -0.0000180    -0.0000080
  C       -0.9300790     0.0000040     0.0000050
  C       -0.1699680    -1.1712100    -0.0217940
  C       -0.1699550     1.1712130     0.0218080
  C        1.8913620    -0.0000110     0.0000000
  C        1.1713568    -1.3057562    -0.0075546
  C        1.2196550     1.2181740     0.0070530
  C       -2.4885490     0.0000140    -0.0000270
  H        1.7571850    -2.1596840    -0.0048420
  H        1.7572080     2.1596640     0.0048470
units angstrom
no_reorient  #important for SAPT in psi4, default
symmetry c1  #important for SAPT in psi4, default
}

set PROPERTIES_ORIGIN ["COM"]
properties('MP2/aug-cc-pvtz', properties = ['dipole'])
--------------------------------------------------------------------------

    Molecular point group: c1
  Charge       = -1
  Multiplicity = 1
  Basis Set: AUG-CC-PVTZ
    Blend: AUG-CC-PVTZ
  Basis Set: (AUG-CC-PVTZ AUX)
    Blend: AUG-CC-PVTZ-JKFIT

    Orbital Energies [Eh]
    ---------------------

    Doubly Occupied:

       1A    -20.540327     2A    -20.539258     3A    -20.516861
       4A    -20.515618     5A    -20.513968     6A    -20.512906
       7A    -20.371622     8A    -20.371169     9A    -15.792604
      10A    -15.763308    11A    -15.760940    12A    -11.254197
      13A    -11.240381    14A    -11.240348    15A    -11.231188
      16A    -11.225814    17A    -11.225478    18A    -11.214521
      19A     -1.523343    20A     -1.497397    21A     -1.496831
      22A     -1.321348    23A     -1.297116    24A     -1.296339
      25A     -1.248049    26A     -1.154662    27A     -1.145886
      28A     -1.051508    29A     -1.041247    30A     -0.909949
      31A     -0.900532    32A     -0.889617    33A     -0.759327
      34A     -0.741652    35A     -0.710552    36A     -0.680597
      37A     -0.671195    38A     -0.655249    39A     -0.652690
      40A     -0.644935    41A     -0.637325    42A     -0.630119
      43A     -0.628257    44A     -0.606344    45A     -0.567880
      46A     -0.560490    47A     -0.517400    48A     -0.507348
      49A     -0.488303    50A     -0.466279    51A     -0.438789
      52A     -0.432597    53A     -0.427543    54A     -0.417631
      55A     -0.406718    56A     -0.402787    57A     -0.393182
      58A     -0.390219    59A     -0.358584    60A     -0.353999
      61A     -0.318498    62A     -0.310512    63A     -0.284502
      64A     -0.277388    65A     -0.265363

  @DF-RHF Final Energy: -1028.51669781124360

   => Energetics <=

    Nuclear Repulsion Energy =           1322.7751631586447729
    One-Electron Energy =               -4056.1665457705166773
    Two-Electron Energy =                1704.8746848006283017
    Total Energy =                      -1028.5166978112436027
  Basis Set: (AUG-CC-PVTZ AUX)
    Blend: AUG-CC-PVTZ-RI
    Molecular point group: c1

    Geometry (in Angstrom), charge = -1, multiplicity = 1:

       Center              X                  Y                   Z               Mass
    ------------   -----------------  -----------------  -----------------  -----------------
         O           -2.955600117841     0.888436021678    -0.744519193899    15.994914619570
         O           -2.955657117841    -0.880190978322     0.744480806101    15.994914619570
         O           -0.556175117841    -3.294695978322     0.783395806101    15.994914619570
         O           -0.556094117841     3.302948021678    -0.783269193899    15.994914619570
         O           -1.542513117841    -2.671058978322    -1.095892193899    15.994914619570
         O           -1.542528117841     2.679247021678     1.095947806101    15.994914619570
         O            3.953621882159    -1.094475978322    -0.051989193899    15.994914619570
         O            3.953633882159     1.102643021678     0.052015806101    15.994914619570
         N           -0.828371117841    -2.468096978322    -0.104743193899    14.003074004430
         N           -0.828342117841     2.476316021678     0.104822806101    14.003074004430
         N            3.372147882159     0.004087021678     0.000015806101    14.003074004430
         C           -0.914260117841     0.004109021678     0.000028806101    12.000000000000
         C           -0.154149117841    -1.167104978322    -0.021770193899    12.000000000000
         C           -0.154136117841     1.175318021678     0.021831806101    12.000000000000
         C            1.907180882159     0.004094021678     0.000023806101    12.000000000000
         C            1.187175682159    -1.301651178322    -0.007530793899    12.000000000000
         C            1.235473882159     1.222279021678     0.007076806101    12.000000000000
         C           -2.472730117841     0.004119021678    -0.000003193899    12.000000000000
         H            1.773003882159    -2.155578978322    -0.004818193899     1.007825032230
         H            1.773026882159     2.163769021678     0.004870806101     1.007825032230

  Basis Set: AUG-CC-PVTZ
    Blend: AUG-CC-PVTZ
  Basis Set: (AUG-CC-PVTZ AUX)
    Blend: AUG-CC-PVTZ-JKFIT
	 Reference Energy          =   -1028.5166978112436027 [Eh]
	 Singles Energy            =      -0.0000000000000000 [Eh]
	 Same-Spin Energy          =      -1.0567259907978839 [Eh]
	 Opposite-Spin Energy      =      -2.9534601271310841 [Eh]
	 Correlation Energy        =      -4.0101861179289680 [Eh]
	 Total Energy              =   -1032.5268839291725271 [Eh]

	 ================> DF-SCS-MP2 Energies <==================
	-----------------------------------------------------------
	 SCS Same-Spin Scale       =       0.3333333333333333 [-]
	 SCS Opposite-Spin Scale   =       1.2000000000000000 [-]
	 SCS Same-Spin Energy      =      -0.3522419969326279 [Eh]
	 SCS Opposite-Spin Energy  =      -3.5441521525573010 [Eh]
	 SCS Correlation Energy    =      -3.8963941494899288 [Eh]
	 SCS Total Energy          =   -1032.4130919607334818 [Eh]
	-----------------------------------------------------------

  Dipole Moment: [D]
     X:     8.7360      Y:     0.0594      Z:     0.0125     Total:     8.7362

*** Psi4 exiting successfully. Buy a developer a beer!
