                               Psi4 1.4a3.dev225

  ==> Input File <==

--------------------------------------------------------------------------
#psi4
#
memory 32 gb

molecule  {
-1 1
  O       -2.9714190     0.8843310    -0.7445430
  O       -2.9714760    -0.8842960     0.7444570
  O       -0.5719940    -3.2988010     0.7833720
  O       -0.5719130     3.2988430    -0.7832930
  O       -1.5583320    -2.6751640    -1.0959160
  O       -1.5583470     2.6751420     1.0959240
  O        3.9378030    -1.0985810    -0.0520130
  O        3.9378150     1.0985380     0.0519920
  N       -0.8441900    -2.4722020    -0.1047670
  N       -0.8441610     2.4722110     0.1047990
  N        3.3563290    -0.0000180    -0.0000080
  C       -0.9704938     0.0272259     0.0011797
  C       -0.1699680    -1.1712100    -0.0217940
  C       -0.1699550     1.1712130     0.0218080
  C        1.8913620    -0.0000110     0.0000000
  C        1.2196430    -1.2181880    -0.0070480
  C        1.2196550     1.2181740     0.0070530
  C       -2.4885490     0.0000140    -0.0000270
  H        1.7571850    -2.1596840    -0.0048420
  H        1.7572080     2.1596640     0.0048470
units angstrom
no_reorient  #important for SAPT in psi4, default
symmetry c1  #important for SAPT in psi4, default
}

set PROPERTIES_ORIGIN ["COM"]
properties('MP2/aug-cc-pvtz', properties = ['dipole'])
--------------------------------------------------------------------------

    Molecular point group: c1
  Charge       = -1
  Multiplicity = 1
  Basis Set: AUG-CC-PVTZ
    Blend: AUG-CC-PVTZ
  Basis Set: (AUG-CC-PVTZ AUX)
    Blend: AUG-CC-PVTZ-JKFIT

    Orbital Energies [Eh]
    ---------------------

    Doubly Occupied:

       1A    -20.542423     2A    -20.542057     3A    -20.516002
       4A    -20.515869     5A    -20.513194     6A    -20.513157
       7A    -20.370237     8A    -20.369627     9A    -15.794128
      10A    -15.762719    11A    -15.761875    12A    -11.249039
      13A    -11.245420    14A    -11.241384    15A    -11.226625
      16A    -11.224983    17A    -11.222705    18A    -11.218580
      19A     -1.525690    20A     -1.496758    21A     -1.496445
      22A     -1.323579    23A     -1.296417    24A     -1.296255
      25A     -1.248725    26A     -1.154068    27A     -1.147323
      28A     -1.049171    29A     -1.041057    30A     -0.913271
      31A     -0.895803    32A     -0.892522    33A     -0.762477
      34A     -0.738997    35A     -0.712387    36A     -0.684585
      37A     -0.672300    38A     -0.660441    39A     -0.648041
      40A     -0.647166    41A     -0.634252    42A     -0.629409
      43A     -0.627893    44A     -0.604972    45A     -0.561915
      46A     -0.557240    47A     -0.521213    48A     -0.508533
      49A     -0.488968    50A     -0.465287    51A     -0.441133
      52A     -0.434429    53A     -0.428352    54A     -0.416569
      55A     -0.407335    56A     -0.403618    57A     -0.392574
      58A     -0.391694    59A     -0.358051    60A     -0.353644
      61A     -0.317303    62A     -0.307383    63A     -0.285057
      64A     -0.277779    65A     -0.264055

  @DF-RHF Final Energy: -1028.52481966548839

   => Energetics <=

    Nuclear Repulsion Energy =           1323.2862814724783220
    One-Electron Energy =               -4057.1978856022296895
    Two-Electron Energy =                1705.3867844642627460
    Total Energy =                      -1028.5248196654883941
  Basis Set: (AUG-CC-PVTZ AUX)
    Blend: AUG-CC-PVTZ-RI
    Molecular point group: c1

    Geometry (in Angstrom), charge = -1, multiplicity = 1:

       Center              X                  Y                   Z               Mass
    ------------   -----------------  -----------------  -----------------  -----------------
         O           -2.955969112506     0.883054903394    -0.744598009705    15.994914619570
         O           -2.956026112506    -0.885572096606     0.744401990295    15.994914619570
         O           -0.556544112506    -3.300077096606     0.783316990295    15.994914619570
         O           -0.556463112506     3.297566903394    -0.783348009705    15.994914619570
         O           -1.542882112506    -2.676440096606    -1.095971009705    15.994914619570
         O           -1.542897112506     2.673865903394     1.095868990295    15.994914619570
         O            3.953252887494    -1.099857096606    -0.052068009705    15.994914619570
         O            3.953264887494     1.097261903394     0.051936990295    15.994914619570
         N           -0.828740112506    -2.473478096606    -0.104822009705    14.003074004430
         N           -0.828711112506     2.470934903394     0.104743990295    14.003074004430
         N            3.371778887494    -0.001294096606    -0.000063009705    14.003074004430
         C           -0.955043912506     0.025949803394     0.001124690295    12.000000000000
         C           -0.154518112506    -1.172486096606    -0.021849009705    12.000000000000
         C           -0.154505112506     1.169936903394     0.021752990295    12.000000000000
         C            1.906811887494    -0.001287096606    -0.000055009705    12.000000000000
         C            1.235092887494    -1.219464096606    -0.007103009705    12.000000000000
         C            1.235104887494     1.216897903394     0.006997990295    12.000000000000
         C           -2.473099112506    -0.001262096606    -0.000082009705    12.000000000000
         H            1.772634887494    -2.160960096606    -0.004897009705     1.007825032230
         H            1.772657887494     2.158387903394     0.004791990295     1.007825032230

  Basis Set: AUG-CC-PVTZ
    Blend: AUG-CC-PVTZ
  Basis Set: (AUG-CC-PVTZ AUX)
    Blend: AUG-CC-PVTZ-JKFIT
	 Reference Energy          =   -1028.5248196654883941 [Eh]
	 Singles Energy            =      -0.0000000000000000 [Eh]
	 Same-Spin Energy          =      -1.0573226281089436 [Eh]
	 Opposite-Spin Energy      =      -2.9539091704377616 [Eh]
	 Correlation Energy        =      -4.0112317985467048 [Eh]
	 Total Energy              =   -1032.5360514640351539 [Eh]

	 ================> DF-SCS-MP2 Energies <==================
	-----------------------------------------------------------
	 SCS Same-Spin Scale       =       0.3333333333333333 [-]
	 SCS Opposite-Spin Scale   =       1.2000000000000000 [-]
	 SCS Same-Spin Energy      =      -0.3524408760363145 [Eh]
	 SCS Opposite-Spin Energy  =      -3.5446910045253137 [Eh]
	 SCS Correlation Energy    =      -3.8971318805616284 [Eh]
	 SCS Total Energy          =   -1032.4219515460499679 [Eh]
	-----------------------------------------------------------

  Dipole Moment: [D]
     X:     8.8069      Y:    -0.0083      Z:     0.0047     Total:     8.8069

*** Psi4 exiting successfully. Buy a developer a beer!
