                               Psi4 1.4a3.dev225

  ==> Input File <==

--------------------------------------------------------------------------
#psi4
#
memory 32 gb

molecule  {
-1 1
  O       -2.9714190     0.8843310    -0.7445430
  O       -2.9714760    -0.8842960     0.7444570
  O       -0.5719940    -3.2988010     0.7833720
  O       -0.5719130     3.2988430    -0.7832930
  O       -1.5583320    -2.6751640    -1.0959160
  O       -1.5583470     2.6751420     1.0959240
  O        3.9378030    -1.0985810    -0.0520130
  O        3.9378150     1.0985380     0.0519920
  N       -0.8441900    -2.4722020    -0.1047670
  N       -0.8441610     2.4722110     0.1047990
  N        3.3563290    -0.0000180    -0.0000080
  C       -0.9300790     0.0000040     0.0000050
  C       -0.1590814    -1.1879845    -0.0221062
  C       -0.1699550     1.1712130     0.0218080
  C        1.8913620    -0.0000110     0.0000000
  C        1.2196430    -1.2181880    -0.0070480
  C        1.2196550     1.2181740     0.0070530
  C       -2.4885490     0.0000140    -0.0000270
  H        1.7571850    -2.1596840    -0.0048420
  H        1.7572080     2.1596640     0.0048470
units angstrom
no_reorient  #important for SAPT in psi4, default
symmetry c1  #important for SAPT in psi4, default
}

set PROPERTIES_ORIGIN ["COM"]
properties('MP2/aug-cc-pvtz', properties = ['dipole'])
--------------------------------------------------------------------------

    Molecular point group: c1
  Charge       = -1
  Multiplicity = 1
  Basis Set: AUG-CC-PVTZ
    Blend: AUG-CC-PVTZ
  Basis Set: (AUG-CC-PVTZ AUX)
    Blend: AUG-CC-PVTZ-JKFIT

    Orbital Energies [Eh]
    ---------------------

    Doubly Occupied:

       1A    -20.541764     2A    -20.541541     3A    -20.516865
       4A    -20.516332     5A    -20.513882     6A    -20.513510
       7A    -20.370084     8A    -20.370028     9A    -15.793746
      10A    -15.763536    11A    -15.762922    12A    -11.248150
      13A    -11.240819    14A    -11.240117    15A    -11.229376
      16A    -11.224078    17A    -11.221518    18A    -11.213956
      19A     -1.525172    20A     -1.498194    21A     -1.496864
      22A     -1.323055    23A     -1.297362    24A     -1.296620
      25A     -1.246632    26A     -1.153343    27A     -1.149182
      28A     -1.048465    29A     -1.044484    30A     -0.912587
      31A     -0.896167    32A     -0.893434    33A     -0.761261
      34A     -0.740856    35A     -0.712776    36A     -0.675227
      37A     -0.672712    38A     -0.661226    39A     -0.651538
      40A     -0.647105    41A     -0.635342    42A     -0.630204
      43A     -0.628545    44A     -0.604851    45A     -0.561554
      46A     -0.557515    47A     -0.520358    48A     -0.505121
      49A     -0.488582    50A     -0.465733    51A     -0.440762
      52A     -0.433677    53A     -0.427957    54A     -0.417282
      55A     -0.408338    56A     -0.404075    57A     -0.394944
      58A     -0.391261    59A     -0.358419    60A     -0.353963
      61A     -0.316334    62A     -0.308830    63A     -0.282503
      64A     -0.279050    65A     -0.264224

  @DF-RHF Final Energy: -1028.52829021248613

   => Energetics <=

    Nuclear Repulsion Energy =           1323.3648159194619893
    One-Electron Energy =               -4057.3743921222603603
    Two-Electron Energy =                1705.4812859903124718
    Total Energy =                      -1028.5282902124861266
  Basis Set: (AUG-CC-PVTZ AUX)
    Blend: AUG-CC-PVTZ-RI
    Molecular point group: c1

    Geometry (in Angstrom), charge = -1, multiplicity = 1:

       Center              X                  Y                   Z               Mass
    ------------   -----------------  -----------------  -----------------  -----------------
         O           -2.958374014162     0.885117362025    -0.744528306962    15.994914619570
         O           -2.958431014162    -0.883509637975     0.744471693038    15.994914619570
         O           -0.558949014162    -3.298014637975     0.783386693038    15.994914619570
         O           -0.558868014162     3.299629362025    -0.783278306962    15.994914619570
         O           -1.545287014162    -2.674377637975    -1.095901306962    15.994914619570
         O           -1.545302014162     2.675928362025     1.095938693038    15.994914619570
         O            3.950847985838    -1.097794637975    -0.051998306962    15.994914619570
         O            3.950859985838     1.099324362025     0.052006693038    15.994914619570
         N           -0.831145014162    -2.471415637975    -0.104752306962    14.003074004430
         N           -0.831116014162     2.472997362025     0.104813693038    14.003074004430
         N            3.369373985838     0.000768362025     0.000006693038    14.003074004430
         C           -0.917034014162     0.000790362025     0.000019693038    12.000000000000
         C           -0.146036414162    -1.187198137975    -0.022091506962    12.000000000000
         C           -0.156910014162     1.171999362025     0.021822693038    12.000000000000
         C            1.904406985838     0.000775362025     0.000014693038    12.000000000000
         C            1.232687985838    -1.217401637975    -0.007033306962    12.000000000000
         C            1.232699985838     1.218960362025     0.007067693038    12.000000000000
         C           -2.475504014162     0.000800362025    -0.000012306962    12.000000000000
         H            1.770229985838    -2.158897637975    -0.004827306962     1.007825032230
         H            1.770252985838     2.160450362025     0.004861693038     1.007825032230

  Basis Set: AUG-CC-PVTZ
    Blend: AUG-CC-PVTZ
  Basis Set: (AUG-CC-PVTZ AUX)
    Blend: AUG-CC-PVTZ-JKFIT
	 Reference Energy          =   -1028.5282902124861266 [Eh]
	 Singles Energy            =      -0.0000000000000000 [Eh]
	 Same-Spin Energy          =      -1.0568499637956699 [Eh]
	 Opposite-Spin Energy      =      -2.9528932111203430 [Eh]
	 Correlation Energy        =      -4.0097431749160126 [Eh]
	 Total Energy              =   -1032.5380333874020380 [Eh]

	 ================> DF-SCS-MP2 Energies <==================
	-----------------------------------------------------------
	 SCS Same-Spin Scale       =       0.3333333333333333 [-]
	 SCS Opposite-Spin Scale   =       1.2000000000000000 [-]
	 SCS Same-Spin Energy      =      -0.3522833212652233 [Eh]
	 SCS Opposite-Spin Energy  =      -3.5434718533444114 [Eh]
	 SCS Correlation Energy    =      -3.8957551746096346 [Eh]
	 SCS Total Energy          =   -1032.4240453870957026 [Eh]
	-----------------------------------------------------------

  Dipole Moment: [D]
     X:     8.8039      Y:    -0.0283      Z:    -0.0059     Total:     8.8040

*** Psi4 exiting successfully. Buy a developer a beer!
