                               Psi4 1.4a3.dev225

  ==> Input File <==

--------------------------------------------------------------------------
#psi4
#
memory 32 gb

molecule  {
-1 1
  O       -2.9714190     0.8843310    -0.7445430
  O       -2.9714760    -0.8842960     0.7444570
  O       -0.5719940    -3.2988010     0.7833720
  O       -0.5719130     3.2988430    -0.7832930
  O       -1.5583320    -2.6751640    -1.0959160
  O       -1.5583470     2.6751420     1.0959240
  O        3.9378030    -1.0985810    -0.0520130
  O        3.9378150     1.0985380     0.0519920
  N       -0.8441900    -2.4722020    -0.1047670
  N       -0.8441610     2.4722110     0.1047990
  N        3.3563290    -0.0000180    -0.0000080
  C       -0.9300790     0.0000040     0.0000050
  C       -0.1699680    -1.1712100    -0.0217940
  C       -0.1699550     1.1712130     0.0218080
  C        1.8913620    -0.0000110     0.0000000
  C        1.2196430    -1.2181880    -0.0070480
  C        1.2196550     1.2181740     0.0070530
  C       -2.5656361     0.1411896    -0.1188842
  H        1.7571850    -2.1596840    -0.0048420
  H        1.7572080     2.1596640     0.0048470
units angstrom
no_reorient  #important for SAPT in psi4, default
symmetry c1  #important for SAPT in psi4, default
}

set PROPERTIES_ORIGIN ["COM"]
properties('MP2/aug-cc-pvtz', properties = ['dipole'])
--------------------------------------------------------------------------

    Molecular point group: c1
  Charge       = -1
  Multiplicity = 1
  Basis Set: AUG-CC-PVTZ
    Blend: AUG-CC-PVTZ
  Basis Set: (AUG-CC-PVTZ AUX)
    Blend: AUG-CC-PVTZ-JKFIT

    Orbital Energies [Eh]
    ---------------------

    Doubly Occupied:

       1A    -20.536943     2A    -20.536710     3A    -20.521180
       4A    -20.518253     5A    -20.506213     6A    -20.503928
       7A    -20.423138     8A    -20.336148     9A    -15.788890
      10A    -15.765541    11A    -15.753178    12A    -11.240986
      13A    -11.232034    14A    -11.231544    15A    -11.226790
      16A    -11.218029    17A    -11.216363    18A    -11.196083
      19A     -1.520434    20A     -1.501977    21A     -1.486554
      22A     -1.390095    23A     -1.318397    24A     -1.301636
      25A     -1.286557    26A     -1.144000    27A     -1.091600
      28A     -1.042165    29A     -1.034759    30A     -0.906076
      31A     -0.887534    32A     -0.885142    33A     -0.753672
      34A     -0.737577    35A     -0.708042    36A     -0.670153
      37A     -0.660624    38A     -0.656023    39A     -0.644955
      40A     -0.642452    41A     -0.635138    42A     -0.628061
      43A     -0.620292    44A     -0.607633    45A     -0.580852
      46A     -0.555271    47A     -0.541150    48A     -0.517389
      49A     -0.507396    50A     -0.487974    51A     -0.467685
      52A     -0.436244    53A     -0.426650    54A     -0.416751
      55A     -0.408434    56A     -0.398919    57A     -0.390571
      58A     -0.387130    59A     -0.362152    60A     -0.348359
      61A     -0.308845    62A     -0.301317    63A     -0.287912
      64A     -0.254431    65A     -0.239120

  @DF-RHF Final Energy: -1028.45499702164170

   => Energetics <=

    Nuclear Repulsion Energy =           1323.2509112474881476
    One-Electron Energy =               -4057.1357122417075516
    Two-Electron Energy =                1705.4298039725777016
    Total Energy =                      -1028.4549970216417023
  Basis Set: (AUG-CC-PVTZ AUX)
    Blend: AUG-CC-PVTZ-RI
    Molecular point group: c1

    Geometry (in Angstrom), charge = -1, multiplicity = 1:

       Center              X                  Y                   Z               Mass
    ------------   -----------------  -----------------  -----------------  -----------------
         O           -2.954249992268     0.877712993782    -0.738971166869    15.994914619570
         O           -2.954306992268    -0.890914006218     0.750028833131    15.994914619570
         O           -0.554824992268    -3.305419006218     0.788943833131    15.994914619570
         O           -0.554743992268     3.292224993782    -0.777721166869    15.994914619570
         O           -1.541162992268    -2.681782006218    -1.090344166869    15.994914619570
         O           -1.541177992268     2.668523993782     1.101495833131    15.994914619570
         O            3.954972007732    -1.105199006218    -0.046441166869    15.994914619570
         O            3.954984007732     1.091919993782     0.057563833131    15.994914619570
         N           -0.827020992268    -2.478820006218    -0.099195166869    14.003074004430
         N           -0.826991992268     2.465592993782     0.110370833131    14.003074004430
         N            3.373498007732    -0.006636006218     0.005563833131    14.003074004430
         C           -0.912909992268    -0.006614006218     0.005576833131    12.000000000000
         C           -0.152798992268    -1.177828006218    -0.016222166869    12.000000000000
         C           -0.152785992268     1.164594993782     0.027379833131    12.000000000000
         C            1.908531007732    -0.006629006218     0.005571833131    12.000000000000
         C            1.236812007732    -1.224806006218    -0.001476166869    12.000000000000
         C            1.236824007732     1.211555993782     0.012624833131    12.000000000000
         C           -2.548467092268     0.134571593782    -0.113312366869    12.000000000000
         H            1.774354007732    -2.166302006218     0.000729833131     1.007825032230
         H            1.774377007732     2.153045993782     0.010418833131     1.007825032230

  Basis Set: AUG-CC-PVTZ
    Blend: AUG-CC-PVTZ
  Basis Set: (AUG-CC-PVTZ AUX)
    Blend: AUG-CC-PVTZ-JKFIT
	 Reference Energy          =   -1028.4549970216417023 [Eh]
	 Singles Energy            =      -0.0000000000000000 [Eh]
	 Same-Spin Energy          =      -1.0546615912130051 [Eh]
	 Opposite-Spin Energy      =      -2.9478435825479568 [Eh]
	 Correlation Energy        =      -4.0025051737609623 [Eh]
	 Total Energy              =   -1032.4575021954026397 [Eh]

	 ================> DF-SCS-MP2 Energies <==================
	-----------------------------------------------------------
	 SCS Same-Spin Scale       =       0.3333333333333333 [-]
	 SCS Opposite-Spin Scale   =       1.2000000000000000 [-]
	 SCS Same-Spin Energy      =      -0.3515538637376683 [Eh]
	 SCS Opposite-Spin Energy  =      -3.5374122990575478 [Eh]
	 SCS Correlation Energy    =      -3.8889661627952163 [Eh]
	 SCS Total Energy          =   -1032.3439631844369160 [Eh]
	-----------------------------------------------------------

  Dipole Moment: [D]
     X:     7.9057      Y:     1.3027      Z:    -1.2138     Total:     8.1037

*** Psi4 exiting successfully. Buy a developer a beer!
