                               Psi4 1.4a3.dev225

  ==> Input File <==

--------------------------------------------------------------------------
#psi4
#
memory 32 gb

molecule  {
-1 1
  O       -2.9714190     0.8843310    -0.7445430
  O       -2.9714760    -0.8842960     0.7444570
  O       -0.5719940    -3.2988010     0.7833720
  O       -0.5719130     3.2988430    -0.7832930
  O       -1.5583320    -2.6751640    -1.0959160
  O       -1.5583470     2.6751420     1.0959240
  O        3.9378030    -1.0985810    -0.0520130
  O        3.9378150     1.0985380     0.0519920
  N       -0.8441900    -2.4722020    -0.1047670
  N       -0.8441610     2.4722110     0.1047990
  N        3.3563290    -0.0000180    -0.0000080
  C       -0.9300790     0.0000040     0.0000050
  C       -0.1699680    -1.1712100    -0.0217940
  C       -0.1699550     1.1712130     0.0218080
  C        1.8913620    -0.0000110     0.0000000
  C        1.2196430    -1.2181880    -0.0070480
  C        1.2196550     1.2181740     0.0070530
  C       -2.5078208     0.0353079    -0.0297413
  H        1.7571850    -2.1596840    -0.0048420
  H        1.7572080     2.1596640     0.0048470
units angstrom
no_reorient  #important for SAPT in psi4, default
symmetry c1  #important for SAPT in psi4, default
}

set PROPERTIES_ORIGIN ["COM"]
properties('MP2/aug-cc-pvtz', properties = ['dipole'])
--------------------------------------------------------------------------

    Molecular point group: c1
  Charge       = -1
  Multiplicity = 1
  Basis Set: AUG-CC-PVTZ
    Blend: AUG-CC-PVTZ
  Basis Set: (AUG-CC-PVTZ AUX)
    Blend: AUG-CC-PVTZ-JKFIT

    Orbital Energies [Eh]
    ---------------------

    Doubly Occupied:

       1A    -20.541217     2A    -20.541141     3A    -20.517673
       4A    -20.514834     5A    -20.513937     6A    -20.511259
       7A    -20.382519     8A    -20.360468     9A    -15.793107
      10A    -15.763789    11A    -15.760705    12A    -11.247222
      13A    -11.239095    14A    -11.238844    15A    -11.229966
      16A    -11.222339    17A    -11.221966    18A    -11.208193
      19A     -1.524649    20A     -1.498286    21A     -1.494429
      22A     -1.322551    23A     -1.298084    24A     -1.294248
      25A     -1.263724    26A     -1.153182    27A     -1.144951
      28A     -1.047906    29A     -1.041360    30A     -0.910806
      31A     -0.894317    32A     -0.891560    33A     -0.759125
      34A     -0.740614    35A     -0.711733    36A     -0.672691
      37A     -0.670400    38A     -0.659503    39A     -0.650385
      40A     -0.646489    41A     -0.634253    42A     -0.629815
      43A     -0.626651    44A     -0.604024    45A     -0.560967
      46A     -0.558232    47A     -0.520272    48A     -0.510645
      49A     -0.488597    50A     -0.468258    51A     -0.440169
      52A     -0.437427    53A     -0.429728    54A     -0.416500
      55A     -0.407423    56A     -0.403400    57A     -0.394172
      58A     -0.390758    59A     -0.358298    60A     -0.353391
      61A     -0.317891    62A     -0.306288    63A     -0.287125
      64A     -0.273704    65A     -0.264535

  @DF-RHF Final Energy: -1028.52615287058029

   => Energetics <=

    Nuclear Repulsion Energy =           1323.3038847146808621
    One-Electron Energy =               -4057.2964921644565948
    Two-Electron Energy =                1705.4664545791954424
    Total Energy =                      -1028.5261528705802903
  Basis Set: (AUG-CC-PVTZ AUX)
    Blend: AUG-CC-PVTZ-RI
    Molecular point group: c1

    Geometry (in Angstrom), charge = -1, multiplicity = 1:

       Center              X                  Y                   Z               Mass
    ------------   -----------------  -----------------  -----------------  -----------------
         O           -2.956960251845     0.882676505024    -0.743149998398    15.994914619570
         O           -2.957017251845    -0.885950494976     0.745850001602    15.994914619570
         O           -0.557535251845    -3.300455494976     0.784765001602    15.994914619570
         O           -0.557454251845     3.297188505024    -0.781899998398    15.994914619570
         O           -1.543873251845    -2.676818494976    -1.094522998398    15.994914619570
         O           -1.543888251845     2.673487505024     1.097317001602    15.994914619570
         O            3.952261748155    -1.100235494976    -0.050619998398    15.994914619570
         O            3.952273748155     1.096883505024     0.053385001602    15.994914619570
         N           -0.829731251845    -2.473856494976    -0.103373998398    14.003074004430
         N           -0.829702251845     2.470556505024     0.106192001602    14.003074004430
         N            3.370787748155    -0.001672494976     0.001385001602    14.003074004430
         C           -0.915620251845    -0.001650494976     0.001398001602    12.000000000000
         C           -0.155509251845    -1.172864494976    -0.020400998398    12.000000000000
         C           -0.155496251845     1.169558505024     0.023201001602    12.000000000000
         C            1.905820748155    -0.001665494976     0.001393001602    12.000000000000
         C            1.234101748155    -1.219842494976    -0.005654998398    12.000000000000
         C            1.234113748155     1.216519505024     0.008446001602    12.000000000000
         C           -2.493362051845     0.033653405024    -0.028348298398    12.000000000000
         H            1.771643748155    -2.161338494976    -0.003448998398     1.007825032230
         H            1.771666748155     2.158009505024     0.006240001602     1.007825032230

  Basis Set: AUG-CC-PVTZ
    Blend: AUG-CC-PVTZ
  Basis Set: (AUG-CC-PVTZ AUX)
    Blend: AUG-CC-PVTZ-JKFIT
	 Reference Energy          =   -1028.5261528705802903 [Eh]
	 Singles Energy            =      -0.0000000000000000 [Eh]
	 Same-Spin Energy          =      -1.0564544029027543 [Eh]
	 Opposite-Spin Energy      =      -2.9518629486560766 [Eh]
	 Correlation Energy        =      -4.0083173515588308 [Eh]
	 Total Energy              =   -1032.5344702221391344 [Eh]

	 ================> DF-SCS-MP2 Energies <==================
	-----------------------------------------------------------
	 SCS Same-Spin Scale       =       0.3333333333333333 [-]
	 SCS Opposite-Spin Scale   =       1.2000000000000000 [-]
	 SCS Same-Spin Energy      =      -0.3521514676342514 [Eh]
	 SCS Opposite-Spin Energy  =      -3.5422355383872919 [Eh]
	 SCS Correlation Energy    =      -3.8943870060215433 [Eh]
	 SCS Total Energy          =   -1032.4205398766018789 [Eh]
	-----------------------------------------------------------

  Dipole Moment: [D]
     X:     8.6422      Y:     0.3009      Z:    -0.2845     Total:     8.6521

*** Psi4 exiting successfully. Buy a developer a beer!
