                               Psi4 1.4a3.dev225

  ==> Input File <==

--------------------------------------------------------------------------
#psi4
#
memory 32 gb

molecule  {
-1 1
  O       -2.9714190     0.8843310    -0.7445430
  O       -2.9714760    -0.8842960     0.7444570
  O       -0.5719940    -3.2988010     0.7833720
  O       -0.5719130     3.2988430    -0.7832930
  O       -1.5583320    -2.6751640    -1.0959160
  O       -1.5583470     2.6751420     1.0959240
  O        3.9378030    -1.0985810    -0.0520130
  O        3.9378150     1.0985380     0.0519920
  N       -0.8441900    -2.4722020    -0.1047670
  N       -0.8892037     2.4478171     0.1054754
  N        3.3563290    -0.0000180    -0.0000080
  C       -0.9300790     0.0000040     0.0000050
  C       -0.1699680    -1.1712100    -0.0217940
  C       -0.1699550     1.1712130     0.0218080
  C        1.8913620    -0.0000110     0.0000000
  C        1.2196430    -1.2181880    -0.0070480
  C        1.2196550     1.2181740     0.0070530
  C       -2.4885490     0.0000140    -0.0000270
  H        1.7571850    -2.1596840    -0.0048420
  H        1.7572080     2.1596640     0.0048470
units angstrom
no_reorient  #important for SAPT in psi4, default
symmetry c1  #important for SAPT in psi4, default
}

set PROPERTIES_ORIGIN ["COM"]
properties('MP2/aug-cc-pvtz', properties = ['dipole'])
--------------------------------------------------------------------------

    Molecular point group: c1
  Charge       = -1
  Multiplicity = 1
  Basis Set: AUG-CC-PVTZ
    Blend: AUG-CC-PVTZ
  Basis Set: (AUG-CC-PVTZ AUX)
    Blend: AUG-CC-PVTZ-JKFIT

    Orbital Energies [Eh]
    ---------------------

    Doubly Occupied:

       1A    -20.542244     2A    -20.542190     3A    -20.526016
       4A    -20.516424     5A    -20.513620     6A    -20.502443
       7A    -20.371485     8A    -20.371038     9A    -15.794194
      10A    -15.762943    11A    -15.762304    12A    -11.249004
      13A    -11.240896    14A    -11.240574    15A    -11.230361
      16A    -11.224011    17A    -11.223252    18A    -11.210230
      19A     -1.525660    20A     -1.498424    21A     -1.496968
      22A     -1.323529    23A     -1.296733    24A     -1.290493
      25A     -1.248057    26A     -1.154697    27A     -1.149527
      28A     -1.049922    29A     -1.041806    30A     -0.913198
      31A     -0.894502    32A     -0.893959    33A     -0.761301
      34A     -0.741306    35A     -0.712627    36A     -0.676356
      37A     -0.672683    38A     -0.660496    39A     -0.650949
      40A     -0.647475    41A     -0.634755    42A     -0.629290
      43A     -0.627888    44A     -0.604671    45A     -0.561991
      46A     -0.557807    47A     -0.521219    48A     -0.506187
      49A     -0.489446    50A     -0.466812    51A     -0.441167
      52A     -0.434156    53A     -0.428708    54A     -0.414905
      55A     -0.409279    56A     -0.402579    57A     -0.392888
      58A     -0.391530    59A     -0.357645    60A     -0.353372
      61A     -0.318175    62A     -0.307237    63A     -0.283466
      64A     -0.280904    65A     -0.265643

  @DF-RHF Final Energy: -1028.52602044311220

   => Energetics <=

    Nuclear Repulsion Energy =           1323.7480261636251271
    One-Electron Energy =               -4058.1368547733345622
    Two-Electron Energy =                1705.8628081665972331
    Total Energy =                      -1028.5260204431122020
  Basis Set: (AUG-CC-PVTZ AUX)
    Blend: AUG-CC-PVTZ-RI
    Molecular point group: c1

    Geometry (in Angstrom), charge = -1, multiplicity = 1:

       Center              X                  Y                   Z               Mass
    ------------   -----------------  -----------------  -----------------  -----------------
         O           -2.955399707567     0.885665425511    -0.744579943273    15.994914619570
         O           -2.955456707567    -0.882961574489     0.744420056727    15.994914619570
         O           -0.555974707567    -3.297466574489     0.783335056727    15.994914619570
         O           -0.555893707567     3.300177425511    -0.783329943273    15.994914619570
         O           -1.542312707567    -2.673829574489    -1.095952943273    15.994914619570
         O           -1.542327707567     2.676476425511     1.095887056727    15.994914619570
         O            3.953822292433    -1.097246574489    -0.052049943273    15.994914619570
         O            3.953834292433     1.099872425511     0.051955056727    15.994914619570
         N           -0.828170707567    -2.470867574489    -0.104803943273    14.003074004430
         N           -0.873184407567     2.449151525511     0.105438456727    14.003074004430
         N            3.372348292433     0.001316425511    -0.000044943273    14.003074004430
         C           -0.914059707567     0.001338425511    -0.000031943273    12.000000000000
         C           -0.153948707567    -1.169875574489    -0.021830943273    12.000000000000
         C           -0.153935707567     1.172547425511     0.021771056727    12.000000000000
         C            1.907381292433     0.001323425511    -0.000036943273    12.000000000000
         C            1.235662292433    -1.216853574489    -0.007084943273    12.000000000000
         C            1.235674292433     1.219508425511     0.007016056727    12.000000000000
         C           -2.472529707567     0.001348425511    -0.000063943273    12.000000000000
         H            1.773204292433    -2.158349574489    -0.004878943273     1.007825032230
         H            1.773227292433     2.160998425511     0.004810056727     1.007825032230

  Basis Set: AUG-CC-PVTZ
    Blend: AUG-CC-PVTZ
  Basis Set: (AUG-CC-PVTZ AUX)
    Blend: AUG-CC-PVTZ-JKFIT
	 Reference Energy          =   -1028.5260204431122020 [Eh]
	 Singles Energy            =      -0.0000000000000000 [Eh]
	 Same-Spin Energy          =      -1.0569273490640403 [Eh]
	 Opposite-Spin Energy      =      -2.9531256331935820 [Eh]
	 Correlation Energy        =      -4.0100529822576227 [Eh]
	 Total Energy              =   -1032.5360734253697501 [Eh]

	 ================> DF-SCS-MP2 Energies <==================
	-----------------------------------------------------------
	 SCS Same-Spin Scale       =       0.3333333333333333 [-]
	 SCS Opposite-Spin Scale   =       1.2000000000000000 [-]
	 SCS Same-Spin Energy      =      -0.3523091163546801 [Eh]
	 SCS Opposite-Spin Energy  =      -3.5437507598322981 [Eh]
	 SCS Correlation Energy    =      -3.8960598761869782 [Eh]
	 SCS Total Energy          =   -1032.4220803192990843 [Eh]
	-----------------------------------------------------------

  Dipole Moment: [D]
     X:     8.7380      Y:    -0.0900      Z:     0.0940     Total:     8.7389

*** Psi4 exiting successfully. Buy a developer a beer!
