                               Psi4 1.4a3.dev225

  ==> Input File <==

--------------------------------------------------------------------------
#psi4
#
memory 32 gb

molecule  {
-1 1
  O       -2.9714190     0.8843310    -0.7445430
  O       -2.9714760    -0.8842960     0.7444570
  O       -0.5719940    -3.2988010     0.7833720
  O       -0.5719130     3.2988430    -0.7832930
  O       -1.5583320    -2.6751640    -1.0959160
  O       -1.5583470     2.6751420     1.0959240
  O        3.9378030    -1.0985810    -0.0520130
  O        3.9378150     1.0985380     0.0519920
  N       -0.8441900    -2.4722020    -0.1047670
  N       -0.8441610     2.4722110     0.1047990
  N        3.3563290    -0.0000180    -0.0000080
  C       -0.9504053     0.0134386     0.0005891
  C       -0.1699680    -1.1712100    -0.0217940
  C       -0.1699550     1.1712130     0.0218080
  C        1.8913620    -0.0000110     0.0000000
  C        1.2196430    -1.2181880    -0.0070480
  C        1.2196550     1.2181740     0.0070530
  C       -2.4885490     0.0000140    -0.0000270
  H        1.7571850    -2.1596840    -0.0048420
  H        1.7572080     2.1596640     0.0048470
units angstrom
no_reorient  #important for SAPT in psi4, default
symmetry c1  #important for SAPT in psi4, default
}

set PROPERTIES_ORIGIN ["COM"]
properties('MP2/aug-cc-pvtz', properties = ['dipole'])
--------------------------------------------------------------------------

    Molecular point group: c1
  Charge       = -1
  Multiplicity = 1
  Basis Set: AUG-CC-PVTZ
    Blend: AUG-CC-PVTZ
  Basis Set: (AUG-CC-PVTZ AUX)
    Blend: AUG-CC-PVTZ-JKFIT

    Orbital Energies [Eh]
    ---------------------

    Doubly Occupied:

       1A    -20.542338     2A    -20.542150     3A    -20.516181
       4A    -20.516124     5A    -20.513382     6A    -20.513355
       7A    -20.369944     8A    -20.369602     9A    -15.794136
      10A    -15.762858    11A    -15.762426    12A    -11.248908
      13A    -11.243178    14A    -11.241066    15A    -11.227832
      16A    -11.224174    17A    -11.223051    18A    -11.214845
      19A     -1.525688    20A     -1.496907    21A     -1.496619
      22A     -1.323576    23A     -1.296566    24A     -1.296430
      25A     -1.247506    26A     -1.153514    27A     -1.148477
      28A     -1.049180    29A     -1.042025    30A     -0.912715
      31A     -0.896091    32A     -0.892750    33A     -0.761618
      34A     -0.740220    35A     -0.712498    36A     -0.680089
      37A     -0.672517    38A     -0.660552    39A     -0.649674
      40A     -0.647461    41A     -0.634617    42A     -0.629546
      43A     -0.628025    44A     -0.604734    45A     -0.561453
      46A     -0.558031    47A     -0.521446    48A     -0.506901
      49A     -0.489015    50A     -0.465477    51A     -0.441147
      52A     -0.434141    53A     -0.428145    54A     -0.416722
      55A     -0.407523    56A     -0.403743    57A     -0.393552
      58A     -0.391673    59A     -0.358137    60A     -0.353717
      61A     -0.317219    62A     -0.307520    63A     -0.283666
      64A     -0.278874    65A     -0.263976

  @DF-RHF Final Energy: -1028.52737360017454

   => Energetics <=

    Nuclear Repulsion Energy =           1323.3872176756208319
    One-Electron Energy =               -4057.4147319817520838
    Two-Electron Energy =                1705.5001407059567100
    Total Energy =                      -1028.5273736001745419
  Basis Set: (AUG-CC-PVTZ AUX)
    Blend: AUG-CC-PVTZ-RI
    Molecular point group: c1

    Geometry (in Angstrom), charge = -1, multiplicity = 1:

       Center              X                  Y                   Z               Mass
    ------------   -----------------  -----------------  -----------------  -----------------
         O           -2.956910819105     0.883701222999    -0.744570323620    15.994914619570
         O           -2.956967819105    -0.884925777001     0.744429676380    15.994914619570
         O           -0.557485819105    -3.299430777001     0.783344676380    15.994914619570
         O           -0.557404819105     3.298213222999    -0.783320323620    15.994914619570
         O           -1.543823819105    -2.675793777001    -1.095943323620    15.994914619570
         O           -1.543838819105     2.674512222999     1.095896676380    15.994914619570
         O            3.952311180895    -1.099210777001    -0.052040323620    15.994914619570
         O            3.952323180895     1.097908222999     0.051964676380    15.994914619570
         N           -0.829681819105    -2.472831777001    -0.104794323620    14.003074004430
         N           -0.829652819105     2.471581222999     0.104771676380    14.003074004430
         N            3.370837180895    -0.000647777001    -0.000035323620    14.003074004430
         C           -0.935897119105     0.012808822999     0.000561776380    12.000000000000
         C           -0.155459819105    -1.171839777001    -0.021821323620    12.000000000000
         C           -0.155446819105     1.170583222999     0.021780676380    12.000000000000
         C            1.905870180895    -0.000640777001    -0.000027323620    12.000000000000
         C            1.234151180895    -1.218817777001    -0.007075323620    12.000000000000
         C            1.234163180895     1.217544222999     0.007025676380    12.000000000000
         C           -2.474040819105    -0.000615777001    -0.000054323620    12.000000000000
         H            1.771693180895    -2.160313777001    -0.004869323620     1.007825032230
         H            1.771716180895     2.159034222999     0.004819676380     1.007825032230

  Basis Set: AUG-CC-PVTZ
    Blend: AUG-CC-PVTZ
  Basis Set: (AUG-CC-PVTZ AUX)
    Blend: AUG-CC-PVTZ-JKFIT
	 Reference Energy          =   -1028.5273736001745419 [Eh]
	 Singles Energy            =      -0.0000000000000000 [Eh]
	 Same-Spin Energy          =      -1.0570958394217076 [Eh]
	 Opposite-Spin Energy      =      -2.9534063377424329 [Eh]
	 Correlation Energy        =      -4.0105021771641400 [Eh]
	 Total Energy              =   -1032.5378757773387406 [Eh]

	 ================> DF-SCS-MP2 Energies <==================
	-----------------------------------------------------------
	 SCS Same-Spin Scale       =       0.3333333333333333 [-]
	 SCS Opposite-Spin Scale   =       1.2000000000000000 [-]
	 SCS Same-Spin Energy      =      -0.3523652798072359 [Eh]
	 SCS Opposite-Spin Energy  =      -3.5440876052909194 [Eh]
	 SCS Correlation Energy    =      -3.8964528850981552 [Eh]
	 SCS Total Energy          =   -1032.4238264852726843 [Eh]
	-----------------------------------------------------------

  Dipole Moment: [D]
     X:     8.8161      Y:    -0.0056      Z:     0.0026     Total:     8.8161

*** Psi4 exiting successfully. Buy a developer a beer!
