                               Psi4 1.4a3.dev225

  ==> Input File <==

--------------------------------------------------------------------------
#psi4
#
memory 32 gb

molecule  {
-1 1
  O       -2.9714190     0.8843310    -0.7445430
  O       -2.9714760    -0.8842960     0.7444570
  O       -0.5719940    -3.2988010     0.7833720
  O       -0.5719130     3.2988430    -0.7832930
  O       -1.5583320    -2.6751640    -1.0959160
  O       -1.5583470     2.6751420     1.0959240
  O        3.9378030    -1.0985810    -0.0520130
  O        3.9378150     1.0985380     0.0519920
  N       -0.8441900    -2.4722020    -0.1047670
  N       -0.8441610     2.4722110     0.1047990
  N        3.3563290    -0.0000180    -0.0000080
  C       -0.8887381    -0.0257910    -0.0011431
  C       -0.1699680    -1.1712100    -0.0217940
  C       -0.1699550     1.1712130     0.0218080
  C        1.8913620    -0.0000110     0.0000000
  C        1.2196430    -1.2181880    -0.0070480
  C        1.2196550     1.2181740     0.0070530
  C       -2.4885490     0.0000140    -0.0000270
  H        1.7571850    -2.1596840    -0.0048420
  H        1.7572080     2.1596640     0.0048470
units angstrom
no_reorient  #important for SAPT in psi4, default
symmetry c1  #important for SAPT in psi4, default
}

set PROPERTIES_ORIGIN ["COM"]
properties('MP2/aug-cc-pvtz', properties = ['dipole'])
--------------------------------------------------------------------------

    Molecular point group: c1
  Charge       = -1
  Multiplicity = 1
  Basis Set: AUG-CC-PVTZ
    Blend: AUG-CC-PVTZ
  Basis Set: (AUG-CC-PVTZ AUX)
    Blend: AUG-CC-PVTZ-JKFIT

    Orbital Energies [Eh]
    ---------------------

    Doubly Occupied:

       1A    -20.542218     2A    -20.541853     3A    -20.516703
       4A    -20.516639     5A    -20.513895     6A    -20.513787
       7A    -20.370581     8A    -20.369738     9A    -15.793954
      10A    -15.763975    11A    -15.763042    12A    -11.248230
      13A    -11.240187    14A    -11.235455    15A    -11.231815
      16A    -11.223762    17A    -11.221619    18A    -11.202826
      19A     -1.525472    20A     -1.497269    21A     -1.496989
      22A     -1.323356    23A     -1.296935    24A     -1.296817
      25A     -1.244802    26A     -1.152814    27A     -1.152111
      28A     -1.051112    29A     -1.042891    30A     -0.911441
      31A     -0.897929    32A     -0.892111    33A     -0.759211
      34A     -0.744443    35A     -0.712722    36A     -0.673287
      37A     -0.668637    38A     -0.659476    39A     -0.655092
      40A     -0.647330    41A     -0.635171    42A     -0.629848
      43A     -0.628268    44A     -0.603872    45A     -0.564573
      46A     -0.555308    47A     -0.521731    48A     -0.500981
      49A     -0.489829    50A     -0.466059    51A     -0.440991
      52A     -0.433418    53A     -0.427632    54A     -0.417080
      55A     -0.407953    56A     -0.404040    57A     -0.396055
      58A     -0.391426    59A     -0.358345    60A     -0.353901
      61A     -0.318964    62A     -0.306910    63A     -0.281847
      64A     -0.278877    65A     -0.264326

  @DF-RHF Final Energy: -1028.52697522689550

   => Energetics <=

    Nuclear Repulsion Energy =           1323.7507335511718338
    One-Electron Energy =               -4058.1755633923589812
    Two-Electron Energy =                1705.8978546142916457
    Total Energy =                      -1028.5269752268955017
  Basis Set: (AUG-CC-PVTZ AUX)
    Blend: AUG-CC-PVTZ-RI
    Molecular point group: c1

    Geometry (in Angstrom), charge = -1, multiplicity = 1:

       Center              X                  Y                   Z               Mass
    ------------   -----------------  -----------------  -----------------  -----------------
         O           -2.959801647647     0.885540224079    -0.744489121729    15.994914619570
         O           -2.959858647647    -0.883086775921     0.744510878271    15.994914619570
         O           -0.560376647647    -3.297591775921     0.783425878271    15.994914619570
         O           -0.560295647647     3.300052224079    -0.783239121729    15.994914619570
         O           -1.546714647647    -2.673954775921    -1.095862121729    15.994914619570
         O           -1.546729647647     2.676351224079     1.095977878271    15.994914619570
         O            3.949420352353    -1.097371775921    -0.051959121729    15.994914619570
         O            3.949432352353     1.099747224079     0.052045878271    15.994914619570
         N           -0.832572647647    -2.470992775921    -0.104713121729    14.003074004430
         N           -0.832543647647     2.473420224079     0.104852878271    14.003074004430
         N            3.367946352353     0.001191224079     0.000045878271    14.003074004430
         C           -0.877120747647    -0.024581775921    -0.001089221729    12.000000000000
         C           -0.158350647647    -1.170000775921    -0.021740121729    12.000000000000
         C           -0.158337647647     1.172422224079     0.021861878271    12.000000000000
         C            1.902979352353     0.001198224079     0.000053878271    12.000000000000
         C            1.231260352353    -1.216978775921    -0.006994121729    12.000000000000
         C            1.231272352353     1.219383224079     0.007106878271    12.000000000000
         C           -2.476931647647     0.001223224079     0.000026878271    12.000000000000
         H            1.768802352353    -2.158474775921    -0.004788121729     1.007825032230
         H            1.768825352353     2.160873224079     0.004900878271     1.007825032230

  Basis Set: AUG-CC-PVTZ
    Blend: AUG-CC-PVTZ
  Basis Set: (AUG-CC-PVTZ AUX)
    Blend: AUG-CC-PVTZ-JKFIT
	 Reference Energy          =   -1028.5269752268955017 [Eh]
	 Singles Energy            =      -0.0000000000000000 [Eh]
	 Same-Spin Energy          =      -1.0567448324912512 [Eh]
	 Opposite-Spin Energy      =      -2.9525830457630047 [Eh]
	 Correlation Energy        =      -4.0093278782542559 [Eh]
	 Total Energy              =   -1032.5363031051497273 [Eh]

	 ================> DF-SCS-MP2 Energies <==================
	-----------------------------------------------------------
	 SCS Same-Spin Scale       =       0.3333333333333333 [-]
	 SCS Opposite-Spin Scale   =       1.2000000000000000 [-]
	 SCS Same-Spin Energy      =      -0.3522482774970837 [Eh]
	 SCS Opposite-Spin Energy  =      -3.5430996549156055 [Eh]
	 SCS Correlation Energy    =      -3.8953479324126894 [Eh]
	 SCS Total Energy          =   -1032.4223231593082346 [Eh]
	-----------------------------------------------------------

  Dipole Moment: [D]
     X:     8.7857      Y:     0.0190      Z:    -0.0059     Total:     8.7857

*** Psi4 exiting successfully. Buy a developer a beer!
