                               Psi4 1.4a3.dev225

  ==> Input File <==

--------------------------------------------------------------------------
#psi4
#
memory 32 gb

molecule  {
-1 1
  O       -2.9714190     0.8843310    -0.7445430
  O       -2.9714760    -0.8842960     0.7444570
  O       -0.5719940    -3.2988010     0.7833720
  O       -0.5719130     3.2988430    -0.7832930
  O       -1.5583320    -2.6751640    -1.0959160
  O       -1.5583470     2.6751420     1.0959240
  O        3.9378030    -1.0985810    -0.0520130
  O        3.9378150     1.0985380     0.0519920
  N       -0.8441900    -2.4722020    -0.1047670
  N       -0.8660557     2.4057316     0.1762211
  N        3.3563290    -0.0000180    -0.0000080
  C       -0.9300790     0.0000040     0.0000050
  C       -0.1699680    -1.1712100    -0.0217940
  C       -0.1699550     1.1712130     0.0218080
  C        1.8913620    -0.0000110     0.0000000
  C        1.2196430    -1.2181880    -0.0070480
  C        1.2196550     1.2181740     0.0070530
  C       -2.4885490     0.0000140    -0.0000270
  H        1.7571850    -2.1596840    -0.0048420
  H        1.7572080     2.1596640     0.0048470
units angstrom
no_reorient  #important for SAPT in psi4, default
symmetry c1  #important for SAPT in psi4, default
}

set PROPERTIES_ORIGIN ["COM"]
properties('MP2/aug-cc-pvtz', properties = ['dipole'])
--------------------------------------------------------------------------

    Molecular point group: c1
  Charge       = -1
  Multiplicity = 1
  Basis Set: AUG-CC-PVTZ
    Blend: AUG-CC-PVTZ
  Basis Set: (AUG-CC-PVTZ AUX)
    Blend: AUG-CC-PVTZ-JKFIT

    Orbital Energies [Eh]
    ---------------------

    Doubly Occupied:

       1A    -20.548333     2A    -20.543003     3A    -20.542928
       4A    -20.517397     5A    -20.514580     6A    -20.479205
       7A    -20.372611     8A    -20.372394     9A    -15.794948
      10A    -15.763943    11A    -15.758032    12A    -11.250078
      13A    -11.241837    14A    -11.240386    15A    -11.231648
      16A    -11.225763    17A    -11.225146    18A    -11.212186
      19A     -1.526397    20A     -1.513806    21A     -1.497962
      22A     -1.324244    23A     -1.297696    24A     -1.255599
      25A     -1.249332    26A     -1.155973    27A     -1.151698
      28A     -1.056241    29A     -1.046889    30A     -0.917576
      31A     -0.902364    32A     -0.895841    33A     -0.762672
      34A     -0.743361    35A     -0.714987    36A     -0.677894
      37A     -0.674654    38A     -0.663963    39A     -0.654032
      40A     -0.648241    41A     -0.636052    42A     -0.630007
      43A     -0.627181    44A     -0.605994    45A     -0.561724
      46A     -0.558170    47A     -0.522375    48A     -0.507350
      49A     -0.489841    50A     -0.467680    51A     -0.441814
      52A     -0.435112    53A     -0.430041    54A     -0.414409
      55A     -0.410214    56A     -0.397965    57A     -0.392237
      58A     -0.386425    59A     -0.357302    60A     -0.346576
      61A     -0.319364    62A     -0.306998    63A     -0.284945
      64A     -0.282238    65A     -0.266934

  @DF-RHF Final Energy: -1028.51258070361791

   => Energetics <=

    Nuclear Repulsion Energy =           1324.4101062411136809
    One-Electron Energy =               -4059.3557943790974605
    Two-Electron Energy =                1706.4331074343658656
    Total Energy =                      -1028.5125807036179140
  Basis Set: (AUG-CC-PVTZ AUX)
    Blend: AUG-CC-PVTZ-RI
    Molecular point group: c1

    Geometry (in Angstrom), charge = -1, multiplicity = 1:

       Center              X                  Y                   Z               Mass
    ------------   -----------------  -----------------  -----------------  -----------------
         O           -2.956665969981     0.887967623835    -0.748449937261    15.994914619570
         O           -2.956722969981    -0.880659376165     0.740550062739    15.994914619570
         O           -0.557240969981    -3.295164376165     0.779465062739    15.994914619570
         O           -0.557159969981     3.302479623835    -0.787199937261    15.994914619570
         O           -1.543578969981    -2.671527376165    -1.099822937261    15.994914619570
         O           -1.543593969981     2.678778623835     1.092017062739    15.994914619570
         O            3.952556030019    -1.094944376165    -0.055919937261    15.994914619570
         O            3.952568030019     1.102174623835     0.048085062739    15.994914619570
         N           -0.829436969981    -2.468565376165    -0.108673937261    14.003074004430
         N           -0.851302669981     2.409368223835     0.172314162739    14.003074004430
         N            3.371082030019     0.003618623835    -0.003914937261    14.003074004430
         C           -0.915325969981     0.003640623835    -0.003901937261    12.000000000000
         C           -0.155214969981    -1.167573376165    -0.025700937261    12.000000000000
         C           -0.155201969981     1.174849623835     0.017901062739    12.000000000000
         C            1.906115030019     0.003625623835    -0.003906937261    12.000000000000
         C            1.234396030019    -1.214551376165    -0.010954937261    12.000000000000
         C            1.234408030019     1.221810623835     0.003146062739    12.000000000000
         C           -2.473795969981     0.003650623835    -0.003933937261    12.000000000000
         H            1.771938030019    -2.156047376165    -0.008748937261     1.007825032230
         H            1.771961030019     2.163300623835     0.000940062739     1.007825032230

  Basis Set: AUG-CC-PVTZ
    Blend: AUG-CC-PVTZ
  Basis Set: (AUG-CC-PVTZ AUX)
    Blend: AUG-CC-PVTZ-JKFIT
	 Reference Energy          =   -1028.5125807036179140 [Eh]
	 Singles Energy            =      -0.0000000000000000 [Eh]
	 Same-Spin Energy          =      -1.0566764973742755 [Eh]
	 Opposite-Spin Energy      =      -2.9529120989837643 [Eh]
	 Correlation Energy        =      -4.0095885963580393 [Eh]
	 Total Energy              =   -1032.5221692999759853 [Eh]

	 ================> DF-SCS-MP2 Energies <==================
	-----------------------------------------------------------
	 SCS Same-Spin Scale       =       0.3333333333333333 [-]
	 SCS Opposite-Spin Scale   =       1.2000000000000000 [-]
	 SCS Same-Spin Energy      =      -0.3522254991247585 [Eh]
	 SCS Opposite-Spin Energy  =      -3.5434945187805171 [Eh]
	 SCS Correlation Energy    =      -3.8957200179052758 [Eh]
	 SCS Total Energy          =   -1032.4083007215231191 [Eh]
	-----------------------------------------------------------

  Dipole Moment: [D]
     X:     8.7750      Y:    -0.4277      Z:     0.3920     Total:     8.7941

*** Psi4 exiting successfully. Buy a developer a beer!
