                               Psi4 1.4a3.dev225

  ==> Input File <==

--------------------------------------------------------------------------
#psi4
#
memory 32 gb

molecule  {
-1 1
  O       -2.9714190     0.8843310    -0.7445430
  O       -2.9714760    -0.8842960     0.7444570
  O       -0.5719940    -3.2988010     0.7833720
  O       -0.5719130     3.2988430    -0.7832930
  O       -1.5583320    -2.6751640    -1.0959160
  O       -1.5583470     2.6751420     1.0959240
  O        3.9378030    -1.0985810    -0.0520130
  O        3.9378150     1.0985380     0.0519920
  N       -0.8441900    -2.4722020    -0.1047670
  N       -0.8441610     2.4722110     0.1047990
  N        3.3563290    -0.0000180    -0.0000080
  C       -0.9300790     0.0000040     0.0000050
  C       -0.1699680    -1.1712100    -0.0217940
  C       -0.1791425     1.1889418     0.0229389
  C        1.8913620    -0.0000110     0.0000000
  C        1.2196430    -1.2181880    -0.0070480
  C        1.2196550     1.2181740     0.0070530
  C       -2.4885490     0.0000140    -0.0000270
  H        1.7571850    -2.1596840    -0.0048420
  H        1.7572080     2.1596640     0.0048470
units angstrom
no_reorient  #important for SAPT in psi4, default
symmetry c1  #important for SAPT in psi4, default
}

set PROPERTIES_ORIGIN ["COM"]
properties('MP2/aug-cc-pvtz', properties = ['dipole'])
--------------------------------------------------------------------------

    Molecular point group: c1
  Charge       = -1
  Multiplicity = 1
  Basis Set: AUG-CC-PVTZ
    Blend: AUG-CC-PVTZ
  Basis Set: (AUG-CC-PVTZ AUX)
    Blend: AUG-CC-PVTZ-JKFIT

    Orbital Energies [Eh]
    ---------------------

    Doubly Occupied:

       1A    -20.542056     2A    -20.541991     3A    -20.517058
       4A    -20.516272     5A    -20.514254     6A    -20.513479
       7A    -20.369590     8A    -20.369499     9A    -15.794061
      10A    -15.763938    11A    -15.762977    12A    -11.248516
      13A    -11.240997    14A    -11.240448    15A    -11.228618
      16A    -11.224262    17A    -11.223689    18A    -11.212196
      19A     -1.525499    20A     -1.499345    21A     -1.496832
      22A     -1.323378    23A     -1.297920    24A     -1.296575
      25A     -1.246235    26A     -1.152911    27A     -1.148150
      28A     -1.049722    29A     -1.043956    30A     -0.912464
      31A     -0.898453    32A     -0.892705    33A     -0.760522
      34A     -0.741549    35A     -0.712751    36A     -0.674922
      37A     -0.672722    38A     -0.661780    39A     -0.652556
      40A     -0.647356    41A     -0.635271    42A     -0.630653
      43A     -0.628555    44A     -0.605198    45A     -0.561528
      46A     -0.555651    47A     -0.520786    48A     -0.504071
      49A     -0.487952    50A     -0.465160    51A     -0.440996
      52A     -0.433719    53A     -0.427682    54A     -0.417422
      55A     -0.408915    56A     -0.404109    57A     -0.396021
      58A     -0.391489    59A     -0.358553    60A     -0.354043
      61A     -0.316930    62A     -0.306439    63A     -0.281679
      64A     -0.279339    65A     -0.263862

  @DF-RHF Final Energy: -1028.52809100727268

   => Energetics <=

    Nuclear Repulsion Energy =           1323.4157038705504874
    One-Electron Energy =               -4057.4711360289920776
    Two-Electron Energy =                1705.5273411511686845
    Total Energy =                      -1028.5280910072726783
  Basis Set: (AUG-CC-PVTZ AUX)
    Blend: AUG-CC-PVTZ-RI
    Molecular point group: c1

    Geometry (in Angstrom), charge = -1, multiplicity = 1:

       Center              X                  Y                   Z               Mass
    ------------   -----------------  -----------------  -----------------  -----------------
         O           -2.957432982605     0.883499919941    -0.744595956453    15.994914619570
         O           -2.957489982605    -0.885127080059     0.744404043547    15.994914619570
         O           -0.558007982605    -3.299632080059     0.783319043547    15.994914619570
         O           -0.557926982605     3.298011919941    -0.783345956453    15.994914619570
         O           -1.544345982605    -2.675995080059    -1.095968956453    15.994914619570
         O           -1.544360982605     2.674310919941     1.095871043547    15.994914619570
         O            3.951789017395    -1.099412080059    -0.052065956453    15.994914619570
         O            3.951801017395     1.097706919941     0.051939043547    15.994914619570
         N           -0.830203982605    -2.473033080059    -0.104819956453    14.003074004430
         N           -0.830174982605     2.471379919941     0.104746043547    14.003074004430
         N            3.370315017395    -0.000849080059    -0.000060956453    14.003074004430
         C           -0.916092982605    -0.000827080059    -0.000047956453    12.000000000000
         C           -0.155981982605    -1.172041080059    -0.021846956453    12.000000000000
         C           -0.165156482605     1.188110719941     0.022885943547    12.000000000000
         C            1.905348017395    -0.000842080059    -0.000052956453    12.000000000000
         C            1.233629017395    -1.219019080059    -0.007100956453    12.000000000000
         C            1.233641017395     1.217342919941     0.007000043547    12.000000000000
         C           -2.474562982605    -0.000817080059    -0.000079956453    12.000000000000
         H            1.771171017395    -2.160515080059    -0.004894956453     1.007825032230
         H            1.771194017395     2.158832919941     0.004794043547     1.007825032230

  Basis Set: AUG-CC-PVTZ
    Blend: AUG-CC-PVTZ
  Basis Set: (AUG-CC-PVTZ AUX)
    Blend: AUG-CC-PVTZ-JKFIT
	 Reference Energy          =   -1028.5280910072726783 [Eh]
	 Singles Energy            =      -0.0000000000000000 [Eh]
	 Same-Spin Energy          =      -1.0569554173134805 [Eh]
	 Opposite-Spin Energy      =      -2.9530588780733766 [Eh]
	 Correlation Energy        =      -4.0100142953868572 [Eh]
	 Total Energy              =   -1032.5381053026594600 [Eh]

	 ================> DF-SCS-MP2 Energies <==================
	-----------------------------------------------------------
	 SCS Same-Spin Scale       =       0.3333333333333333 [-]
	 SCS Opposite-Spin Scale   =       1.2000000000000000 [-]
	 SCS Same-Spin Energy      =      -0.3523184724378268 [Eh]
	 SCS Opposite-Spin Energy  =      -3.5436706536880518 [Eh]
	 SCS Correlation Energy    =      -3.8959891261258788 [Eh]
	 SCS Total Energy          =   -1032.4240801333985473 [Eh]
	-----------------------------------------------------------

  Dipole Moment: [D]
     X:     8.8038      Y:     0.0264      Z:     0.0021     Total:     8.8038

*** Psi4 exiting successfully. Buy a developer a beer!
