                               Psi4 1.4a3.dev225

  ==> Input File <==

--------------------------------------------------------------------------
#psi4
#
memory 32 gb

molecule  {
-1 1
  O       -2.9714190     0.8843310    -0.7445430
  O       -2.9714760    -0.8842960     0.7444570
  O       -0.5719940    -3.2988010     0.7833720
  O       -0.5719130     3.2988430    -0.7832930
  O       -1.5583320    -2.6751640    -1.0959160
  O       -1.5583470     2.6751420     1.0959240
  O        3.9378030    -1.0985810    -0.0520130
  O        3.9378150     1.0985380     0.0519920
  N       -0.8441900    -2.4722020    -0.1047670
  N       -0.8441610     2.4722110     0.1047990
  N        3.3563290    -0.0000180    -0.0000080
  C       -0.9095212    -0.0130739    -0.0005725
  C       -0.1699680    -1.1712100    -0.0217940
  C       -0.1699550     1.1712130     0.0218080
  C        1.8913620    -0.0000110     0.0000000
  C        1.2196430    -1.2181880    -0.0070480
  C        1.2196550     1.2181740     0.0070530
  C       -2.4885490     0.0000140    -0.0000270
  H        1.7571850    -2.1596840    -0.0048420
  H        1.7572080     2.1596640     0.0048470
units angstrom
no_reorient  #important for SAPT in psi4, default
symmetry c1  #important for SAPT in psi4, default
}

set PROPERTIES_ORIGIN ["COM"]
properties('MP2/aug-cc-pvtz', properties = ['dipole'])
--------------------------------------------------------------------------

    Molecular point group: c1
  Charge       = -1
  Multiplicity = 1
  Basis Set: AUG-CC-PVTZ
    Blend: AUG-CC-PVTZ
  Basis Set: (AUG-CC-PVTZ AUX)
    Blend: AUG-CC-PVTZ-JKFIT

    Orbital Energies [Eh]
    ---------------------

    Doubly Occupied:

       1A    -20.542237     2A    -20.542049     3A    -20.516542
       4A    -20.516501     5A    -20.513724     6A    -20.513679
       7A    -20.370084     8A    -20.369685     9A    -15.794050
      10A    -15.763477    11A    -15.763023    12A    -11.248505
      13A    -11.240469    14A    -11.238183    15A    -11.230431
      16A    -11.223580    17A    -11.222489    18A    -11.206963
      19A     -1.525580    20A     -1.497169    21A     -1.496887
      22A     -1.323465    23A     -1.296830    24A     -1.296709
      25A     -1.245544    26A     -1.152812    27A     -1.150941
      28A     -1.050148    29A     -1.042951    30A     -0.911799
      31A     -0.897230    32A     -0.892484    33A     -0.759985
      34A     -0.742965    35A     -0.712667    36A     -0.673053
      37A     -0.671786    38A     -0.660207    39A     -0.653462
      40A     -0.647421    41A     -0.635060    42A     -0.629768
      43A     -0.628214    44A     -0.604184    45A     -0.563344
      46A     -0.556497    47A     -0.521714    48A     -0.503115
      49A     -0.489449    50A     -0.465846    51A     -0.441077
      52A     -0.433644    53A     -0.427770    54A     -0.416978
      55A     -0.407833    56A     -0.403954    57A     -0.395287
      58A     -0.391539    59A     -0.358286    60A     -0.353846
      61A     -0.318050    62A     -0.307291    63A     -0.281023
      64A     -0.280464    65A     -0.264112

  @DF-RHF Final Energy: -1028.52850226998953

   => Energetics <=

    Nuclear Repulsion Energy =           1323.6193326175875882
    One-Electron Energy =               -4057.9034521776234214
    Two-Electron Energy =                1705.7556172900463025
    Total Energy =                      -1028.5285022699895308
  Basis Set: (AUG-CC-PVTZ AUX)
    Blend: AUG-CC-PVTZ-RI
    Molecular point group: c1

    Geometry (in Angstrom), charge = -1, multiplicity = 1:

       Center              X                  Y                   Z               Mass
    ------------   -----------------  -----------------  -----------------  -----------------
         O           -2.958827379662     0.884944073197    -0.744515870256    15.994914619570
         O           -2.958884379662    -0.883682926803     0.744484129744    15.994914619570
         O           -0.559402379662    -3.298187926803     0.783399129744    15.994914619570
         O           -0.559321379662     3.299456073197    -0.783265870256    15.994914619570
         O           -1.545740379662    -2.674550926803    -1.095888870256    15.994914619570
         O           -1.545755379662     2.675755073197     1.095951129744    15.994914619570
         O            3.950394620338    -1.097967926803    -0.051985870256    15.994914619570
         O            3.950406620338     1.099151073197     0.052019129744    15.994914619570
         N           -0.831598379662    -2.471588926803    -0.104739870256    14.003074004430
         N           -0.831569379662     2.472824073197     0.104826129744    14.003074004430
         N            3.368920620338     0.000595073197     0.000019129744    14.003074004430
         C           -0.896929579662    -0.012460826803    -0.000545370256    12.000000000000
         C           -0.157376379662    -1.170596926803    -0.021766870256    12.000000000000
         C           -0.157363379662     1.171826073197     0.021835129744    12.000000000000
         C            1.903953620338     0.000602073197     0.000027129744    12.000000000000
         C            1.232234620338    -1.217574926803    -0.007020870256    12.000000000000
         C            1.232246620338     1.218787073197     0.007080129744    12.000000000000
         C           -2.475957379662     0.000627073197     0.000000129744    12.000000000000
         H            1.769776620338    -2.159070926803    -0.004814870256     1.007825032230
         H            1.769799620338     2.160277073197     0.004874129744     1.007825032230

  Basis Set: AUG-CC-PVTZ
    Blend: AUG-CC-PVTZ
  Basis Set: (AUG-CC-PVTZ AUX)
    Blend: AUG-CC-PVTZ-JKFIT
	 Reference Energy          =   -1028.5285022699895308 [Eh]
	 Singles Energy            =      -0.0000000000000000 [Eh]
	 Same-Spin Energy          =      -1.0568064983167123 [Eh]
	 Opposite-Spin Energy      =      -2.9527433944479369 [Eh]
	 Correlation Energy        =      -4.0095498927646496 [Eh]
	 Total Energy              =   -1032.5380521627541839 [Eh]

	 ================> DF-SCS-MP2 Energies <==================
	-----------------------------------------------------------
	 SCS Same-Spin Scale       =       0.3333333333333333 [-]
	 SCS Opposite-Spin Scale   =       1.2000000000000000 [-]
	 SCS Same-Spin Energy      =      -0.3522688327722374 [Eh]
	 SCS Opposite-Spin Energy  =      -3.5432920733375242 [Eh]
	 SCS Correlation Energy    =      -3.8955609061097616 [Eh]
	 SCS Total Energy          =   -1032.4240631760992528 [Eh]
	-----------------------------------------------------------

  Dipole Moment: [D]
     X:     8.8055      Y:     0.0082      Z:    -0.0028     Total:     8.8055

*** Psi4 exiting successfully. Buy a developer a beer!
