                               Psi4 1.4a3.dev225

  ==> Input File <==

--------------------------------------------------------------------------
#psi4
#
memory 32 gb

molecule  {
-1 1
  O       -2.9714190     0.8843310    -0.7445430
  O       -2.9714760    -0.8842960     0.7444570
  O       -0.5719940    -3.2988010     0.7833720
  O       -0.5719130     3.2988430    -0.7832930
  O       -1.5583320    -2.6751640    -1.0959160
  O       -1.5583470     2.6751420     1.0959240
  O        3.9378030    -1.0985810    -0.0520130
  O        3.9378150     1.0985380     0.0519920
  N       -0.8441900    -2.4722020    -0.1047670
  N       -0.8441610     2.4722110     0.1047990
  N        3.3563290    -0.0000180    -0.0000080
  C       -0.9300790     0.0000040     0.0000050
  C       -0.1791557    -1.1889387    -0.0229247
  C       -0.1699550     1.1712130     0.0218080
  C        1.8913620    -0.0000110     0.0000000
  C        1.2196430    -1.2181880    -0.0070480
  C        1.2196550     1.2181740     0.0070530
  C       -2.4885490     0.0000140    -0.0000270
  H        1.7571850    -2.1596840    -0.0048420
  H        1.7572080     2.1596640     0.0048470
units angstrom
no_reorient  #important for SAPT in psi4, default
symmetry c1  #important for SAPT in psi4, default
}

set PROPERTIES_ORIGIN ["COM"]
properties('MP2/aug-cc-pvtz', properties = ['dipole'])
--------------------------------------------------------------------------

    Molecular point group: c1
  Charge       = -1
  Multiplicity = 1
  Basis Set: AUG-CC-PVTZ
    Blend: AUG-CC-PVTZ
  Basis Set: (AUG-CC-PVTZ AUX)
    Blend: AUG-CC-PVTZ-JKFIT

    Orbital Energies [Eh]
    ---------------------

    Doubly Occupied:

       1A    -20.542056     2A    -20.541991     3A    -20.517058
       4A    -20.516271     5A    -20.514254     6A    -20.513479
       7A    -20.369590     8A    -20.369499     9A    -15.794060
      10A    -15.763938    11A    -15.762977    12A    -11.248516
      13A    -11.240997    14A    -11.240448    15A    -11.228618
      16A    -11.224263    17A    -11.223689    18A    -11.212196
      19A     -1.525499    20A     -1.499346    21A     -1.496831
      22A     -1.323378    23A     -1.297920    24A     -1.296574
      25A     -1.246235    26A     -1.152911    27A     -1.148150
      28A     -1.049722    29A     -1.043956    30A     -0.912464
      31A     -0.898453    32A     -0.892705    33A     -0.760522
      34A     -0.741549    35A     -0.712751    36A     -0.674922
      37A     -0.672722    38A     -0.661780    39A     -0.652556
      40A     -0.647356    41A     -0.635271    42A     -0.630654
      43A     -0.628554    44A     -0.605198    45A     -0.561529
      46A     -0.555650    47A     -0.520786    48A     -0.504071
      49A     -0.487952    50A     -0.465160    51A     -0.440996
      52A     -0.433719    53A     -0.427682    54A     -0.417423
      55A     -0.408915    56A     -0.404109    57A     -0.396021
      58A     -0.391489    59A     -0.358553    60A     -0.354043
      61A     -0.316930    62A     -0.306439    63A     -0.281679
      64A     -0.279339    65A     -0.263862

  @DF-RHF Final Energy: -1028.52809106394307

   => Energetics <=

    Nuclear Repulsion Energy =           1323.4157037445979768
    One-Electron Energy =               -4057.4711358958306846
    Two-Electron Energy =                1705.5273410872896420
    Total Energy =                      -1028.5280910639430658
  Basis Set: (AUG-CC-PVTZ AUX)
    Blend: AUG-CC-PVTZ-RI
    Molecular point group: c1

    Geometry (in Angstrom), charge = -1, multiplicity = 1:

       Center              X                  Y                   Z               Mass
    ------------   -----------------  -----------------  -----------------  -----------------
         O           -2.957432973229     0.885162092912    -0.744489937405    15.994914619570
         O           -2.957489973229    -0.883464907088     0.744510062595    15.994914619570
         O           -0.558007973229    -3.297969907088     0.783425062595    15.994914619570
         O           -0.557926973229     3.299674092912    -0.783239937405    15.994914619570
         O           -1.544345973229    -2.674332907088    -1.095862937405    15.994914619570
         O           -1.544360973229     2.675973092912     1.095977062595    15.994914619570
         O            3.951789026771    -1.097749907088    -0.051959937405    15.994914619570
         O            3.951801026771     1.099369092912     0.052045062595    15.994914619570
         N           -0.830203973229    -2.471370907088    -0.104713937405    14.003074004430
         N           -0.830174973229     2.473042092912     0.104852062595    14.003074004430
         N            3.370315026771     0.000813092912     0.000045062595    14.003074004430
         C           -0.916092973229     0.000835092912     0.000058062595    12.000000000000
         C           -0.165169673229    -1.188107607088    -0.022871637405    12.000000000000
         C           -0.155968973229     1.172044092912     0.021861062595    12.000000000000
         C            1.905348026771     0.000820092912     0.000053062595    12.000000000000
         C            1.233629026771    -1.217356907088    -0.006994937405    12.000000000000
         C            1.233641026771     1.219005092912     0.007106062595    12.000000000000
         C           -2.474562973229     0.000845092912     0.000026062595    12.000000000000
         H            1.771171026771    -2.158852907088    -0.004788937405     1.007825032230
         H            1.771194026771     2.160495092912     0.004900062595     1.007825032230

  Basis Set: AUG-CC-PVTZ
    Blend: AUG-CC-PVTZ
  Basis Set: (AUG-CC-PVTZ AUX)
    Blend: AUG-CC-PVTZ-JKFIT
	 Reference Energy          =   -1028.5280910639430658 [Eh]
	 Singles Energy            =      -0.0000000000000000 [Eh]
	 Same-Spin Energy          =      -1.0569554217286441 [Eh]
	 Opposite-Spin Energy      =      -2.9530588885407543 [Eh]
	 Correlation Energy        =      -4.0100143102693986 [Eh]
	 Total Energy              =   -1032.5381053742123640 [Eh]

	 ================> DF-SCS-MP2 Energies <==================
	-----------------------------------------------------------
	 SCS Same-Spin Scale       =       0.3333333333333333 [-]
	 SCS Opposite-Spin Scale   =       1.2000000000000000 [-]
	 SCS Same-Spin Energy      =      -0.3523184739095480 [Eh]
	 SCS Opposite-Spin Energy  =      -3.5436706662489050 [Eh]
	 SCS Correlation Energy    =      -3.8959891401584530 [Eh]
	 SCS Total Energy          =   -1032.4240802041015286 [Eh]
	-----------------------------------------------------------

  Dipole Moment: [D]
     X:     8.8038      Y:    -0.0265      Z:    -0.0018     Total:     8.8038

*** Psi4 exiting successfully. Buy a developer a beer!
