                               Psi4 1.4a3.dev225

  ==> Input File <==

--------------------------------------------------------------------------
#psi4
#
memory 32 gb

molecule  {
-1 1
  O       -2.9714190     0.8843310    -0.7445430
  O       -2.9714760    -0.8842960     0.7444570
  O       -0.5719940    -3.2988010     0.7833720
  O       -0.5719130     3.2988430    -0.7832930
  O       -1.5583320    -2.6751640    -1.0959160
  O       -1.5583470     2.6751420     1.0959240
  O        3.9378030    -1.0985810    -0.0520130
  O        3.9378150     1.0985380     0.0519920
  N       -0.8441900    -2.4722020    -0.1047670
  N       -0.7982969     2.4950198     0.1040215
  N        3.3563290    -0.0000180    -0.0000080
  C       -0.9300790     0.0000040     0.0000050
  C       -0.1699680    -1.1712100    -0.0217940
  C       -0.1699550     1.1712130     0.0218080
  C        1.8913620    -0.0000110     0.0000000
  C        1.2196430    -1.2181880    -0.0070480
  C        1.2196550     1.2181740     0.0070530
  C       -2.4885490     0.0000140    -0.0000270
  H        1.7571850    -2.1596840    -0.0048420
  H        1.7572080     2.1596640     0.0048470
units angstrom
no_reorient  #important for SAPT in psi4, default
symmetry c1  #important for SAPT in psi4, default
}

set PROPERTIES_ORIGIN ["COM"]
properties('MP2/aug-cc-pvtz', properties = ['dipole'])
--------------------------------------------------------------------------

    Molecular point group: c1
  Charge       = -1
  Multiplicity = 1
  Basis Set: AUG-CC-PVTZ
    Blend: AUG-CC-PVTZ
  Basis Set: (AUG-CC-PVTZ AUX)
    Blend: AUG-CC-PVTZ-JKFIT

    Orbital Energies [Eh]
    ---------------------

    Doubly Occupied:

       1A    -20.542253     2A    -20.542197     3A    -20.524699
       4A    -20.516306     5A    -20.513501     6A    -20.506655
       7A    -20.368585     8A    -20.368225     9A    -15.794039
      10A    -15.763007    11A    -15.762811    12A    -11.248470
      13A    -11.240982    14A    -11.240906    15A    -11.227949
      16A    -11.223457    17A    -11.222696    18A    -11.211751
      19A     -1.525660    20A     -1.501019    21A     -1.496857
      22A     -1.323563    23A     -1.296593    24A     -1.295141
      25A     -1.244956    26A     -1.151628    27A     -1.149823
      28A     -1.049096    29A     -1.043623    30A     -0.911421
      31A     -0.898822    32A     -0.891426    33A     -0.760390
      34A     -0.742417    35A     -0.713143    36A     -0.675398
      37A     -0.672760    38A     -0.661134    39A     -0.652708
      40A     -0.647490    41A     -0.635088    42A     -0.630048
      43A     -0.628353    44A     -0.604660    45A     -0.562661
      46A     -0.557548    47A     -0.522092    48A     -0.504094
      49A     -0.488850    50A     -0.464580    51A     -0.441177
      52A     -0.433682    53A     -0.427113    54A     -0.418278
      55A     -0.406813    56A     -0.402976    57A     -0.394406
      58A     -0.391696    59A     -0.358058    60A     -0.353283
      61A     -0.316783    62A     -0.307709    63A     -0.281019
      64A     -0.278937    65A     -0.262466

  @DF-RHF Final Energy: -1028.52651223274165

   => Energetics <=

    Nuclear Repulsion Energy =           1323.2321155227189138
    One-Electron Energy =               -4057.1253981576724073
    Two-Electron Energy =                1705.3667704022120688
    Total Energy =                      -1028.5265122327416520
  Basis Set: (AUG-CC-PVTZ AUX)
    Blend: AUG-CC-PVTZ-RI
    Molecular point group: c1

    Geometry (in Angstrom), charge = -1, multiplicity = 1:

       Center              X                  Y                   Z               Mass
    ------------   -----------------  -----------------  -----------------  -----------------
         O           -2.960372571918     0.883083301576    -0.744500410747    15.994914619570
         O           -2.960429571918    -0.885543698424     0.744499589253    15.994914619570
         O           -0.560947571918    -3.300048698424     0.783414589253    15.994914619570
         O           -0.560866571918     3.297595301576    -0.783250410747    15.994914619570
         O           -1.547285571918    -2.676411698424    -1.095873410747    15.994914619570
         O           -1.547300571918     2.673894301576     1.095966589253    15.994914619570
         O            3.948849428082    -1.099828698424    -0.051970410747    15.994914619570
         O            3.948861428082     1.097290301576     0.052034589253    15.994914619570
         N           -0.833143571918    -2.473449698424    -0.104724410747    14.003074004430
         N           -0.787250471918     2.493772101576     0.104064089253    14.003074004430
         N            3.367375428082    -0.001265698424     0.000034589253    14.003074004430
         C           -0.919032571918    -0.001243698424     0.000047589253    12.000000000000
         C           -0.158921571918    -1.172457698424    -0.021751410747    12.000000000000
         C           -0.158908571918     1.169965301576     0.021850589253    12.000000000000
         C            1.902408428082    -0.001258698424     0.000042589253    12.000000000000
         C            1.230689428082    -1.219435698424    -0.007005410747    12.000000000000
         C            1.230701428082     1.216926301576     0.007095589253    12.000000000000
         C           -2.477502571918    -0.001233698424     0.000015589253    12.000000000000
         H            1.768231428082    -2.160931698424    -0.004799410747     1.007825032230
         H            1.768254428082     2.158416301576     0.004889589253     1.007825032230

  Basis Set: AUG-CC-PVTZ
    Blend: AUG-CC-PVTZ
  Basis Set: (AUG-CC-PVTZ AUX)
    Blend: AUG-CC-PVTZ-JKFIT
	 Reference Energy          =   -1028.5265122327416520 [Eh]
	 Singles Energy            =      -0.0000000000000000 [Eh]
	 Same-Spin Energy          =      -1.0569376893091975 [Eh]
	 Opposite-Spin Energy      =      -2.9530862449861157 [Eh]
	 Correlation Energy        =      -4.0100239342953135 [Eh]
	 Total Energy              =   -1032.5365361670369566 [Eh]

	 ================> DF-SCS-MP2 Energies <==================
	-----------------------------------------------------------
	 SCS Same-Spin Scale       =       0.3333333333333333 [-]
	 SCS Opposite-Spin Scale   =       1.2000000000000000 [-]
	 SCS Same-Spin Energy      =      -0.3523125631030658 [Eh]
	 SCS Opposite-Spin Energy  =      -3.5437034939833389 [Eh]
	 SCS Correlation Energy    =      -3.8960160570864049 [Eh]
	 SCS Total Energy          =   -1032.4225282898280511 [Eh]
	-----------------------------------------------------------

  Dipole Moment: [D]
     X:     8.8918      Y:     0.0649      Z:    -0.0930     Total:     8.8926

*** Psi4 exiting successfully. Buy a developer a beer!
