                               Psi4 1.4a3.dev225

  ==> Input File <==

--------------------------------------------------------------------------
#psi4
#
memory 32 gb

molecule  {
-1 1
  O       -2.9714190     0.8843310    -0.7445430
  O       -2.9714760    -0.8842960     0.7444570
  O       -0.5719940    -3.2988010     0.7833720
  O       -0.5719130     3.2988430    -0.7832930
  O       -1.5583320    -2.6751640    -1.0959160
  O       -1.5583470     2.6751420     1.0959240
  O        3.9378030    -1.0985810    -0.0520130
  O        3.9378150     1.0985380     0.0519920
  N       -0.8441900    -2.4722020    -0.1047670
  N       -0.8441610     2.4722110     0.1047990
  N        3.3563290    -0.0000180    -0.0000080
  C       -0.9300790     0.0000040     0.0000050
  C       -0.1699680    -1.1712100    -0.0217940
  C       -0.1699550     1.1712130     0.0218080
  C        1.8413620    -0.0000108     0.0000003
  C        1.2196430    -1.2181880    -0.0070480
  C        1.2196550     1.2181740     0.0070530
  C       -2.4885490     0.0000140    -0.0000270
  H        1.7571850    -2.1596840    -0.0048420
  H        1.7572080     2.1596640     0.0048470
units angstrom
no_reorient  #important for SAPT in psi4, default
symmetry c1  #important for SAPT in psi4, default
}

set PROPERTIES_ORIGIN ["COM"]
properties('MP2/aug-cc-pvtz', properties = ['dipole'])
--------------------------------------------------------------------------

    Molecular point group: c1
  Charge       = -1
  Multiplicity = 1
  Basis Set: AUG-CC-PVTZ
    Blend: AUG-CC-PVTZ
  Basis Set: (AUG-CC-PVTZ AUX)
    Blend: AUG-CC-PVTZ-JKFIT

    Orbital Energies [Eh]
    ---------------------

    Doubly Occupied:

       1A    -20.543309     2A    -20.543259     3A    -20.516313
       4A    -20.516313     5A    -20.513469     6A    -20.513468
       7A    -20.368649     8A    -20.368617     9A    -15.792444
      10A    -15.762697    11A    -15.762696    12A    -11.249945
      13A    -11.241230    14A    -11.241210    15A    -11.228012
      16A    -11.219721    17A    -11.219675    18A    -11.208094
      19A     -1.522214    20A     -1.496961    21A     -1.496677
      22A     -1.322614    23A     -1.296622    24A     -1.296498
      25A     -1.245409    26A     -1.153908    27A     -1.152054
      28A     -1.044047    29A     -1.043667    30A     -0.904889
      31A     -0.897563    32A     -0.895828    33A     -0.760600
      34A     -0.741627    35A     -0.712828    36A     -0.672450
      37A     -0.671803    38A     -0.661500    39A     -0.651929
      40A     -0.643184    41A     -0.635119    42A     -0.629588
      43A     -0.628290    44A     -0.604701    45A     -0.564017
      46A     -0.556191    47A     -0.530335    48A     -0.504143
      49A     -0.492258    50A     -0.465734    51A     -0.436688
      52A     -0.434230    53A     -0.428296    54A     -0.416750
      55A     -0.406093    56A     -0.404289    57A     -0.394464
      58A     -0.391233    59A     -0.358171    60A     -0.353759
      61A     -0.318341    62A     -0.308174    63A     -0.281137
      64A     -0.279572    65A     -0.263137

  @DF-RHF Final Energy: -1028.52558003405875

   => Energetics <=

    Nuclear Repulsion Energy =           1323.9370918805093424
    One-Electron Energy =               -4058.5679355792535716
    Two-Electron Energy =                1706.1052636646854808
    Total Energy =                      -1028.5255800340587484
  Basis Set: (AUG-CC-PVTZ AUX)
    Blend: AUG-CC-PVTZ-RI
    Molecular point group: c1

    Geometry (in Angstrom), charge = -1, multiplicity = 1:

       Center              X                  Y                   Z               Mass
    ------------   -----------------  -----------------  -----------------  -----------------
         O           -2.955519778505     0.884330999395    -0.744542956304    15.994914619570
         O           -2.955576778505    -0.884296000605     0.744457043696    15.994914619570
         O           -0.556094778505    -3.298801000605     0.783372043696    15.994914619570
         O           -0.556013778505     3.298842999395    -0.783292956304    15.994914619570
         O           -1.542432778505    -2.675164000605    -1.095915956304    15.994914619570
         O           -1.542447778505     2.675141999395     1.095924043696    15.994914619570
         O            3.953702221495    -1.098581000605    -0.052012956304    15.994914619570
         O            3.953714221495     1.098537999395     0.051992043696    15.994914619570
         N           -0.828290778505    -2.472202000605    -0.104766956304    14.003074004430
         N           -0.828261778505     2.472210999395     0.104799043696    14.003074004430
         N            3.372228221495    -0.000018000605    -0.000007956304    14.003074004430
         C           -0.914179778505     0.000003999395     0.000005043696    12.000000000000
         C           -0.154068778505    -1.171210000605    -0.021793956304    12.000000000000
         C           -0.154055778505     1.171212999395     0.021808043696    12.000000000000
         C            1.857261221495    -0.000010800605     0.000000343696    12.000000000000
         C            1.235542221495    -1.218188000605    -0.007047956304    12.000000000000
         C            1.235554221495     1.218173999395     0.007053043696    12.000000000000
         C           -2.472649778505     0.000013999395    -0.000026956304    12.000000000000
         H            1.773084221495    -2.159684000605    -0.004841956304     1.007825032230
         H            1.773107221495     2.159663999395     0.004847043696     1.007825032230

  Basis Set: AUG-CC-PVTZ
    Blend: AUG-CC-PVTZ
  Basis Set: (AUG-CC-PVTZ AUX)
    Blend: AUG-CC-PVTZ-JKFIT
	 Reference Energy          =   -1028.5255800340587484 [Eh]
	 Singles Energy            =      -0.0000000000000000 [Eh]
	 Same-Spin Energy          =      -1.0571951588838120 [Eh]
	 Opposite-Spin Energy      =      -2.9534648091701357 [Eh]
	 Correlation Energy        =      -4.0106599680539476 [Eh]
	 Total Energy              =   -1032.5362400021126632 [Eh]

	 ================> DF-SCS-MP2 Energies <==================
	-----------------------------------------------------------
	 SCS Same-Spin Scale       =       0.3333333333333333 [-]
	 SCS Opposite-Spin Scale   =       1.2000000000000000 [-]
	 SCS Same-Spin Energy      =      -0.3523983862946040 [Eh]
	 SCS Opposite-Spin Energy  =      -3.5441577710041625 [Eh]
	 SCS Correlation Energy    =      -3.8965561572987664 [Eh]
	 SCS Total Energy          =   -1032.4221361913575947 [Eh]
	-----------------------------------------------------------

  Dipole Moment: [D]
     X:     8.9015      Y:    -0.0001      Z:     0.0001     Total:     8.9015

*** Psi4 exiting successfully. Buy a developer a beer!
