                               Psi4 1.4a3.dev225

  ==> Input File <==

--------------------------------------------------------------------------
#psi4
#
memory 32 gb

molecule  {
-1 1
  O       -2.9714190     0.8843310    -0.7445430
  O       -2.9714760    -0.8842960     0.7444570
  O       -0.5719940    -3.2988010     0.7833720
  O       -0.5719130     3.2988430    -0.7832930
  O       -1.5583320    -2.6751640    -1.0959160
  O       -1.5583470     2.6751420     1.0959240
  O        3.9378030    -1.0985810    -0.0520130
  O        3.9378150     1.0985380     0.0519920
  N       -0.8441900    -2.4722020    -0.1047670
  N       -0.8441610     2.4722110     0.1047990
  N        3.3563290    -0.0000180    -0.0000080
  C       -0.9300790     0.0000040     0.0000050
  C       -0.1929372    -1.2155318    -0.0246207
  C       -0.1699550     1.1712130     0.0218080
  C        1.8913620    -0.0000110     0.0000000
  C        1.2196430    -1.2181880    -0.0070480
  C        1.2196550     1.2181740     0.0070530
  C       -2.4885490     0.0000140    -0.0000270
  H        1.7571850    -2.1596840    -0.0048420
  H        1.7572080     2.1596640     0.0048470
units angstrom
no_reorient  #important for SAPT in psi4, default
symmetry c1  #important for SAPT in psi4, default
}

set PROPERTIES_ORIGIN ["COM"]
properties('MP2/aug-cc-pvtz', properties = ['dipole'])
--------------------------------------------------------------------------

    Molecular point group: c1
  Charge       = -1
  Multiplicity = 1
  Basis Set: AUG-CC-PVTZ
    Blend: AUG-CC-PVTZ
  Basis Set: (AUG-CC-PVTZ AUX)
    Blend: AUG-CC-PVTZ-JKFIT

    Orbital Energies [Eh]
    ---------------------

    Doubly Occupied:

       1A    -20.541853     2A    -20.541735     3A    -20.517899
       4A    -20.516206     5A    -20.515109     6A    -20.513431
       7A    -20.369353     8A    -20.369164     9A    -15.794039
      10A    -15.764957    11A    -15.763055    12A    -11.248289
      13A    -11.241429    14A    -11.240079    15A    -11.227944
      16A    -11.225793    17A    -11.224280    18A    -11.214170
      19A     -1.525324    20A     -1.503004    21A     -1.496787
      22A     -1.323191    23A     -1.299671    24A     -1.296526
      25A     -1.245949    26A     -1.152667    27A     -1.146089
      28A     -1.051735    29A     -1.045057    30A     -0.913882
      31A     -0.901626    32A     -0.891076    33A     -0.760146
      34A     -0.741497    35A     -0.712983    36A     -0.674048
      37A     -0.672605    38A     -0.663855    39A     -0.653721
      40A     -0.647236    41A     -0.636077    42A     -0.632227
      43A     -0.628806    44A     -0.606252    45A     -0.561117
      46A     -0.552485    47A     -0.519509    48A     -0.502225
      49A     -0.486261    50A     -0.464376    51A     -0.440842
      52A     -0.433527    53A     -0.427338    54A     -0.418338
      55A     -0.411034    56A     -0.404362    57A     -0.397608
      58A     -0.391335    59A     -0.359099    60A     -0.354313
      61A     -0.316261    62A     -0.304791    63A     -0.280926
      64A     -0.278471    65A     -0.263681

  @DF-RHF Final Energy: -1028.52545441617076

   => Energetics <=

    Nuclear Repulsion Energy =           1323.3068036987922369
    One-Electron Energy =               -4057.2270710352704555
    Two-Electron Energy =                1705.3948129203072313
    Total Energy =                      -1028.5254544161707599
  Basis Set: (AUG-CC-PVTZ AUX)
    Blend: AUG-CC-PVTZ-RI
    Molecular point group: c1

    Geometry (in Angstrom), charge = -1, multiplicity = 1:

       Center              X                  Y                   Z               Mass
    ------------   -----------------  -----------------  -----------------  -----------------
         O           -2.956786925516     0.886408721469    -0.744410432494    15.994914619570
         O           -2.956843925516    -0.882218278531     0.744589567506    15.994914619570
         O           -0.557361925516    -3.296723278531     0.783504567506    15.994914619570
         O           -0.557280925516     3.300920721469    -0.783160432494    15.994914619570
         O           -1.543699925516    -2.673086278531    -1.095783432494    15.994914619570
         O           -1.543714925516     2.677219721469     1.096056567506    15.994914619570
         O            3.952435074484    -1.096503278531    -0.051880432494    15.994914619570
         O            3.952447074484     1.100615721469     0.052124567506    15.994914619570
         N           -0.829557925516    -2.470124278531    -0.104634432494    14.003074004430
         N           -0.829528925516     2.474288721469     0.104931567506    14.003074004430
         N            3.370961074484     0.002059721469     0.000124567506    14.003074004430
         C           -0.915446925516     0.002081721469     0.000137567506    12.000000000000
         C           -0.178305125516    -1.213454078531    -0.024488132494    12.000000000000
         C           -0.155322925516     1.173290721469     0.021940567506    12.000000000000
         C            1.905994074484     0.002066721469     0.000132567506    12.000000000000
         C            1.234275074484    -1.216110278531    -0.006915432494    12.000000000000
         C            1.234287074484     1.220251721469     0.007185567506    12.000000000000
         C           -2.473916925516     0.002091721469     0.000105567506    12.000000000000
         H            1.771817074484    -2.157606278531    -0.004709432494     1.007825032230
         H            1.771840074484     2.161741721469     0.004979567506     1.007825032230

  Basis Set: AUG-CC-PVTZ
    Blend: AUG-CC-PVTZ
  Basis Set: (AUG-CC-PVTZ AUX)
    Blend: AUG-CC-PVTZ-JKFIT
	 Reference Energy          =   -1028.5254544161707599 [Eh]
	 Singles Energy            =      -0.0000000000000000 [Eh]
	 Same-Spin Energy          =      -1.0571090497182163 [Eh]
	 Opposite-Spin Energy      =      -2.9532766110388167 [Eh]
	 Correlation Energy        =      -4.0103856607570325 [Eh]
	 Total Energy              =   -1032.5358400769277978 [Eh]

	 ================> DF-SCS-MP2 Energies <==================
	-----------------------------------------------------------
	 SCS Same-Spin Scale       =       0.3333333333333333 [-]
	 SCS Opposite-Spin Scale   =       1.2000000000000000 [-]
	 SCS Same-Spin Energy      =      -0.3523696832394054 [Eh]
	 SCS Opposite-Spin Energy  =      -3.5439319332465797 [Eh]
	 SCS Correlation Energy    =      -3.8963016164859852 [Eh]
	 SCS Total Energy          =   -1032.4217560326567309 [Eh]
	-----------------------------------------------------------

  Dipole Moment: [D]
     X:     8.7853      Y:    -0.0623      Z:    -0.0047     Total:     8.7855

*** Psi4 exiting successfully. Buy a developer a beer!
