                               Psi4 1.4a3.dev225

  ==> Input File <==

--------------------------------------------------------------------------
#psi4
#
memory 32 gb

molecule  {
-1 1
  O       -2.9714190     0.8843310    -0.7445430
  O       -2.9714760    -0.8842960     0.7444570
  O       -0.5719940    -3.2988010     0.7833720
  O       -0.5719130     3.2988430    -0.7832930
  O       -1.5583320    -2.6751640    -1.0959160
  O       -1.5583470     2.6751420     1.0959240
  O        3.9378030    -1.0985810    -0.0520130
  O        3.9378150     1.0985380     0.0519920
  N       -0.8441900    -2.4722020    -0.1047670
  N       -0.8441610     2.4722110     0.1047990
  N        3.3563290    -0.0000180    -0.0000080
  C       -0.9300790     0.0000040     0.0000050
  C       -0.1155351    -1.2550827    -0.0233551
  C       -0.1699550     1.1712130     0.0218080
  C        1.8913620    -0.0000110     0.0000000
  C        1.2196430    -1.2181880    -0.0070480
  C        1.2196550     1.2181740     0.0070530
  C       -2.4885490     0.0000140    -0.0000270
  H        1.7571850    -2.1596840    -0.0048420
  H        1.7572080     2.1596640     0.0048470
units angstrom
no_reorient  #important for SAPT in psi4, default
symmetry c1  #important for SAPT in psi4, default
}

set PROPERTIES_ORIGIN ["COM"]
properties('MP2/aug-cc-pvtz', properties = ['dipole'])
--------------------------------------------------------------------------

    Molecular point group: c1
  Charge       = -1
  Multiplicity = 1
  Basis Set: AUG-CC-PVTZ
    Blend: AUG-CC-PVTZ
  Basis Set: (AUG-CC-PVTZ AUX)
    Blend: AUG-CC-PVTZ-JKFIT

    Orbital Energies [Eh]
    ---------------------

    Doubly Occupied:

       1A    -20.539887     2A    -20.538863     3A    -20.518896
       4A    -20.516217     5A    -20.515270     6A    -20.513338
       7A    -20.371338     8A    -20.371173     9A    -15.792243
      10A    -15.765542    11A    -15.762731    12A    -11.245918
      13A    -11.240607    14A    -11.237659    15A    -11.230502
      16A    -11.226982    17A    -11.224205    18A    -11.214229
      19A     -1.523221    20A     -1.503364    21A     -1.496729
      22A     -1.321088    23A     -1.300255    24A     -1.296514
      25A     -1.247413    26A     -1.154346    27A     -1.147705
      28A     -1.052460    29A     -1.044697    30A     -0.917153
      31A     -0.899818    32A     -0.888367    33A     -0.763526
      34A     -0.738120    35A     -0.713336    36A     -0.675018
      37A     -0.673410    38A     -0.662815    39A     -0.651458
      40A     -0.645633    41A     -0.636493    42A     -0.633037
      43A     -0.628888    44A     -0.606378    45A     -0.560179
      46A     -0.556004    47A     -0.515077    48A     -0.503003
      49A     -0.486722    50A     -0.465765    51A     -0.439247
      52A     -0.433564    53A     -0.427445    54A     -0.418971
      55A     -0.411050    56A     -0.404816    57A     -0.395346
      58A     -0.389795    59A     -0.359399    60A     -0.354544
      61A     -0.317900    62A     -0.309935    63A     -0.283482
      64A     -0.275438    65A     -0.265138

  @DF-RHF Final Energy: -1028.51801919147101

   => Energetics <=

    Nuclear Repulsion Energy =           1322.8797986522470183
    One-Electron Energy =               -4056.3563090912721236
    Two-Electron Energy =                1704.9584912475543206
    Total Energy =                      -1028.5180191914710122
  Basis Set: (AUG-CC-PVTZ AUX)
    Blend: AUG-CC-PVTZ-RI
    Molecular point group: c1

    Geometry (in Angstrom), charge = -1, multiplicity = 1:

       Center              X                  Y                   Z               Mass
    ------------   -----------------  -----------------  -----------------  -----------------
         O           -2.960415373052     0.888262784416    -0.744469761159    15.994914619570
         O           -2.960472373052    -0.880364215584     0.744530238841    15.994914619570
         O           -0.560990373052    -3.294869215584     0.783445238841    15.994914619570
         O           -0.560909373052     3.302774784416    -0.783219761159    15.994914619570
         O           -1.547328373052    -2.671232215584    -1.095842761159    15.994914619570
         O           -1.547343373052     2.679073784416     1.095997238841    15.994914619570
         O            3.948806626948    -1.094649215584    -0.051939761159    15.994914619570
         O            3.948818626948     1.102469784416     0.052065238841    15.994914619570
         N           -0.833186373052    -2.468270215584    -0.104693761159    14.003074004430
         N           -0.833157373052     2.476142784416     0.104872238841    14.003074004430
         N            3.367332626948     0.003913784416     0.000065238841    14.003074004430
         C           -0.919075373052     0.003935784416     0.000078238841    12.000000000000
         C           -0.104531473052    -1.251150915584    -0.023281861159    12.000000000000
         C           -0.158951373052     1.175144784416     0.021881238841    12.000000000000
         C            1.902365626948     0.003920784416     0.000073238841    12.000000000000
         C            1.230646626948    -1.214256215584    -0.006974761159    12.000000000000
         C            1.230658626948     1.222105784416     0.007126238841    12.000000000000
         C           -2.477545373052     0.003945784416     0.000046238841    12.000000000000
         H            1.768188626948    -2.155752215584    -0.004768761159     1.007825032230
         H            1.768211626948     2.163595784416     0.004920238841     1.007825032230

  Basis Set: AUG-CC-PVTZ
    Blend: AUG-CC-PVTZ
  Basis Set: (AUG-CC-PVTZ AUX)
    Blend: AUG-CC-PVTZ-JKFIT
	 Reference Energy          =   -1028.5180191914710122 [Eh]
	 Singles Energy            =      -0.0000000000000000 [Eh]
	 Same-Spin Energy          =      -1.0564953471318357 [Eh]
	 Opposite-Spin Energy      =      -2.9528165132549820 [Eh]
	 Correlation Energy        =      -4.0093118603868181 [Eh]
	 Total Energy              =   -1032.5273310518578000 [Eh]

	 ================> DF-SCS-MP2 Energies <==================
	-----------------------------------------------------------
	 SCS Same-Spin Scale       =       0.3333333333333333 [-]
	 SCS Opposite-Spin Scale   =       1.2000000000000000 [-]
	 SCS Same-Spin Energy      =      -0.3521651157106119 [Eh]
	 SCS Opposite-Spin Energy  =      -3.5433798159059782 [Eh]
	 SCS Correlation Energy    =      -3.8955449316165902 [Eh]
	 SCS Total Energy          =   -1032.4135641230875535 [Eh]
	-----------------------------------------------------------

  Dipole Moment: [D]
     X:     8.7516      Y:    -0.1307      Z:    -0.0294     Total:     8.7526

*** Psi4 exiting successfully. Buy a developer a beer!
