                               Psi4 1.4a3.dev225

  ==> Input File <==

--------------------------------------------------------------------------
#psi4
#
memory 32 gb

molecule  {
-1 1
  O       -2.9714190     0.8843310    -0.7445430
  O       -2.9714760    -0.8842960     0.7444570
  O       -0.5719940    -3.2988010     0.7833720
  O       -0.5719130     3.2988430    -0.7832930
  O       -1.5583320    -2.6751640    -1.0959160
  O       -1.5583470     2.6751420     1.0959240
  O        3.9378030    -1.0985810    -0.0520130
  O        3.9378150     1.0985380     0.0519920
  N       -0.8441900    -2.4722020    -0.1047670
  N       -0.8441610     2.4722110     0.1047990
  N        3.3563290    -0.0000180    -0.0000080
  C       -0.9300790     0.0000040     0.0000050
  C       -0.1699680    -1.1712100    -0.0217940
  C       -0.1699550     1.1712130     0.0218080
  C        1.9113620    -0.0000111    -0.0000001
  C        1.2196430    -1.2181880    -0.0070480
  C        1.2196550     1.2181740     0.0070530
  C       -2.4885490     0.0000140    -0.0000270
  H        1.7571850    -2.1596840    -0.0048420
  H        1.7572080     2.1596640     0.0048470
units angstrom
no_reorient  #important for SAPT in psi4, default
symmetry c1  #important for SAPT in psi4, default
}

set PROPERTIES_ORIGIN ["COM"]
properties('MP2/aug-cc-pvtz', properties = ['dipole'])
--------------------------------------------------------------------------

    Molecular point group: c1
  Charge       = -1
  Multiplicity = 1
  Basis Set: AUG-CC-PVTZ
    Blend: AUG-CC-PVTZ
  Basis Set: (AUG-CC-PVTZ AUX)
    Blend: AUG-CC-PVTZ-JKFIT

    Orbital Energies [Eh]
    ---------------------

    Doubly Occupied:

       1A    -20.541353     2A    -20.541304     3A    -20.516455
       4A    -20.516455     5A    -20.513667     6A    -20.513667
       7A    -20.370347     8A    -20.370314     9A    -15.794160
      10A    -15.763163    11A    -15.763162    12A    -11.248284
      13A    -11.240744    14A    -11.240722    15A    -11.229670
      16A    -11.225036    17A    -11.224993    18A    -11.212338
      19A     -1.526813    20A     -1.497175    21A     -1.496893
      22A     -1.323553    23A     -1.296832    24A     -1.296704
      25A     -1.246985    26A     -1.153627    27A     -1.148306
      28A     -1.052315    29A     -1.042341    30A     -0.914970
      31A     -0.896912    32A     -0.890975    33A     -0.760668
      34A     -0.741598    35A     -0.712518    36A     -0.677193
      37A     -0.673056    38A     -0.660077    39A     -0.651552
      40A     -0.649041    41A     -0.634732    42A     -0.629785
      43A     -0.628063    44A     -0.604441    45A     -0.561704
      46A     -0.558250    47A     -0.517863    48A     -0.505612
      49A     -0.488227    50A     -0.465684    51A     -0.442477
      52A     -0.433514    53A     -0.427720    54A     -0.416991
      55A     -0.408248    56A     -0.403739    57A     -0.394526
      58A     -0.391526    59A     -0.358319    60A     -0.353879
      61A     -0.317173    62A     -0.307394    63A     -0.282743
      64A     -0.280108    65A     -0.264449

  @DF-RHF Final Energy: -1028.52835844482206

   => Energetics <=

    Nuclear Repulsion Energy =           1323.3377753257041149
    One-Electron Energy =               -4057.3060616249754275
    Two-Electron Energy =                1705.4399278544492518
    Total Energy =                      -1028.5283584448220608
  Basis Set: (AUG-CC-PVTZ AUX)
    Blend: AUG-CC-PVTZ-RI
    Molecular point group: c1

    Geometry (in Angstrom), charge = -1, multiplicity = 1:

       Center              X                  Y                   Z               Mass
    ------------   -----------------  -----------------  -----------------  -----------------
         O           -2.958801231172     0.884331013459    -0.744542937553    15.994914619570
         O           -2.958858231172    -0.884295986541     0.744457062447    15.994914619570
         O           -0.559376231172    -3.298800986541     0.783372062447    15.994914619570
         O           -0.559295231172     3.298843013459    -0.783292937553    15.994914619570
         O           -1.545714231172    -2.675163986541    -1.095915937553    15.994914619570
         O           -1.545729231172     2.675142013459     1.095924062447    15.994914619570
         O            3.950420768828    -1.098580986541    -0.052012937553    15.994914619570
         O            3.950432768828     1.098538013459     0.051992062447    15.994914619570
         N           -0.831572231172    -2.472201986541    -0.104766937553    14.003074004430
         N           -0.831543231172     2.472211013459     0.104799062447    14.003074004430
         N            3.368946768828    -0.000017986541    -0.000007937553    14.003074004430
         C           -0.917461231172     0.000004013459     0.000005062447    12.000000000000
         C           -0.157350231172    -1.171209986541    -0.021793937553    12.000000000000
         C           -0.157337231172     1.171213013459     0.021808062447    12.000000000000
         C            1.923979768828    -0.000011086541    -0.000000037553    12.000000000000
         C            1.232260768828    -1.218187986541    -0.007047937553    12.000000000000
         C            1.232272768828     1.218174013459     0.007053062447    12.000000000000
         C           -2.475931231172     0.000014013459    -0.000026937553    12.000000000000
         H            1.769802768828    -2.159683986541    -0.004841937553     1.007825032230
         H            1.769825768828     2.159664013459     0.004847062447     1.007825032230

  Basis Set: AUG-CC-PVTZ
    Blend: AUG-CC-PVTZ
  Basis Set: (AUG-CC-PVTZ AUX)
    Blend: AUG-CC-PVTZ-JKFIT
	 Reference Energy          =   -1028.5283584448220608 [Eh]
	 Singles Energy            =      -0.0000000000000000 [Eh]
	 Same-Spin Energy          =      -1.0568579011641053 [Eh]
	 Opposite-Spin Energy      =      -2.9528988227800790 [Eh]
	 Correlation Energy        =      -4.0097567239441840 [Eh]
	 Total Energy              =   -1032.5381151687663532 [Eh]

	 ================> DF-SCS-MP2 Energies <==================
	-----------------------------------------------------------
	 SCS Same-Spin Scale       =       0.3333333333333333 [-]
	 SCS Opposite-Spin Scale   =       1.2000000000000000 [-]
	 SCS Same-Spin Energy      =      -0.3522859670547017 [Eh]
	 SCS Opposite-Spin Energy  =      -3.5434785873360948 [Eh]
	 SCS Correlation Energy    =      -3.8957645543907966 [Eh]
	 SCS Total Energy          =   -1032.4241229992128410 [Eh]
	-----------------------------------------------------------

  Dipole Moment: [D]
     X:     8.7679      Y:    -0.0001      Z:     0.0001     Total:     8.7679

*** Psi4 exiting successfully. Buy a developer a beer!
