                               Psi4 1.4a3.dev225

  ==> Input File <==

--------------------------------------------------------------------------
#psi4
#
memory 32 gb

molecule  {
-1 1
  O       -2.9714190     0.8843310    -0.7445430
  O       -2.9714760    -0.8842960     0.7444570
  O       -0.5719940    -3.2988010     0.7833720
  O       -0.5719130     3.2988430    -0.7832930
  O       -1.5583320    -2.6751640    -1.0959160
  O       -1.5583470     2.6751420     1.0959240
  O        3.9378030    -1.0985810    -0.0520130
  O        3.9378150     1.0985380     0.0519920
  N       -0.8441900    -2.4722020    -0.1047670
  N       -0.8441610     2.4722110     0.1047990
  N        3.3563290    -0.0000180    -0.0000080
  C       -0.9300790     0.0000040     0.0000050
  C       -0.1689375    -1.1469639    -0.0216911
  C       -0.1699550     1.1712130     0.0218080
  C        1.8913620    -0.0000110     0.0000000
  C        1.2196430    -1.2181880    -0.0070480
  C        1.2196550     1.2181740     0.0070530
  C       -2.4885490     0.0000140    -0.0000270
  H        1.7571850    -2.1596840    -0.0048420
  H        1.7572080     2.1596640     0.0048470
units angstrom
no_reorient  #important for SAPT in psi4, default
symmetry c1  #important for SAPT in psi4, default
}

set PROPERTIES_ORIGIN ["COM"]
properties('MP2/aug-cc-pvtz', properties = ['dipole'])
--------------------------------------------------------------------------

    Molecular point group: c1
  Charge       = -1
  Multiplicity = 1
  Basis Set: AUG-CC-PVTZ
    Blend: AUG-CC-PVTZ
  Basis Set: (AUG-CC-PVTZ AUX)
    Blend: AUG-CC-PVTZ-JKFIT

    Orbital Energies [Eh]
    ---------------------

    Doubly Occupied:

       1A    -20.542771     2A    -20.542661     3A    -20.516443
       4A    -20.515341     5A    -20.513644     6A    -20.512678
       7A    -20.369837     8A    -20.369718     9A    -15.794384
      10A    -15.762997    11A    -15.761577    12A    -11.249294
      13A    -11.241457    14A    -11.240549    15A    -11.229375
      16A    -11.223771    17A    -11.222658    18A    -11.208194
      19A     -1.526078    20A     -1.497008    21A     -1.494185
      22A     -1.323971    23A     -1.296734    24A     -1.295110
      25A     -1.246532    26A     -1.153110    27A     -1.151370
      28A     -1.050399    29A     -1.040542    30A     -0.912427
      31A     -0.897337    32A     -0.889670    33A     -0.760760
      34A     -0.741932    35A     -0.712335    36A     -0.676950
      37A     -0.672857    38A     -0.659207    39A     -0.650709
      40A     -0.647791    41A     -0.634248    42A     -0.629115
      43A     -0.626857    44A     -0.603669    45A     -0.563490
      46A     -0.558694    47A     -0.522912    48A     -0.505734
      49A     -0.490626    50A     -0.465991    51A     -0.441470
      52A     -0.434190    53A     -0.428149    54A     -0.416202
      55A     -0.406583    56A     -0.403424    57A     -0.392351
      58A     -0.391957    59A     -0.357881    60A     -0.353378
      61A     -0.318836    62A     -0.307445    63A     -0.282423
      64A     -0.280824    65A     -0.263984

  @DF-RHF Final Energy: -1028.52787931283410

   => Energetics <=

    Nuclear Repulsion Energy =           1323.6535425089791715
    One-Electron Energy =               -4057.9732545858478261
    Two-Electron Energy =                1705.7918327640345524
    Total Energy =                      -1028.5278793128341022
  Basis Set: (AUG-CC-PVTZ AUX)
    Blend: AUG-CC-PVTZ-RI
    Molecular point group: c1

    Geometry (in Angstrom), charge = -1, multiplicity = 1:

       Center              X                  Y                   Z               Mass
    ------------   -----------------  -----------------  -----------------  -----------------
         O           -2.957911980938     0.883194402635    -0.744547765976    15.994914619570
         O           -2.957968980938    -0.885432597365     0.744452234024    15.994914619570
         O           -0.558486980938    -3.299937597365     0.783367234024    15.994914619570
         O           -0.558405980938     3.297706402635    -0.783297765976    15.994914619570
         O           -1.544824980938    -2.676300597365    -1.095920765976    15.994914619570
         O           -1.544839980938     2.674005402635     1.095919234024    15.994914619570
         O            3.951310019062    -1.099717597365    -0.052017765976    15.994914619570
         O            3.951322019062     1.097401402635     0.051987234024    15.994914619570
         N           -0.830682980938    -2.473338597365    -0.104771765976    14.003074004430
         N           -0.830653980938     2.471074402635     0.104794234024    14.003074004430
         N            3.369836019062    -0.001154597365    -0.000012765976    14.003074004430
         C           -0.916571980938    -0.001132597365     0.000000234024    12.000000000000
         C           -0.155430480938    -1.148100497365    -0.021695865976    12.000000000000
         C           -0.156447980938     1.170076402635     0.021803234024    12.000000000000
         C            1.904869019062    -0.001147597365    -0.000004765976    12.000000000000
         C            1.233150019062    -1.219324597365    -0.007052765976    12.000000000000
         C            1.233162019062     1.217037402635     0.007048234024    12.000000000000
         C           -2.475041980938    -0.001122597365    -0.000031765976    12.000000000000
         H            1.770692019062    -2.160820597365    -0.004846765976     1.007825032230
         H            1.770715019062     2.158527402635     0.004842234024     1.007825032230

  Basis Set: AUG-CC-PVTZ
    Blend: AUG-CC-PVTZ
  Basis Set: (AUG-CC-PVTZ AUX)
    Blend: AUG-CC-PVTZ-JKFIT
	 Reference Energy          =   -1028.5278793128341022 [Eh]
	 Singles Energy            =      -0.0000000000000000 [Eh]
	 Same-Spin Energy          =      -1.0569868383575614 [Eh]
	 Opposite-Spin Energy      =      -2.9531535863081495 [Eh]
	 Correlation Energy        =      -4.0101404246657104 [Eh]
	 Total Energy              =   -1032.5380197374997806 [Eh]

	 ================> DF-SCS-MP2 Energies <==================
	-----------------------------------------------------------
	 SCS Same-Spin Scale       =       0.3333333333333333 [-]
	 SCS Opposite-Spin Scale   =       1.2000000000000000 [-]
	 SCS Same-Spin Energy      =      -0.3523289461191871 [Eh]
	 SCS Opposite-Spin Energy  =      -3.5437843035697791 [Eh]
	 SCS Correlation Energy    =      -3.8961132496889661 [Eh]
	 SCS Total Energy          =   -1032.4239925625231535 [Eh]
	-----------------------------------------------------------

  Dipole Moment: [D]
     X:     8.8313      Y:     0.0406      Z:     0.0049     Total:     8.8314

*** Psi4 exiting successfully. Buy a developer a beer!
