                               Psi4 1.4a3.dev225

  ==> Input File <==

--------------------------------------------------------------------------
#psi4
#
memory 32 gb

molecule  {
-1 1
  O       -2.9714190     0.8843310    -0.7445430
  O       -2.9714760    -0.8842960     0.7444570
  O       -0.5719940    -3.2988010     0.7833720
  O       -0.5719130     3.2988430    -0.7832930
  O       -1.5583320    -2.6751640    -1.0959160
  O       -1.5583470     2.6751420     1.0959240
  O        3.9378030    -1.0985810    -0.0520130
  O        3.9378150     1.0985380     0.0519920
  N       -0.8441900    -2.4722020    -0.1047670
  N       -0.8441610     2.4722110     0.1047990
  N        3.3563290    -0.0000180    -0.0000080
  C       -0.9300790     0.0000040     0.0000050
  C       -0.1699680    -1.1712100    -0.0217940
  C       -0.1699550     1.1712130     0.0218080
  C        1.6913620    -0.0000100     0.0000011
  C        1.2196430    -1.2181880    -0.0070480
  C        1.2196550     1.2181740     0.0070530
  C       -2.4885490     0.0000140    -0.0000270
  H        1.7571850    -2.1596840    -0.0048420
  H        1.7572080     2.1596640     0.0048470
units angstrom
no_reorient  #important for SAPT in psi4, default
symmetry c1  #important for SAPT in psi4, default
}

set PROPERTIES_ORIGIN ["COM"]
properties('MP2/aug-cc-pvtz', properties = ['dipole'])
--------------------------------------------------------------------------

    Molecular point group: c1
  Charge       = -1
  Multiplicity = 1
  Basis Set: AUG-CC-PVTZ
    Blend: AUG-CC-PVTZ
  Basis Set: (AUG-CC-PVTZ AUX)
    Blend: AUG-CC-PVTZ-JKFIT

    Orbital Energies [Eh]
    ---------------------

    Doubly Occupied:

       1A    -20.538110     2A    -20.538060     3A    -20.518034
       4A    -20.518033     5A    -20.515045     6A    -20.515045
       7A    -20.367608     8A    -20.367576     9A    -15.775469
      10A    -15.763851    11A    -15.763851    12A    -11.255653
      13A    -11.245756    14A    -11.245740    15A    -11.227208
      16A    -11.213651    17A    -11.213589    18A    -11.203459
      19A     -1.507331    20A     -1.498548    21A     -1.498256
      22A     -1.313123    23A     -1.298160    24A     -1.298043
      25A     -1.244670    26A     -1.172430    27A     -1.151208
      28A     -1.053054    29A     -1.034859    30A     -0.915339
      31A     -0.899283    32A     -0.875949    33A     -0.757274
      34A     -0.743225    35A     -0.714459    36A     -0.672200
      37A     -0.669505    38A     -0.657771    39A     -0.651193
      40A     -0.634434    41A     -0.631301    42A     -0.631060
      43A     -0.624349    44A     -0.606637    45A     -0.578137
      46A     -0.554459    47A     -0.547507    48A     -0.506945
      49A     -0.503866    50A     -0.467073    51A     -0.434234
      52A     -0.424627    53A     -0.423035    54A     -0.417949
      55A     -0.406798    56A     -0.396055    57A     -0.392982
      58A     -0.385096    59A     -0.359680    60A     -0.355319
      61A     -0.322169    62A     -0.313475    63A     -0.280401
      64A     -0.280172    65A     -0.262635

  @DF-RHF Final Energy: -1028.48989145319729

   => Energetics <=

    Nuclear Repulsion Energy =           1325.5192113204689122
    One-Electron Energy =               -4061.7141805386213491
    Two-Electron Energy =                1707.7050777649551492
    Total Energy =                      -1028.4898914531972878
  Basis Set: (AUG-CC-PVTZ AUX)
    Blend: AUG-CC-PVTZ-RI
    Molecular point group: c1

    Geometry (in Angstrom), charge = -1, multiplicity = 1:

       Center              X                  Y                   Z               Mass
    ------------   -----------------  -----------------  -----------------  -----------------
         O           -2.948488094217     0.884330961893    -0.744542993807    15.994914619570
         O           -2.948545094217    -0.884296038107     0.744457006193    15.994914619570
         O           -0.549063094217    -3.298801038107     0.783372006193    15.994914619570
         O           -0.548982094217     3.298842961893    -0.783292993807    15.994914619570
         O           -1.535401094217    -2.675164038107    -1.095915993807    15.994914619570
         O           -1.535416094217     2.675141961893     1.095924006193    15.994914619570
         O            3.960733905783    -1.098581038107    -0.052012993807    15.994914619570
         O            3.960745905783     1.098537961893     0.051992006193    15.994914619570
         N           -0.821259094217    -2.472202038107    -0.104766993807    14.003074004430
         N           -0.821230094217     2.472210961893     0.104799006193    14.003074004430
         N            3.379259905783    -0.000018038107    -0.000007993807    14.003074004430
         C           -0.907148094217     0.000003961893     0.000005006193    12.000000000000
         C           -0.147037094217    -1.171210038107    -0.021793993807    12.000000000000
         C           -0.147024094217     1.171212961893     0.021808006193    12.000000000000
         C            1.714292905783    -0.000010038107     0.000001106193    12.000000000000
         C            1.242573905783    -1.218188038107    -0.007047993807    12.000000000000
         C            1.242585905783     1.218173961893     0.007053006193    12.000000000000
         C           -2.465618094217     0.000013961893    -0.000026993807    12.000000000000
         H            1.780115905783    -2.159684038107    -0.004841993807     1.007825032230
         H            1.780138905783     2.159663961893     0.004847006193     1.007825032230

  Basis Set: AUG-CC-PVTZ
    Blend: AUG-CC-PVTZ
  Basis Set: (AUG-CC-PVTZ AUX)
    Blend: AUG-CC-PVTZ-JKFIT
	 Reference Energy          =   -1028.4898914531972878 [Eh]
	 Singles Energy            =      -0.0000000000000000 [Eh]
	 Same-Spin Energy          =      -1.0589291631270794 [Eh]
	 Opposite-Spin Energy      =      -2.9559868699370933 [Eh]
	 Correlation Energy        =      -4.0149160330641731 [Eh]
	 Total Energy              =   -1032.5048074862613703 [Eh]

	 ================> DF-SCS-MP2 Energies <==================
	-----------------------------------------------------------
	 SCS Same-Spin Scale       =       0.3333333333333333 [-]
	 SCS Opposite-Spin Scale   =       1.2000000000000000 [-]
	 SCS Same-Spin Energy      =      -0.3529763877090265 [Eh]
	 SCS Opposite-Spin Energy  =      -3.5471842439245118 [Eh]
	 SCS Correlation Energy    =      -3.9001606316335384 [Eh]
	 SCS Total Energy          =   -1032.3900520848308133 [Eh]
	-----------------------------------------------------------

  Dipole Moment: [D]
     X:     8.8638      Y:    -0.0001      Z:     0.0001     Total:     8.8638

*** Psi4 exiting successfully. Buy a developer a beer!
