                               Psi4 1.4a3.dev225

  ==> Input File <==

--------------------------------------------------------------------------
#psi4
#
memory 32 gb

molecule  {
-1 1
  O       -2.9714190     0.8843310    -0.7445430
  O       -2.9714760    -0.8842960     0.7444570
  O       -0.5719940    -3.2988010     0.7833720
  O       -0.5719130     3.2988430    -0.7832930
  O       -1.5583320    -2.6751640    -1.0959160
  O       -1.5583470     2.6751420     1.0959240
  O        3.9378030    -1.0985810    -0.0520130
  O        3.9378150     1.0985380     0.0519920
  N       -0.8441900    -2.4722020    -0.1047670
  N       -0.8441610     2.4722110     0.1047990
  N        3.3563290    -0.0000180    -0.0000080
  C       -0.9300790     0.0000040     0.0000050
  C       -0.1427516    -1.2131463    -0.0225745
  C       -0.1699550     1.1712130     0.0218080
  C        1.8913620    -0.0000110     0.0000000
  C        1.2196430    -1.2181880    -0.0070480
  C        1.2196550     1.2181740     0.0070530
  C       -2.4885490     0.0000140    -0.0000270
  H        1.7571850    -2.1596840    -0.0048420
  H        1.7572080     2.1596640     0.0048470
units angstrom
no_reorient  #important for SAPT in psi4, default
symmetry c1  #important for SAPT in psi4, default
}

set PROPERTIES_ORIGIN ["COM"]
properties('MP2/aug-cc-pvtz', properties = ['dipole'])
--------------------------------------------------------------------------

    Molecular point group: c1
  Charge       = -1
  Multiplicity = 1
  Basis Set: AUG-CC-PVTZ
    Blend: AUG-CC-PVTZ
  Basis Set: (AUG-CC-PVTZ AUX)
    Blend: AUG-CC-PVTZ-JKFIT

    Orbital Energies [Eh]
    ---------------------

    Doubly Occupied:

       1A    -20.541069     2A    -20.540533     3A    -20.517631
       4A    -20.516301     5A    -20.514392     6A    -20.513454
       7A    -20.370565     8A    -20.370460     9A    -15.793187
      10A    -15.764333    11A    -15.762859    12A    -11.247293
      13A    -11.240806    14A    -11.239173    15A    -11.229800
      16A    -11.225181    17A    -11.218767    18A    -11.218121
      19A     -1.524443    20A     -1.500108    21A     -1.496827
      22A     -1.322320    23A     -1.298433    24A     -1.296592
      25A     -1.246925    26A     -1.153726    27A     -1.148534
      28A     -1.048026    29A     -1.046330    30A     -0.913699
      31A     -0.897521    32A     -0.892023    33A     -0.762047
      34A     -0.739809    35A     -0.713019    36A     -0.674474
      37A     -0.673053    38A     -0.662146    39A     -0.651488
      40A     -0.646550    41A     -0.635877    42A     -0.631259
      43A     -0.628806    44A     -0.605429    45A     -0.560814
      46A     -0.557190    47A     -0.518299    48A     -0.504877
      49A     -0.487796    50A     -0.465808    51A     -0.440199
      52A     -0.433493    53A     -0.427874    54A     -0.417924
      55A     -0.409361    56A     -0.404378    57A     -0.395366
      58A     -0.390713    59A     -0.358753    60A     -0.354206
      61A     -0.315617    62A     -0.310238    63A     -0.282927
      64A     -0.277721    65A     -0.264573

  @DF-RHF Final Energy: -1028.52605626067111

   => Energetics <=

    Nuclear Repulsion Energy =           1323.1745773164300317
    One-Electron Energy =               -4056.9782370515326875
    Two-Electron Energy =                1705.2776034744317712
    Total Energy =                      -1028.5260562606711119
  Basis Set: (AUG-CC-PVTZ AUX)
    Blend: AUG-CC-PVTZ-RI
    Molecular point group: c1

    Geometry (in Angstrom), charge = -1, multiplicity = 1:

       Center              X                  Y                   Z               Mass
    ------------   -----------------  -----------------  -----------------  -----------------
         O           -2.959139520816     0.886296894250    -0.744506354044    15.994914619570
         O           -2.959196520816    -0.882330105750     0.744493645956    15.994914619570
         O           -0.559714520816    -3.296835105750     0.783408645956    15.994914619570
         O           -0.559633520816     3.300808894250    -0.783256354044    15.994914619570
         O           -1.546052520816    -2.673198105750    -1.095879354044    15.994914619570
         O           -1.546067520816     2.677107894250     1.095960645956    15.994914619570
         O            3.950082479184    -1.096615105750    -0.051976354044    15.994914619570
         O            3.950094479184     1.100503894250     0.052028645956    15.994914619570
         N           -0.831910520816    -2.470236105750    -0.104730354044    14.003074004430
         N           -0.831881520816     2.474176894250     0.104835645956    14.003074004430
         N            3.368608479184     0.001947894250     0.000028645956    14.003074004430
         C           -0.917799520816     0.001969894250     0.000041645956    12.000000000000
         C           -0.130472120816    -1.211180405750    -0.022537854044    12.000000000000
         C           -0.157675520816     1.173178894250     0.021844645956    12.000000000000
         C            1.903641479184     0.001954894250     0.000036645956    12.000000000000
         C            1.231922479184    -1.216222105750    -0.007011354044    12.000000000000
         C            1.231934479184     1.220139894250     0.007089645956    12.000000000000
         C           -2.476269520816     0.001979894250     0.000009645956    12.000000000000
         H            1.769464479184    -2.157718105750    -0.004805354044     1.007825032230
         H            1.769487479184     2.161629894250     0.004883645956     1.007825032230

  Basis Set: AUG-CC-PVTZ
    Blend: AUG-CC-PVTZ
  Basis Set: (AUG-CC-PVTZ AUX)
    Blend: AUG-CC-PVTZ-JKFIT
	 Reference Energy          =   -1028.5260562606711119 [Eh]
	 Singles Energy            =      -0.0000000000000000 [Eh]
	 Same-Spin Energy          =      -1.0567218190252248 [Eh]
	 Opposite-Spin Energy      =      -2.9527833297639647 [Eh]
	 Correlation Energy        =      -4.0095051487891897 [Eh]
	 Total Energy              =   -1032.5355614094603425 [Eh]

	 ================> DF-SCS-MP2 Energies <==================
	-----------------------------------------------------------
	 SCS Same-Spin Scale       =       0.3333333333333333 [-]
	 SCS Opposite-Spin Scale   =       1.2000000000000000 [-]
	 SCS Same-Spin Energy      =      -0.3522406063417416 [Eh]
	 SCS Opposite-Spin Energy  =      -3.5433399957167575 [Eh]
	 SCS Correlation Energy    =      -3.8955806020584989 [Eh]
	 SCS Total Energy          =   -1032.4216368627296561 [Eh]
	-----------------------------------------------------------

  Dipole Moment: [D]
     X:     8.7853      Y:    -0.0686      Z:    -0.0149     Total:     8.7856

*** Psi4 exiting successfully. Buy a developer a beer!
