                               Psi4 1.4a3.dev225

  ==> Input File <==

--------------------------------------------------------------------------
#psi4
#
memory 32 gb

molecule  {
-1 1
  O       -2.9714190     0.8843310    -0.7445430
  O       -2.9714760    -0.8842960     0.7444570
  O       -0.5719940    -3.2988010     0.7833720
  O       -0.5719130     3.2988430    -0.7832930
  O       -1.5583320    -2.6751640    -1.0959160
  O       -1.5583470     2.6751420     1.0959240
  O        3.9378030    -1.0985810    -0.0520130
  O        3.9378150     1.0985380     0.0519920
  N       -0.8441900    -2.4722020    -0.1047670
  N       -0.8441610     2.4722110     0.1047990
  N        3.3563290    -0.0000180    -0.0000080
  C       -0.9300790     0.0000040     0.0000050
  C       -0.1699680    -1.1712100    -0.0217940
  C       -0.1699550     1.1712130     0.0218080
  C        1.8913620    -0.0000110     0.0000000
  C        1.2196430    -1.2181880    -0.0070480
  C        1.2196550     1.2181740     0.0070530
  C       -2.4114527     0.1411887    -0.1188793
  H        1.7571850    -2.1596840    -0.0048420
  H        1.7572080     2.1596640     0.0048470
units angstrom
no_reorient  #important for SAPT in psi4, default
symmetry c1  #important for SAPT in psi4, default
}

set PROPERTIES_ORIGIN ["COM"]
properties('MP2/aug-cc-pvtz', properties = ['dipole'])
--------------------------------------------------------------------------

    Molecular point group: c1
  Charge       = -1
  Multiplicity = 1
  Basis Set: AUG-CC-PVTZ
    Blend: AUG-CC-PVTZ
  Basis Set: (AUG-CC-PVTZ AUX)
    Blend: AUG-CC-PVTZ-JKFIT

    Orbital Energies [Eh]
    ---------------------

    Doubly Occupied:

       1A    -20.544684     2A    -20.544452     3A    -20.525039
       4A    -20.521726     5A    -20.511034     6A    -20.508365
       7A    -20.407059     8A    -20.325221     9A    -15.796435
      10A    -15.770745    11A    -15.759235    12A    -11.252347
      13A    -11.246527    14A    -11.244825    15A    -11.227066
      16A    -11.225855    17A    -11.219955    18A    -11.219197
      19A     -1.527968    20A     -1.505885    21A     -1.491421
      22A     -1.325817    23A     -1.323517    24A     -1.304955
      25A     -1.291051    26A     -1.156241    27A     -1.069412
      28A     -1.049957    29A     -1.039659    30A     -0.917285
      31A     -0.903936    32A     -0.895205    33A     -0.766974
      34A     -0.745563    35A     -0.714542    36A     -0.694347
      37A     -0.675106    38A     -0.663607    39A     -0.654027
      40A     -0.649827    41A     -0.639378    42A     -0.634522
      43A     -0.624632    44A     -0.607560    45A     -0.568321
      46A     -0.564561    47A     -0.534096    48A     -0.525067
      49A     -0.496145    50A     -0.462151    51A     -0.451597
      52A     -0.443487    53A     -0.433669    54A     -0.420626
      55A     -0.412486    56A     -0.403307    57A     -0.395196
      58A     -0.393640    59A     -0.363704    60A     -0.351143
      61A     -0.315012    62A     -0.310249    63A     -0.275819
      64A     -0.241063    65A     -0.227606

  @DF-RHF Final Energy: -1028.47081497376621

   => Energetics <=

    Nuclear Repulsion Energy =           1324.8733233994848888
    One-Electron Energy =               -4060.0660582537780101
    Two-Electron Energy =                1706.7219198805269116
    Total Energy =                      -1028.4708149737662097
  Basis Set: (AUG-CC-PVTZ AUX)
    Blend: AUG-CC-PVTZ-RI
    Molecular point group: c1

    Geometry (in Angstrom), charge = -1, multiplicity = 1:

       Center              X                  Y                   Z               Mass
    ------------   -----------------  -----------------  -----------------  -----------------
         O           -2.961477785543     0.877713035972    -0.738971396571    15.994914619570
         O           -2.961534785543    -0.890913964028     0.750028603429    15.994914619570
         O           -0.562052785543    -3.305418964028     0.788943603429    15.994914619570
         O           -0.561971785543     3.292225035972    -0.777721396571    15.994914619570
         O           -1.548390785543    -2.681781964028    -1.090344396571    15.994914619570
         O           -1.548405785543     2.668524035972     1.101495603429    15.994914619570
         O            3.947744214457    -1.105198964028    -0.046441396571    15.994914619570
         O            3.947756214457     1.091920035972     0.057563603429    15.994914619570
         N           -0.834248785543    -2.478819964028    -0.099195396571    14.003074004430
         N           -0.834219785543     2.465593035972     0.110370603429    14.003074004430
         N            3.366270214457    -0.006635964028     0.005563603429    14.003074004430
         C           -0.920137785543    -0.006613964028     0.005576603429    12.000000000000
         C           -0.160026785543    -1.177827964028    -0.016222396571    12.000000000000
         C           -0.160013785543     1.164595035972     0.027379603429    12.000000000000
         C            1.901303214457    -0.006628964028     0.005571603429    12.000000000000
         C            1.229584214457    -1.224805964028    -0.001476396571    12.000000000000
         C            1.229596214457     1.211556035972     0.012624603429    12.000000000000
         C           -2.401511485543     0.134570735972    -0.113307696571    12.000000000000
         H            1.767126214457    -2.166301964028     0.000729603429     1.007825032230
         H            1.767149214457     2.153046035972     0.010418603429     1.007825032230

  Basis Set: AUG-CC-PVTZ
    Blend: AUG-CC-PVTZ
  Basis Set: (AUG-CC-PVTZ AUX)
    Blend: AUG-CC-PVTZ-JKFIT
	 Reference Energy          =   -1028.4708149737662097 [Eh]
	 Singles Energy            =      -0.0000000000000000 [Eh]
	 Same-Spin Energy          =      -1.0588622389062419 [Eh]
	 Opposite-Spin Energy      =      -2.9577800940847880 [Eh]
	 Correlation Energy        =      -4.0166423329910295 [Eh]
	 Total Energy              =   -1032.4874573067572783 [Eh]

	 ================> DF-SCS-MP2 Energies <==================
	-----------------------------------------------------------
	 SCS Same-Spin Scale       =       0.3333333333333333 [-]
	 SCS Opposite-Spin Scale   =       1.2000000000000000 [-]
	 SCS Same-Spin Energy      =      -0.3529540796354139 [Eh]
	 SCS Opposite-Spin Energy  =      -3.5493361129017456 [Eh]
	 SCS Correlation Energy    =      -3.9022901925371594 [Eh]
	 SCS Total Energy          =   -1032.3731051663032758 [Eh]
	-----------------------------------------------------------

  Dipole Moment: [D]
     X:     9.0964      Y:     1.1077      Z:    -1.0793     Total:     9.2269

*** Psi4 exiting successfully. Buy a developer a beer!
