                               Psi4 1.4a3.dev225

  ==> Input File <==

--------------------------------------------------------------------------
#psi4
#
memory 32 gb

molecule  {
-1 1
  O       -2.9714190     0.8843310    -0.7445430
  O       -2.9714760    -0.8842960     0.7444570
  O       -0.5719940    -3.2988010     0.7833720
  O       -0.5719130     3.2988430    -0.7832930
  O       -1.5583320    -2.6751640    -1.0959160
  O       -1.5583470     2.6751420     1.0959240
  O        3.9378030    -1.0985810    -0.0520130
  O        3.9378150     1.0985380     0.0519920
  N       -0.8441900    -2.4722020    -0.1047670
  N       -0.8441610     2.4722110     0.1047990
  N        3.3563290    -0.0000180    -0.0000080
  C       -0.9300790     0.0000040     0.0000050
  C       -0.1699680    -1.1712100    -0.0217940
  C       -0.1699550     1.1712130     0.0218080
  C        1.8913620    -0.0000110     0.0000000
  C        1.2196430    -1.2181880    -0.0070480
  C        1.2196550     1.2181740     0.0070530
  C       -2.5078231    -0.0352797     0.0296861
  H        1.7571850    -2.1596840    -0.0048420
  H        1.7572080     2.1596640     0.0048470
units angstrom
no_reorient  #important for SAPT in psi4, default
symmetry c1  #important for SAPT in psi4, default
}

set PROPERTIES_ORIGIN ["COM"]
properties('MP2/aug-cc-pvtz', properties = ['dipole'])
--------------------------------------------------------------------------

    Molecular point group: c1
  Charge       = -1
  Multiplicity = 1
  Basis Set: AUG-CC-PVTZ
    Blend: AUG-CC-PVTZ
  Basis Set: (AUG-CC-PVTZ AUX)
    Blend: AUG-CC-PVTZ-JKFIT

    Orbital Energies [Eh]
    ---------------------

    Doubly Occupied:

       1A    -20.541217     2A    -20.541141     3A    -20.517674
       4A    -20.514834     5A    -20.513936     6A    -20.511259
       7A    -20.382520     8A    -20.360468     9A    -15.793107
      10A    -15.763789    11A    -15.760705    12A    -11.247222
      13A    -11.239095    14A    -11.238844    15A    -11.229966
      16A    -11.222340    17A    -11.221965    18A    -11.208193
      19A     -1.524649    20A     -1.498286    21A     -1.494429
      22A     -1.322551    23A     -1.298084    24A     -1.294248
      25A     -1.263724    26A     -1.153182    27A     -1.144951
      28A     -1.047906    29A     -1.041360    30A     -0.910806
      31A     -0.894317    32A     -0.891560    33A     -0.759125
      34A     -0.740614    35A     -0.711733    36A     -0.672691
      37A     -0.670400    38A     -0.659503    39A     -0.650385
      40A     -0.646489    41A     -0.634253    42A     -0.629815
      43A     -0.626651    44A     -0.604024    45A     -0.560967
      46A     -0.558232    47A     -0.520272    48A     -0.510645
      49A     -0.488597    50A     -0.468258    51A     -0.440169
      52A     -0.437427    53A     -0.429728    54A     -0.416501
      55A     -0.407423    56A     -0.403400    57A     -0.394172
      58A     -0.390758    59A     -0.358298    60A     -0.353391
      61A     -0.317891    62A     -0.306288    63A     -0.287125
      64A     -0.273703    65A     -0.264535

  @DF-RHF Final Energy: -1028.52615267669557

   => Energetics <=

    Nuclear Repulsion Energy =           1323.3038717590241049
    One-Electron Energy =               -4057.2964688110932912
    Two-Electron Energy =                1705.4664443753733849
    Total Energy =                      -1028.5261526766955740
  Basis Set: (AUG-CC-PVTZ AUX)
    Blend: AUG-CC-PVTZ-RI
    Molecular point group: c1

    Geometry (in Angstrom), charge = -1, multiplicity = 1:

       Center              X                  Y                   Z               Mass
    ------------   -----------------  -----------------  -----------------  -----------------
         O           -2.956960144026     0.885985503143    -0.745935829830    15.994914619570
         O           -2.957017144026    -0.882641496857     0.743064170170    15.994914619570
         O           -0.557535144026    -3.297146496857     0.781979170170    15.994914619570
         O           -0.557454144026     3.300497503143    -0.784685829830    15.994914619570
         O           -1.543873144026    -2.673509496857    -1.097308829830    15.994914619570
         O           -1.543888144026     2.676796503143     1.094531170170    15.994914619570
         O            3.952261855974    -1.096926496857    -0.053405829830    15.994914619570
         O            3.952273855974     1.100192503143     0.050599170170    15.994914619570
         N           -0.829731144026    -2.470547496857    -0.106159829830    14.003074004430
         N           -0.829702144026     2.473865503143     0.103406170170    14.003074004430
         N            3.370787855974     0.001636503143    -0.001400829830    14.003074004430
         C           -0.915620144026     0.001658503143    -0.001387829830    12.000000000000
         C           -0.155509144026    -1.169555496857    -0.023186829830    12.000000000000
         C           -0.155496144026     1.172867503143     0.020415170170    12.000000000000
         C            1.905820855974     0.001643503143    -0.001392829830    12.000000000000
         C            1.234101855974    -1.216533496857    -0.008440829830    12.000000000000
         C            1.234113855974     1.219828503143     0.005660170170    12.000000000000
         C           -2.493364244026    -0.033625196857     0.028293270170    12.000000000000
         H            1.771643855974    -2.158029496857    -0.006234829830     1.007825032230
         H            1.771666855974     2.161318503143     0.003454170170     1.007825032230

  Basis Set: AUG-CC-PVTZ
    Blend: AUG-CC-PVTZ
  Basis Set: (AUG-CC-PVTZ AUX)
    Blend: AUG-CC-PVTZ-JKFIT
	 Reference Energy          =   -1028.5261526766955740 [Eh]
	 Singles Energy            =      -0.0000000000000000 [Eh]
	 Same-Spin Energy          =      -1.0564543965092723 [Eh]
	 Opposite-Spin Energy      =      -2.9518629387743238 [Eh]
	 Correlation Energy        =      -4.0083173352835963 [Eh]
	 Total Energy              =   -1032.5344700119792378 [Eh]

	 ================> DF-SCS-MP2 Energies <==================
	-----------------------------------------------------------
	 SCS Same-Spin Scale       =       0.3333333333333333 [-]
	 SCS Opposite-Spin Scale   =       1.2000000000000000 [-]
	 SCS Same-Spin Energy      =      -0.3521514655030907 [Eh]
	 SCS Opposite-Spin Energy  =      -3.5422355265291885 [Eh]
	 SCS Correlation Energy    =      -3.8943869920322793 [Eh]
	 SCS Total Energy          =   -1032.4205396687277698 [Eh]
	-----------------------------------------------------------

  Dipole Moment: [D]
     X:     8.6421      Y:    -0.3010      Z:     0.2848     Total:     8.6521

*** Psi4 exiting successfully. Buy a developer a beer!
