                               Psi4 1.4a3.dev225

  ==> Input File <==

--------------------------------------------------------------------------
#psi4
#
memory 32 gb

molecule  {
-1 1
  O       -2.9714190     0.8843310    -0.7445430
  O       -2.9714760    -0.8842960     0.7444570
  O       -0.5719940    -3.2988010     0.7833720
  O       -0.5719130     3.2988430    -0.7832930
  O       -1.5583320    -2.6751640    -1.0959160
  O       -1.5583470     2.6751420     1.0959240
  O        3.9378030    -1.0985810    -0.0520130
  O        3.9378150     1.0985380     0.0519920
  N       -0.8441900    -2.4722020    -0.1047670
  N       -0.8441610     2.4722110     0.1047990
  N        3.3563290    -0.0000180    -0.0000080
  C       -0.9300790     0.0000040     0.0000050
  C       -0.1699680    -1.1712100    -0.0217940
  C       -0.1699550     1.1712130     0.0218080
  C        1.8913620    -0.0000110     0.0000000
  C        1.2196430    -1.2181880    -0.0070480
  C        1.2196550     1.2181740     0.0070530
  C       -2.4962577     0.0141316    -0.0119127
  H        1.7571850    -2.1596840    -0.0048420
  H        1.7572080     2.1596640     0.0048470
units angstrom
no_reorient  #important for SAPT in psi4, default
symmetry c1  #important for SAPT in psi4, default
}

set PROPERTIES_ORIGIN ["COM"]
properties('MP2/aug-cc-pvtz', properties = ['dipole'])
--------------------------------------------------------------------------

    Molecular point group: c1
  Charge       = -1
  Multiplicity = 1
  Basis Set: AUG-CC-PVTZ
    Blend: AUG-CC-PVTZ
  Basis Set: (AUG-CC-PVTZ AUX)
    Blend: AUG-CC-PVTZ-JKFIT

    Orbital Energies [Eh]
    ---------------------

    Doubly Occupied:

       1A    -20.541849     2A    -20.541795     3A    -20.516883
       4A    -20.515395     5A    -20.514065     6A    -20.512641
       7A    -20.374800     8A    -20.366006     9A    -15.793731
      10A    -15.763301    11A    -15.762073    12A    -11.248159
      13A    -11.240133    14A    -11.240021    15A    -11.229559
      16A    -11.222966    17A    -11.222816    18A    -11.209919
      19A     -1.525273    20A     -1.497473    21A     -1.495915
      22A     -1.323165    23A     -1.297217    24A     -1.295690
      25A     -1.250484    26A     -1.154699    27A     -1.148578
      28A     -1.048876    29A     -1.042197    30A     -0.911664
      31A     -0.895698    32A     -0.892292    33A     -0.760131
      34A     -0.741176    35A     -0.712269    36A     -0.674141
      37A     -0.672177    38A     -0.660120    39A     -0.651145
      40A     -0.647099    41A     -0.634588    42A     -0.629636
      43A     -0.627700    44A     -0.604264    45A     -0.561693
      46A     -0.557595    47A     -0.521109    48A     -0.506431
      49A     -0.488907    50A     -0.466899    51A     -0.440763
      52A     -0.434414    53A     -0.428827    54A     -0.416682
      55A     -0.407518    56A     -0.403723    57A     -0.394367
      58A     -0.391295    59A     -0.358156    60A     -0.353702
      61A     -0.317770    62A     -0.307044    63A     -0.283799
      64A     -0.278125    65A     -0.264913

  @DF-RHF Final Energy: -1028.52859830239913

   => Energetics <=

    Nuclear Repulsion Energy =           1323.4115388831369273
    One-Electron Energy =               -4057.4932500643967614
    Two-Electron Energy =                1705.5531128788607020
    Total Energy =                      -1028.5285983023991321
  Basis Set: (AUG-CC-PVTZ AUX)
    Blend: AUG-CC-PVTZ-RI
    Molecular point group: c1

    Geometry (in Angstrom), charge = -1, multiplicity = 1:

       Center              X                  Y                   Z               Mass
    ------------   -----------------  -----------------  -----------------  -----------------
         O           -2.957502305636     0.883669205397    -0.743985765641    15.994914619570
         O           -2.957559305636    -0.884957794603     0.745014234359    15.994914619570
         O           -0.558077305636    -3.299462794603     0.783929234359    15.994914619570
         O           -0.557996305636     3.298181205397    -0.782735765641    15.994914619570
         O           -1.544415305636    -2.675825794603    -1.095358765641    15.994914619570
         O           -1.544430305636     2.674480205397     1.096481234359    15.994914619570
         O            3.951719694364    -1.099242794603    -0.051455765641    15.994914619570
         O            3.951731694364     1.097876205397     0.052549234359    15.994914619570
         N           -0.830273305636    -2.472863794603    -0.104209765641    14.003074004430
         N           -0.830244305636     2.471549205397     0.105356234359    14.003074004430
         N            3.370245694364    -0.000679794603     0.000549234359    14.003074004430
         C           -0.916162305636    -0.000657794603     0.000562234359    12.000000000000
         C           -0.156051305636    -1.171871794603    -0.021236765641    12.000000000000
         C           -0.156038305636     1.170551205397     0.022365234359    12.000000000000
         C            1.905278694364    -0.000672794603     0.000557234359    12.000000000000
         C            1.233559694364    -1.218849794603    -0.006490765641    12.000000000000
         C            1.233571694364     1.217512205397     0.007610234359    12.000000000000
         C           -2.482341005636     0.013469805397    -0.011355465641    12.000000000000
         H            1.771101694364    -2.160345794603    -0.004284765641     1.007825032230
         H            1.771124694364     2.159002205397     0.005404234359     1.007825032230

  Basis Set: AUG-CC-PVTZ
    Blend: AUG-CC-PVTZ
  Basis Set: (AUG-CC-PVTZ AUX)
    Blend: AUG-CC-PVTZ-JKFIT
	 Reference Energy          =   -1028.5285983023991321 [Eh]
	 Singles Energy            =      -0.0000000000000000 [Eh]
	 Same-Spin Energy          =      -1.0567419604002719 [Eh]
	 Opposite-Spin Energy      =      -2.9525655320062643 [Eh]
	 Correlation Energy        =      -4.0093074924065366 [Eh]
	 Total Energy              =   -1032.5379057948057380 [Eh]

	 ================> DF-SCS-MP2 Energies <==================
	-----------------------------------------------------------
	 SCS Same-Spin Scale       =       0.3333333333333333 [-]
	 SCS Opposite-Spin Scale   =       1.2000000000000000 [-]
	 SCS Same-Spin Energy      =      -0.3522473201334240 [Eh]
	 SCS Opposite-Spin Energy  =      -3.5430786384075170 [Eh]
	 SCS Correlation Energy    =      -3.8953259585409410 [Eh]
	 SCS Total Energy          =   -1032.4239242609401117 [Eh]
	-----------------------------------------------------------

  Dipole Moment: [D]
     X:     8.7509      Y:     0.1185      Z:    -0.1124     Total:     8.7524

*** Psi4 exiting successfully. Buy a developer a beer!
