                               Psi4 1.4a3.dev225

  ==> Input File <==

--------------------------------------------------------------------------
#psi4
#
memory 32 gb

molecule  {
-1 1
  O       -2.9714190     0.8843310    -0.7445430
  O       -2.9714760    -0.8842960     0.7444570
  O       -0.5719940    -3.2988010     0.7833720
  O       -0.5719130     3.2988430    -0.7832930
  O       -1.5583320    -2.6751640    -1.0959160
  O       -1.5583470     2.6751420     1.0959240
  O        3.9378030    -1.0985810    -0.0520130
  O        3.9378150     1.0985380     0.0519920
  N       -0.8441900    -2.4722020    -0.1047670
  N       -0.8441610     2.4722110     0.1047990
  N        3.3563290    -0.0000180    -0.0000080
  C       -0.9300790     0.0000040     0.0000050
  C       -0.1699680    -1.1712100    -0.0217940
  C       -0.0610876     1.3389573     0.0249307
  C        1.8913620    -0.0000110     0.0000000
  C        1.2196430    -1.2181880    -0.0070480
  C        1.2196550     1.2181740     0.0070530
  C       -2.4885490     0.0000140    -0.0000270
  H        1.7571850    -2.1596840    -0.0048420
  H        1.7572080     2.1596640     0.0048470
units angstrom
no_reorient  #important for SAPT in psi4, default
symmetry c1  #important for SAPT in psi4, default
}

set PROPERTIES_ORIGIN ["COM"]
properties('MP2/aug-cc-pvtz', properties = ['dipole'])
--------------------------------------------------------------------------

    Molecular point group: c1
  Charge       = -1
  Multiplicity = 1
  Basis Set: AUG-CC-PVTZ
    Blend: AUG-CC-PVTZ
  Basis Set: (AUG-CC-PVTZ AUX)
    Blend: AUG-CC-PVTZ-JKFIT

    Orbital Energies [Eh]
    ---------------------

    Doubly Occupied:

       1A    -20.537524     2A    -20.535688     3A    -20.521450
       4A    -20.517230     5A    -20.515876     6A    -20.512966
       7A    -20.372605     8A    -20.372422     9A    -15.790389
      10A    -15.767854    11A    -15.762316    12A    -11.243445
      13A    -11.240256    14A    -11.234958    15A    -11.233021
      16A    -11.231585    17A    -11.230282    18A    -11.205908
      19A     -1.520849    20A     -1.510167    21A     -1.496369
      22A     -1.318692    23A     -1.304143    24A     -1.296202
      25A     -1.248210    26A     -1.155351    27A     -1.146814
      28A     -1.061841    29A     -1.041742    30A     -0.928590
      31A     -0.901470    32A     -0.881221    33A     -0.766983
      34A     -0.735267    35A     -0.713651    36A     -0.682737
      37A     -0.671715    38A     -0.661647    39A     -0.651784
      40A     -0.644127    41A     -0.638756    42A     -0.634362
      43A     -0.628616    44A     -0.607906    45A     -0.559910
      46A     -0.553326    47A     -0.512750    48A     -0.491823
      49A     -0.485205    50A     -0.464331    51A     -0.437393
      52A     -0.434824    53A     -0.426013    54A     -0.420728
      55A     -0.413578    56A     -0.405450    57A     -0.392831
      58A     -0.388016    59A     -0.361083    60A     -0.354942
      61A     -0.326161    62A     -0.307482    63A     -0.283823
      64A     -0.271035    65A     -0.266071

  @DF-RHF Final Energy: -1028.48766142363570

   => Energetics <=

    Nuclear Repulsion Energy =           1322.3477816735585293
    One-Electron Energy =               -4055.2073622216821605
    Two-Electron Energy =                1704.3719191244879312
    Total Energy =                      -1028.4876614236357000
  Basis Set: (AUG-CC-PVTZ AUX)
    Blend: AUG-CC-PVTZ-RI
    Molecular point group: c1

    Geometry (in Angstrom), charge = -1, multiplicity = 1:

       Center              X                  Y                   Z               Mass
    ------------   -----------------  -----------------  -----------------  -----------------
         O           -2.962967147841     0.876467509046    -0.744689327845    15.994914619570
         O           -2.963024147841    -0.892159490954     0.744310672155    15.994914619570
         O           -0.563542147841    -3.306664490954     0.783225672155    15.994914619570
         O           -0.563461147841     3.290979509046    -0.783439327845    15.994914619570
         O           -1.549880147841    -2.683027490954    -1.096062327845    15.994914619570
         O           -1.549895147841     2.667278509046     1.095777672155    15.994914619570
         O            3.946254852159    -1.106444490954    -0.052159327845    15.994914619570
         O            3.946266852159     1.090674509046     0.051845672155    15.994914619570
         N           -0.835738147841    -2.480065490954    -0.104913327845    14.003074004430
         N           -0.835709147841     2.464347509046     0.104652672155    14.003074004430
         N            3.364780852159    -0.007881490954    -0.000154327845    14.003074004430
         C           -0.921627147841    -0.007859490954    -0.000141327845    12.000000000000
         C           -0.161516147841    -1.179073490954    -0.021940327845    12.000000000000
         C           -0.052635747841     1.331093809046     0.024784372155    12.000000000000
         C            1.899813852159    -0.007874490954    -0.000146327845    12.000000000000
         C            1.228094852159    -1.226051490954    -0.007194327845    12.000000000000
         C            1.228106852159     1.210310509046     0.006906672155    12.000000000000
         C           -2.480097147841    -0.007849490954    -0.000173327845    12.000000000000
         H            1.765636852159    -2.167547490954    -0.004988327845     1.007825032230
         H            1.765659852159     2.151800509046     0.004700672155     1.007825032230

  Basis Set: AUG-CC-PVTZ
    Blend: AUG-CC-PVTZ
  Basis Set: (AUG-CC-PVTZ AUX)
    Blend: AUG-CC-PVTZ-JKFIT
	 Reference Energy          =   -1028.4876614236357000 [Eh]
	 Singles Energy            =      -0.0000000000000000 [Eh]
	 Same-Spin Energy          =      -1.0562435080506625 [Eh]
	 Opposite-Spin Energy      =      -2.9537215727624870 [Eh]
	 Correlation Energy        =      -4.0099650808131493 [Eh]
	 Total Energy              =   -1032.4976265044488173 [Eh]

	 ================> DF-SCS-MP2 Energies <==================
	-----------------------------------------------------------
	 SCS Same-Spin Scale       =       0.3333333333333333 [-]
	 SCS Opposite-Spin Scale   =       1.2000000000000000 [-]
	 SCS Same-Spin Energy      =      -0.3520811693502208 [Eh]
	 SCS Opposite-Spin Energy  =      -3.5444658873149844 [Eh]
	 SCS Correlation Energy    =      -3.8965470566652050 [Eh]
	 SCS Total Energy          =   -1032.3842084803009129 [Eh]
	-----------------------------------------------------------

  Dipole Moment: [D]
     X:     8.6742      Y:     0.2392      Z:     0.0558     Total:     8.6777

*** Psi4 exiting successfully. Buy a developer a beer!
