                               Psi4 1.4a3.dev225

  ==> Input File <==

--------------------------------------------------------------------------
#psi4
#
memory 32 gb

molecule  {
-1 1
  O       -2.9714190     0.8843310    -0.7445430
  O       -2.9714760    -0.8842960     0.7444570
  O       -0.5719940    -3.2988010     0.7833720
  O       -0.5719130     3.2988430    -0.7832930
  O       -1.5583320    -2.6751640    -1.0959160
  O       -1.5583470     2.6751420     1.0959240
  O        3.9378030    -1.0985810    -0.0520130
  O        3.9378150     1.0985380     0.0519920
  N       -0.8441900    -2.4722020    -0.1047670
  N       -0.8441610     2.4722110     0.1047990
  N        3.3563290    -0.0000180    -0.0000080
  C       -0.9300790     0.0000040     0.0000050
  C       -0.1699680    -1.1712100    -0.0217940
  C       -0.1469863     1.1268909     0.0189807
  C        1.8913620    -0.0000110     0.0000000
  C        1.2196430    -1.2181880    -0.0070480
  C        1.2196550     1.2181740     0.0070530
  C       -2.4885490     0.0000140    -0.0000270
  H        1.7571850    -2.1596840    -0.0048420
  H        1.7572080     2.1596640     0.0048470
units angstrom
no_reorient  #important for SAPT in psi4, default
symmetry c1  #important for SAPT in psi4, default
}

set PROPERTIES_ORIGIN ["COM"]
properties('MP2/aug-cc-pvtz', properties = ['dipole'])
--------------------------------------------------------------------------

    Molecular point group: c1
  Charge       = -1
  Multiplicity = 1
  Basis Set: AUG-CC-PVTZ
    Blend: AUG-CC-PVTZ
  Basis Set: (AUG-CC-PVTZ AUX)
    Blend: AUG-CC-PVTZ-JKFIT

    Orbital Energies [Eh]
    ---------------------

    Doubly Occupied:

       1A    -20.542866     2A    -20.542748     3A    -20.516656
       4A    -20.514067     5A    -20.513824     6A    -20.511294
       7A    -20.370498     8A    -20.370226     9A    -15.794352
      10A    -15.763039    11A    -15.759478    12A    -11.249492
      13A    -11.241785    14A    -11.240418    15A    -11.230436
      16A    -11.222636    17A    -11.221417    18A    -11.208250
      19A     -1.526151    20A     -1.497191    21A     -1.490801
      22A     -1.324053    23A     -1.296922    24A     -1.293089
      25A     -1.247041    26A     -1.154073    27A     -1.153604
      28A     -1.050575    29A     -1.039550    30A     -0.913384
      31A     -0.898249    32A     -0.884552    33A     -0.761501
      34A     -0.741460    35A     -0.712173    36A     -0.678319
      37A     -0.672967    38A     -0.658052    39A     -0.648703
      40A     -0.647681    41A     -0.633974    42A     -0.628997
      43A     -0.624915    44A     -0.602675    45A     -0.566199
      46A     -0.559974    47A     -0.523552    48A     -0.507124
      49A     -0.492587    50A     -0.466838    51A     -0.441575
      52A     -0.434407    53A     -0.428703    54A     -0.415681
      55A     -0.405725    56A     -0.402770    57A     -0.392051
      58A     -0.388470    59A     -0.357631    60A     -0.352701
      61A     -0.319092    62A     -0.309976    63A     -0.283519
      64A     -0.281265    65A     -0.264371

  @DF-RHF Final Energy: -1028.52597215453807

   => Energetics <=

    Nuclear Repulsion Energy =           1323.7357839612832322
    One-Electron Energy =               -4058.1468259656376176
    Two-Electron Energy =                1705.8850698498163183
    Total Energy =                      -1028.5259721545380671
  Basis Set: (AUG-CC-PVTZ AUX)
    Blend: AUG-CC-PVTZ-RI
    Molecular point group: c1

    Geometry (in Angstrom), charge = -1, multiplicity = 1:

       Center              X                  Y                   Z               Mass
    ------------   -----------------  -----------------  -----------------  -----------------
         O           -2.958940397580     0.886408735532    -0.744410404368    15.994914619570
         O           -2.958997397580    -0.882218264468     0.744589595632    15.994914619570
         O           -0.559515397580    -3.296723264468     0.783504595632    15.994914619570
         O           -0.559434397580     3.300920735532    -0.783160404368    15.994914619570
         O           -1.545853397580    -2.673086264468    -1.095783404368    15.994914619570
         O           -1.545868397580     2.677219735532     1.096056595632    15.994914619570
         O            3.950281602420    -1.096503264468    -0.051880404368    15.994914619570
         O            3.950293602420     1.100615735532     0.052124595632    15.994914619570
         N           -0.831711397580    -2.470124264468    -0.104634404368    14.003074004430
         N           -0.831682397580     2.474288735532     0.104931595632    14.003074004430
         N            3.368807602420     0.002059735532     0.000124595632    14.003074004430
         C           -0.917600397580     0.002081735532     0.000137595632    12.000000000000
         C           -0.157489397580    -1.169132264468    -0.021661404368    12.000000000000
         C           -0.134507697580     1.128968635532     0.019113295632    12.000000000000
         C            1.903840602420     0.002066735532     0.000132595632    12.000000000000
         C            1.232121602420    -1.216110264468    -0.006915404368    12.000000000000
         C            1.232133602420     1.220251735532     0.007185595632    12.000000000000
         C           -2.476070397580     0.002091735532     0.000105595632    12.000000000000
         H            1.769663602420    -2.157606264468    -0.004709404368     1.007825032230
         H            1.769686602420     2.161741735532     0.004979595632     1.007825032230

  Basis Set: AUG-CC-PVTZ
    Blend: AUG-CC-PVTZ
  Basis Set: (AUG-CC-PVTZ AUX)
    Blend: AUG-CC-PVTZ-JKFIT
	 Reference Energy          =   -1028.5259721545380671 [Eh]
	 Singles Energy            =      -0.0000000000000000 [Eh]
	 Same-Spin Energy          =      -1.0570755274065440 [Eh]
	 Opposite-Spin Energy      =      -2.9532564292484196 [Eh]
	 Correlation Energy        =      -4.0103319566549640 [Eh]
	 Total Energy              =   -1032.5363041111929761 [Eh]

	 ================> DF-SCS-MP2 Energies <==================
	-----------------------------------------------------------
	 SCS Same-Spin Scale       =       0.3333333333333333 [-]
	 SCS Opposite-Spin Scale   =       1.2000000000000000 [-]
	 SCS Same-Spin Energy      =      -0.3523585091355146 [Eh]
	 SCS Opposite-Spin Energy  =      -3.5439077150981033 [Eh]
	 SCS Correlation Energy    =      -3.8962662242336181 [Eh]
	 SCS Total Energy          =   -1032.4222383787716808 [Eh]
	-----------------------------------------------------------

  Dipole Moment: [D]
     X:     8.8442      Y:    -0.0754      Z:    -0.0049     Total:     8.8446

*** Psi4 exiting successfully. Buy a developer a beer!
