                               Psi4 1.4a3.dev225

  ==> Input File <==

--------------------------------------------------------------------------
#psi4
#
memory 32 gb

molecule  {
-1 1
  O       -2.9714190     0.8843310    -0.7445430
  O       -2.9714760    -0.8842960     0.7444570
  O       -0.5719940    -3.2988010     0.7833720
  O       -0.5719130     3.2988430    -0.7832930
  O       -1.5583320    -2.6751640    -1.0959160
  O       -1.5583470     2.6751420     1.0959240
  O        3.9378030    -1.0985810    -0.0520130
  O        3.9378150     1.0985380     0.0519920
  N       -0.8441900    -2.4722020    -0.1047670
  N       -0.8441610     2.4722110     0.1047990
  N        3.3563290    -0.0000180    -0.0000080
  C       -0.9300790     0.0000040     0.0000050
  C       -0.1699680    -1.1712100    -0.0217940
  C       -0.1155213     1.2550851     0.0233693
  C        1.8913620    -0.0000110     0.0000000
  C        1.2196430    -1.2181880    -0.0070480
  C        1.2196550     1.2181740     0.0070530
  C       -2.4885490     0.0000140    -0.0000270
  H        1.7571850    -2.1596840    -0.0048420
  H        1.7572080     2.1596640     0.0048470
units angstrom
no_reorient  #important for SAPT in psi4, default
symmetry c1  #important for SAPT in psi4, default
}

set PROPERTIES_ORIGIN ["COM"]
properties('MP2/aug-cc-pvtz', properties = ['dipole'])
--------------------------------------------------------------------------

    Molecular point group: c1
  Charge       = -1
  Multiplicity = 1
  Basis Set: AUG-CC-PVTZ
    Blend: AUG-CC-PVTZ
  Basis Set: (AUG-CC-PVTZ AUX)
    Blend: AUG-CC-PVTZ-JKFIT

    Orbital Energies [Eh]
    ---------------------

    Doubly Occupied:

       1A    -20.539887     2A    -20.538862     3A    -20.518896
       4A    -20.516218     5A    -20.515270     6A    -20.513338
       7A    -20.371338     8A    -20.371173     9A    -15.792243
      10A    -15.765542    11A    -15.762731    12A    -11.245918
      13A    -11.240607    14A    -11.237659    15A    -11.230502
      16A    -11.226983    17A    -11.224204    18A    -11.214229
      19A     -1.523221    20A     -1.503364    21A     -1.496729
      22A     -1.321088    23A     -1.300255    24A     -1.296515
      25A     -1.247413    26A     -1.154345    27A     -1.147705
      28A     -1.052460    29A     -1.044697    30A     -0.917153
      31A     -0.899818    32A     -0.888367    33A     -0.763526
      34A     -0.738120    35A     -0.713336    36A     -0.675018
      37A     -0.673410    38A     -0.662815    39A     -0.651458
      40A     -0.645633    41A     -0.636493    42A     -0.633037
      43A     -0.628889    44A     -0.606378    45A     -0.560179
      46A     -0.556005    47A     -0.515077    48A     -0.503002
      49A     -0.486722    50A     -0.465765    51A     -0.439247
      52A     -0.433564    53A     -0.427445    54A     -0.418971
      55A     -0.411050    56A     -0.404817    57A     -0.395346
      58A     -0.389795    59A     -0.359399    60A     -0.354544
      61A     -0.317900    62A     -0.309936    63A     -0.283482
      64A     -0.275438    65A     -0.265138

  @DF-RHF Final Energy: -1028.51801911519442

   => Energetics <=

    Nuclear Repulsion Energy =           1322.8798038780043953
    One-Electron Energy =               -4056.3563203029748365
    Two-Electron Energy =                1704.9584973097757938
    Total Energy =                      -1028.5180191151944200
  Basis Set: (AUG-CC-PVTZ AUX)
    Blend: AUG-CC-PVTZ-RI
    Molecular point group: c1

    Geometry (in Angstrom), charge = -1, multiplicity = 1:

       Center              X                  Y                   Z               Mass
    ------------   -----------------  -----------------  -----------------  -----------------
         O           -2.960415410554     0.880399261252    -0.744616132699    15.994914619570
         O           -2.960472410554    -0.888227738748     0.744383867301    15.994914619570
         O           -0.560990410554    -3.302732738748     0.783298867301    15.994914619570
         O           -0.560909410554     3.294911261252    -0.783366132699    15.994914619570
         O           -1.547328410554    -2.679095738748    -1.095989132699    15.994914619570
         O           -1.547343410554     2.671210261252     1.095850867301    15.994914619570
         O            3.948806589446    -1.102512738748    -0.052086132699    15.994914619570
         O            3.948818589446     1.094606261252     0.051918867301    15.994914619570
         N           -0.833186410554    -2.476133738748    -0.104840132699    14.003074004430
         N           -0.833157410554     2.468279261252     0.104725867301    14.003074004430
         N            3.367332589446    -0.003949738748    -0.000081132699    14.003074004430
         C           -0.919075410554    -0.003927738748    -0.000068132699    12.000000000000
         C           -0.158964410554    -1.175141738748    -0.021867132699    12.000000000000
         C           -0.104517710554     1.251153361252     0.023296167301    12.000000000000
         C            1.902365589446    -0.003942738748    -0.000073132699    12.000000000000
         C            1.230646589446    -1.222119738748    -0.007121132699    12.000000000000
         C            1.230658589446     1.214242261252     0.006979867301    12.000000000000
         C           -2.477545410554    -0.003917738748    -0.000100132699    12.000000000000
         H            1.768188589446    -2.163615738748    -0.004915132699     1.007825032230
         H            1.768211589446     2.155732261252     0.004773867301     1.007825032230

  Basis Set: AUG-CC-PVTZ
    Blend: AUG-CC-PVTZ
  Basis Set: (AUG-CC-PVTZ AUX)
    Blend: AUG-CC-PVTZ-JKFIT
	 Reference Energy          =   -1028.5180191151944200 [Eh]
	 Singles Energy            =      -0.0000000000000000 [Eh]
	 Same-Spin Energy          =      -1.0564952436279855 [Eh]
	 Opposite-Spin Energy      =      -2.9528164222007196 [Eh]
	 Correlation Energy        =      -4.0093116658287054 [Eh]
	 Total Energy              =   -1032.5273307810232382 [Eh]

	 ================> DF-SCS-MP2 Energies <==================
	-----------------------------------------------------------
	 SCS Same-Spin Scale       =       0.3333333333333333 [-]
	 SCS Opposite-Spin Scale   =       1.2000000000000000 [-]
	 SCS Same-Spin Energy      =      -0.3521650812093285 [Eh]
	 SCS Opposite-Spin Energy  =      -3.5433797066408634 [Eh]
	 SCS Correlation Energy    =      -3.8955447878501919 [Eh]
	 SCS Total Energy          =   -1032.4135639030446328 [Eh]
	-----------------------------------------------------------

  Dipole Moment: [D]
     X:     8.7516      Y:     0.1306      Z:     0.0296     Total:     8.7526

*** Psi4 exiting successfully. Buy a developer a beer!
