                               Psi4 1.4a3.dev225

  ==> Input File <==

--------------------------------------------------------------------------
#psi4
#
memory 32 gb

molecule  {
-1 1
  O       -2.9714190     0.8843310    -0.7445430
  O       -2.9714760    -0.8842960     0.7444570
  O       -0.5719940    -3.2988010     0.7833720
  O       -0.5719130     3.2988430    -0.7832930
  O       -1.5583320    -2.6751640    -1.0959160
  O       -1.5583470     2.6751420     1.0959240
  O        3.9378030    -1.0985810    -0.0520130
  O        3.9378150     1.0985380     0.0519920
  N       -0.8441900    -2.4722020    -0.1047670
  N       -0.8326268     2.4689336     0.0887921
  N        3.3563290    -0.0000180    -0.0000080
  C       -0.9300790     0.0000040     0.0000050
  C       -0.1699680    -1.1712100    -0.0217940
  C       -0.1699550     1.1712130     0.0218080
  C        1.8913620    -0.0000110     0.0000000
  C        1.2196430    -1.2181880    -0.0070480
  C        1.2196550     1.2181740     0.0070530
  C       -2.4885490     0.0000140    -0.0000270
  H        1.7571850    -2.1596840    -0.0048420
  H        1.7572080     2.1596640     0.0048470
units angstrom
no_reorient  #important for SAPT in psi4, default
symmetry c1  #important for SAPT in psi4, default
}

set PROPERTIES_ORIGIN ["COM"]
properties('MP2/aug-cc-pvtz', properties = ['dipole'])
--------------------------------------------------------------------------

    Molecular point group: c1
  Charge       = -1
  Multiplicity = 1
  Basis Set: AUG-CC-PVTZ
    Blend: AUG-CC-PVTZ
  Basis Set: (AUG-CC-PVTZ AUX)
    Blend: AUG-CC-PVTZ-JKFIT

    Orbital Energies [Eh]
    ---------------------

    Doubly Occupied:

       1A    -20.542491     2A    -20.542441     3A    -20.520176
       4A    -20.516494     5A    -20.513686     6A    -20.509327
       7A    -20.369491     8A    -20.369371     9A    -15.794361
      10A    -15.763129    11A    -15.762676    12A    -11.249006
      13A    -11.241032    14A    -11.240852    15A    -11.228884
      16A    -11.223811    17A    -11.223766    18A    -11.211527
      19A     -1.525907    20A     -1.497060    21A     -1.495104
      22A     -1.323795    23A     -1.296783    24A     -1.291795
      25A     -1.246038    26A     -1.152737    27A     -1.150341
      28A     -1.050270    29A     -1.044426    30A     -0.912747
      31A     -0.898458    32A     -0.893436    33A     -0.760994
      34A     -0.741641    35A     -0.712680    36A     -0.675896
      37A     -0.673092    38A     -0.660805    39A     -0.651658
      40A     -0.647731    41A     -0.634918    42A     -0.629260
      43A     -0.627482    44A     -0.603854    45A     -0.561504
      46A     -0.557262    47A     -0.521970    48A     -0.504947
      49A     -0.489147    50A     -0.465395    51A     -0.441325
      52A     -0.434022    53A     -0.427871    54A     -0.417184
      55A     -0.407790    56A     -0.402701    57A     -0.395389
      58A     -0.391873    59A     -0.357738    60A     -0.352751
      61A     -0.317352    62A     -0.307942    63A     -0.281927
      64A     -0.279775    65A     -0.263518

  @DF-RHF Final Energy: -1028.52668903179529

   => Energetics <=

    Nuclear Repulsion Energy =           1323.5643576647460122
    One-Electron Energy =               -4057.7804665090811795
    Two-Electron Energy =                1705.6894198125401090
    Total Energy =                      -1028.5266890317952857
  Basis Set: (AUG-CC-PVTZ AUX)
    Blend: AUG-CC-PVTZ-RI
    Molecular point group: c1

    Geometry (in Angstrom), charge = -1, multiplicity = 1:

       Center              X                  Y                   Z               Mass
    ------------   -----------------  -----------------  -----------------  -----------------
         O           -2.958494627299     0.884510292011    -0.743667318609    15.994914619570
         O           -2.958551627299    -0.884116707989     0.745332681391    15.994914619570
         O           -0.559069627299    -3.298621707989     0.784247681391    15.994914619570
         O           -0.558988627299     3.299022292011    -0.782417318609    15.994914619570
         O           -1.545407627299    -2.674984707989    -1.095040318609    15.994914619570
         O           -1.545422627299     2.675321292011     1.096799681391    15.994914619570
         O            3.950727372701    -1.098401707989    -0.051137318609    15.994914619570
         O            3.950739372701     1.098717292011     0.052867681391    15.994914619570
         N           -0.831265627299    -2.472022707989    -0.103891318609    14.003074004430
         N           -0.819702427299     2.469112892011     0.089667781391    14.003074004430
         N            3.369253372701     0.000161292011     0.000867681391    14.003074004430
         C           -0.917154627299     0.000183292011     0.000880681391    12.000000000000
         C           -0.157043627299    -1.171030707989    -0.020918318609    12.000000000000
         C           -0.157030627299     1.171392292011     0.022683681391    12.000000000000
         C            1.904286372701     0.000168292011     0.000875681391    12.000000000000
         C            1.232567372701    -1.218008707989    -0.006172318609    12.000000000000
         C            1.232579372701     1.218353292011     0.007928681391    12.000000000000
         C           -2.475624627299     0.000193292011     0.000848681391    12.000000000000
         H            1.770109372701    -2.159504707989    -0.003966318609     1.007825032230
         H            1.770132372701     2.159843292011     0.005722681391     1.007825032230

  Basis Set: AUG-CC-PVTZ
    Blend: AUG-CC-PVTZ
  Basis Set: (AUG-CC-PVTZ AUX)
    Blend: AUG-CC-PVTZ-JKFIT
	 Reference Energy          =   -1028.5266890317952857 [Eh]
	 Singles Energy            =      -0.0000000000000000 [Eh]
	 Same-Spin Energy          =      -1.0572494355071402 [Eh]
	 Opposite-Spin Energy      =      -2.9537479608607007 [Eh]
	 Correlation Energy        =      -4.0109973963678414 [Eh]
	 Total Energy              =   -1032.5376864281631697 [Eh]

	 ================> DF-SCS-MP2 Energies <==================
	-----------------------------------------------------------
	 SCS Same-Spin Scale       =       0.3333333333333333 [-]
	 SCS Opposite-Spin Scale   =       1.2000000000000000 [-]
	 SCS Same-Spin Energy      =      -0.3524164785023801 [Eh]
	 SCS Opposite-Spin Energy  =      -3.5444975530328406 [Eh]
	 SCS Correlation Energy    =      -3.8969140315352209 [Eh]
	 SCS Total Energy          =   -1032.4236030633305745 [Eh]
	-----------------------------------------------------------

  Dipole Moment: [D]
     X:     8.8617      Y:    -0.0167      Z:    -0.0740     Total:     8.8620

*** Psi4 exiting successfully. Buy a developer a beer!
