                               Psi4 1.4a3.dev225

  ==> Input File <==

--------------------------------------------------------------------------
#psi4
#
memory 32 gb

molecule  {
-1 1
  O       -2.9714190     0.8843310    -0.7445430
  O       -2.9714760    -0.8842960     0.7444570
  O       -0.5719940    -3.2988010     0.7833720
  O       -0.5719130     3.2988430    -0.7832930
  O       -1.5583320    -2.6751640    -1.0959160
  O       -1.5583470     2.6751420     1.0959240
  O        3.9378030    -1.0985810    -0.0520130
  O        3.9378150     1.0985380     0.0519920
  N       -0.8441900    -2.4722020    -0.1047670
  N       -0.8441610     2.4722110     0.1047990
  N        3.3563290    -0.0000180    -0.0000080
  C       -0.9300790     0.0000040     0.0000050
  C       -0.1574512    -1.0262063    -0.0211102
  C       -0.1699550     1.1712130     0.0218080
  C        1.8913620    -0.0000110     0.0000000
  C        1.2196430    -1.2181880    -0.0070480
  C        1.2196550     1.2181740     0.0070530
  C       -2.4885490     0.0000140    -0.0000270
  H        1.7571850    -2.1596840    -0.0048420
  H        1.7572080     2.1596640     0.0048470
units angstrom
no_reorient  #important for SAPT in psi4, default
symmetry c1  #important for SAPT in psi4, default
}

set PROPERTIES_ORIGIN ["COM"]
properties('MP2/aug-cc-pvtz', properties = ['dipole'])
--------------------------------------------------------------------------

    Molecular point group: c1
  Charge       = -1
  Multiplicity = 1
  Basis Set: AUG-CC-PVTZ
    Blend: AUG-CC-PVTZ
  Basis Set: (AUG-CC-PVTZ AUX)
    Blend: AUG-CC-PVTZ-JKFIT

    Orbital Energies [Eh]
    ---------------------

    Doubly Occupied:

       1A    -20.545839     2A    -20.545284     3A    -20.517484
       4A    -20.514722     5A    -20.507973     6A    -20.506157
       7A    -20.371061     8A    -20.370121     9A    -15.796085
      10A    -15.763776    11A    -15.749772    12A    -11.252892
      13A    -11.246137    14A    -11.240065    15A    -11.231761
      16A    -11.227197    17A    -11.220064    18A    -11.194999
      19A     -1.528538    20A     -1.498051    21A     -1.479830
      22A     -1.326454    23A     -1.297735    24A     -1.285595
      25A     -1.247618    26A     -1.162576    27A     -1.153773
      28A     -1.058311    29A     -1.033335    30A     -0.920184
      31A     -0.902743    32A     -0.865958    33A     -0.761490
      34A     -0.743119    35A     -0.710690    36A     -0.684002
      37A     -0.674598    38A     -0.655995    39A     -0.650097
      40A     -0.645598    41A     -0.631283    42A     -0.625135
      43A     -0.616880    44A     -0.601159    45A     -0.572465
      46A     -0.560689    47A     -0.527206    48A     -0.508190
      49A     -0.499929    50A     -0.467716    51A     -0.443485
      52A     -0.436332    53A     -0.429542    54A     -0.414350
      55A     -0.405069    56A     -0.398711    57A     -0.393896
      58A     -0.373542    59A     -0.357571    60A     -0.349059
      61A     -0.328493    62A     -0.306878    63A     -0.285194
      64A     -0.283831    65A     -0.264388

  @DF-RHF Final Energy: -1028.50405833220566

   => Energetics <=

    Nuclear Repulsion Energy =           1324.5577911904790653
    One-Electron Energy =               -4059.7863563531036561
    Two-Electron Energy =                1706.7245068304187043
    Total Energy =                      -1028.5040583322056591
  Basis Set: (AUG-CC-PVTZ AUX)
    Blend: AUG-CC-PVTZ-RI
    Molecular point group: c1

    Geometry (in Angstrom), charge = -1, multiplicity = 1:

       Center              X                  Y                   Z               Mass
    ------------   -----------------  -----------------  -----------------  -----------------
         O           -2.958450434506     0.877533540511    -0.744574997346    15.994914619570
         O           -2.958507434506    -0.891093459489     0.744425002654    15.994914619570
         O           -0.559025434506    -3.305598459489     0.783340002654    15.994914619570
         O           -0.558944434506     3.292045540511    -0.783324997346    15.994914619570
         O           -1.545363434506    -2.681961459489    -1.095947997346    15.994914619570
         O           -1.545378434506     2.668344540511     1.095892002654    15.994914619570
         O            3.950771565494    -1.105378459489    -0.052044997346    15.994914619570
         O            3.950783565494     1.091740540511     0.051960002654    15.994914619570
         N           -0.831221434506    -2.478999459489    -0.104798997346    14.003074004430
         N           -0.831192434506     2.465413540511     0.104767002654    14.003074004430
         N            3.369297565494    -0.006815459489    -0.000039997346    14.003074004430
         C           -0.917110434506    -0.006793459489    -0.000026997346    12.000000000000
         C           -0.144482634506    -1.033003759489    -0.021142197346    12.000000000000
         C           -0.156986434506     1.164415540511     0.021776002654    12.000000000000
         C            1.904330565494    -0.006808459489    -0.000031997346    12.000000000000
         C            1.232611565494    -1.224985459489    -0.007079997346    12.000000000000
         C            1.232623565494     1.211376540511     0.007021002654    12.000000000000
         C           -2.475580434506    -0.006783459489    -0.000058997346    12.000000000000
         H            1.770153565494    -2.166481459489    -0.004873997346     1.007825032230
         H            1.770176565494     2.152866540511     0.004815002654     1.007825032230

  Basis Set: AUG-CC-PVTZ
    Blend: AUG-CC-PVTZ
  Basis Set: (AUG-CC-PVTZ AUX)
    Blend: AUG-CC-PVTZ-JKFIT
	 Reference Energy          =   -1028.5040583322056591 [Eh]
	 Singles Energy            =      -0.0000000000000000 [Eh]
	 Same-Spin Energy          =      -1.0580284892137171 [Eh]
	 Opposite-Spin Energy      =      -2.9551648426317287 [Eh]
	 Correlation Energy        =      -4.0131933318454456 [Eh]
	 Total Energy              =   -1032.5172516640511731 [Eh]

	 ================> DF-SCS-MP2 Energies <==================
	-----------------------------------------------------------
	 SCS Same-Spin Scale       =       0.3333333333333333 [-]
	 SCS Opposite-Spin Scale   =       1.2000000000000000 [-]
	 SCS Same-Spin Energy      =      -0.3526761630712390 [Eh]
	 SCS Opposite-Spin Energy  =      -3.5461978111580743 [Eh]
	 SCS Correlation Energy    =      -3.8988739742293133 [Eh]
	 SCS Total Energy          =   -1032.4029323064348773 [Eh]
	-----------------------------------------------------------

  Dipole Moment: [D]
     X:     8.8966      Y:     0.2980      Z:     0.0288     Total:     8.9017

*** Psi4 exiting successfully. Buy a developer a beer!
