                               Psi4 1.4a3.dev225

  ==> Input File <==

--------------------------------------------------------------------------
#psi4
#
memory 32 gb

molecule  {
-1 1
  O       -2.9714190     0.8843310    -0.7445430
  O       -2.9714760    -0.8842960     0.7444570
  O       -0.5719940    -3.2988010     0.7833720
  O       -0.5719130     3.2988430    -0.7832930
  O       -1.5583320    -2.6751640    -1.0959160
  O       -1.5583470     2.6751420     1.0959240
  O        3.9378030    -1.0985810    -0.0520130
  O        3.9378150     1.0985380     0.0519920
  N       -0.8441900    -2.4722020    -0.1047670
  N       -0.8441610     2.4722110     0.1047990
  N        3.3563290    -0.0000180    -0.0000080
  C       -0.9300790     0.0000040     0.0000050
  C       -0.1699680    -1.1712100    -0.0217940
  C       -0.1699550     1.1712130     0.0218080
  C        1.8913620    -0.0000110     0.0000000
  C        1.2679292    -1.1306198    -0.0065414
  C        1.2196550     1.2181740     0.0070530
  C       -2.4885490     0.0000140    -0.0000270
  H        1.7571850    -2.1596840    -0.0048420
  H        1.7572080     2.1596640     0.0048470
units angstrom
no_reorient  #important for SAPT in psi4, default
symmetry c1  #important for SAPT in psi4, default
}

set PROPERTIES_ORIGIN ["COM"]
properties('MP2/aug-cc-pvtz', properties = ['dipole'])
--------------------------------------------------------------------------

    Molecular point group: c1
  Charge       = -1
  Multiplicity = 1
  Basis Set: AUG-CC-PVTZ
    Blend: AUG-CC-PVTZ
  Basis Set: (AUG-CC-PVTZ AUX)
    Blend: AUG-CC-PVTZ-JKFIT

    Orbital Energies [Eh]
    ---------------------

    Doubly Occupied:

       1A    -20.545459     2A    -20.544356     3A    -20.516788
       4A    -20.515893     5A    -20.513920     6A    -20.513175
       7A    -20.368207     8A    -20.367676     9A    -15.795409
      10A    -15.764702    11A    -15.762683    12A    -11.241533
      13A    -11.241514    14A    -11.240625    15A    -11.226841
      16A    -11.220880    17A    -11.219337    18A    -11.207052
      19A     -1.528107    20A     -1.496914    21A     -1.496460
      22A     -1.325874    23A     -1.296796    24A     -1.296215
      25A     -1.244667    26A     -1.157145    27A     -1.151344
      28A     -1.057497    29A     -1.035142    30A     -0.916215
      31A     -0.896596    32A     -0.892020    33A     -0.761763
      34A     -0.742609    35A     -0.714800    36A     -0.677646
      37A     -0.672660    38A     -0.661605    39A     -0.650837
      40A     -0.649825    41A     -0.633572    42A     -0.629625
      43A     -0.627919    44A     -0.602119    45A     -0.564309
      46A     -0.552665    47A     -0.514708    48A     -0.497607
      49A     -0.491516    50A     -0.465077    51A     -0.443128
      52A     -0.435109    53A     -0.428126    54A     -0.416202
      55A     -0.408353    56A     -0.404807    57A     -0.394832
      58A     -0.393058    59A     -0.357876    60A     -0.353543
      61A     -0.323935    62A     -0.301273    63A     -0.280770
      64A     -0.279020    65A     -0.262473

  @DF-RHF Final Energy: -1028.51423954535585

   => Energetics <=

    Nuclear Repulsion Energy =           1324.3954210088436412
    One-Electron Energy =               -4059.4385073977318825
    Two-Electron Energy =                1706.5288468435323921
    Total Energy =                      -1028.5142395453558493
  Basis Set: (AUG-CC-PVTZ AUX)
    Blend: AUG-CC-PVTZ-RI
    Molecular point group: c1

    Geometry (in Angstrom), charge = -1, multiplicity = 1:

       Center              X                  Y                   Z               Mass
    ------------   -----------------  -----------------  -----------------  -----------------
         O           -2.960127228693     0.880225995864    -0.744566690583    15.994914619570
         O           -2.960184228693    -0.888401004136     0.744433309417    15.994914619570
         O           -0.560702228693    -3.302906004136     0.783348309417    15.994914619570
         O           -0.560621228693     3.294737995864    -0.783316690583    15.994914619570
         O           -1.547040228693    -2.679269004136    -1.095939690583    15.994914619570
         O           -1.547055228693     2.671036995864     1.095900309417    15.994914619570
         O            3.949094771307    -1.102686004136    -0.052036690583    15.994914619570
         O            3.949106771307     1.094432995864     0.051968309417    15.994914619570
         N           -0.832898228693    -2.476307004136    -0.104790690583    14.003074004430
         N           -0.832869228693     2.468105995864     0.104775309417    14.003074004430
         N            3.367620771307    -0.004123004136    -0.000031690583    14.003074004430
         C           -0.918787228693    -0.004101004136    -0.000018690583    12.000000000000
         C           -0.158676228693    -1.175315004136    -0.021817690583    12.000000000000
         C           -0.158663228693     1.167107995864     0.021784309417    12.000000000000
         C            1.902653771307    -0.004116004136    -0.000023690583    12.000000000000
         C            1.279220971307    -1.134724804136    -0.006565090583    12.000000000000
         C            1.230946771307     1.214068995864     0.007029309417    12.000000000000
         C           -2.477257228693    -0.004091004136    -0.000050690583    12.000000000000
         H            1.768476771307    -2.163789004136    -0.004865690583     1.007825032230
         H            1.768499771307     2.155558995864     0.004823309417     1.007825032230

  Basis Set: AUG-CC-PVTZ
    Blend: AUG-CC-PVTZ
  Basis Set: (AUG-CC-PVTZ AUX)
    Blend: AUG-CC-PVTZ-JKFIT
	 Reference Energy          =   -1028.5142395453558493 [Eh]
	 Singles Energy            =      -0.0000000000000000 [Eh]
	 Same-Spin Energy          =      -1.0570614779330891 [Eh]
	 Opposite-Spin Energy      =      -2.9538490716436638 [Eh]
	 Correlation Energy        =      -4.0109105495767530 [Eh]
	 Total Energy              =   -1032.5251500949325418 [Eh]

	 ================> DF-SCS-MP2 Energies <==================
	-----------------------------------------------------------
	 SCS Same-Spin Scale       =       0.3333333333333333 [-]
	 SCS Opposite-Spin Scale   =       1.2000000000000000 [-]
	 SCS Same-Spin Energy      =      -0.3523538259776964 [Eh]
	 SCS Opposite-Spin Energy  =      -3.5446188859723966 [Eh]
	 SCS Correlation Energy    =      -3.8969727119500930 [Eh]
	 SCS Total Energy          =   -1032.4112122573060333 [Eh]
	-----------------------------------------------------------

  Dipole Moment: [D]
     X:     8.9185      Y:    -0.0708      Z:    -0.0134     Total:     8.9188

*** Psi4 exiting successfully. Buy a developer a beer!
