                               Psi4 1.4a3.dev225

  ==> Input File <==

--------------------------------------------------------------------------
#psi4
#
memory 32 gb

molecule  {
-1 1
  O       -2.9714190     0.8843310    -0.7445430
  O       -2.9714760    -0.8842960     0.7444570
  O       -0.5719940    -3.2988010     0.7833720
  O       -0.5719130     3.2988430    -0.7832930
  O       -1.5583320    -2.6751640    -1.0959160
  O       -1.5583470     2.6751420     1.0959240
  O        3.9378030    -1.0985810    -0.0520130
  O        3.9378150     1.0985380     0.0519920
  N       -0.8441900    -2.4722020    -0.1047670
  N       -0.8441610     2.4722110     0.1047990
  N        3.3563290    -0.0000180    -0.0000080
  C       -0.9300790     0.0000040     0.0000050
  C       -0.1699680    -1.1712100    -0.0217940
  C       -0.1699550     1.1712130     0.0218080
  C        1.8913620    -0.0000110     0.0000000
  C        1.2196430    -1.2181880    -0.0070480
  C        1.2196550     1.2181740     0.0070530
  C       -2.5656453    -0.1411607     0.1188253
  H        1.7571850    -2.1596840    -0.0048420
  H        1.7572080     2.1596640     0.0048470
units angstrom
no_reorient  #important for SAPT in psi4, default
symmetry c1  #important for SAPT in psi4, default
}

set PROPERTIES_ORIGIN ["COM"]
properties('MP2/aug-cc-pvtz', properties = ['dipole'])
--------------------------------------------------------------------------

    Molecular point group: c1
  Charge       = -1
  Multiplicity = 1
  Basis Set: AUG-CC-PVTZ
    Blend: AUG-CC-PVTZ
  Basis Set: (AUG-CC-PVTZ AUX)
    Blend: AUG-CC-PVTZ-JKFIT

    Orbital Energies [Eh]
    ---------------------

    Doubly Occupied:

       1A    -20.536943     2A    -20.536709     3A    -20.521181
       4A    -20.518253     5A    -20.506213     6A    -20.503928
       7A    -20.423139     8A    -20.336148     9A    -15.788890
      10A    -15.765541    11A    -15.753178    12A    -11.240986
      13A    -11.232034    14A    -11.231544    15A    -11.226790
      16A    -11.218029    17A    -11.216362    18A    -11.196083
      19A     -1.520434    20A     -1.501977    21A     -1.486554
      22A     -1.390097    23A     -1.318397    24A     -1.301636
      25A     -1.286556    26A     -1.144000    27A     -1.091600
      28A     -1.042165    29A     -1.034758    30A     -0.906076
      31A     -0.887533    32A     -0.885142    33A     -0.753672
      34A     -0.737577    35A     -0.708042    36A     -0.670153
      37A     -0.660623    38A     -0.656022    39A     -0.644954
      40A     -0.642451    41A     -0.635138    42A     -0.628061
      43A     -0.620291    44A     -0.607633    45A     -0.580853
      46A     -0.555270    47A     -0.541150    48A     -0.517389
      49A     -0.507397    50A     -0.487975    51A     -0.467685
      52A     -0.436244    53A     -0.426650    54A     -0.416751
      55A     -0.408434    56A     -0.398919    57A     -0.390571
      58A     -0.387129    59A     -0.362153    60A     -0.348359
      61A     -0.308845    62A     -0.301316    63A     -0.287912
      64A     -0.254431    65A     -0.239120

  @DF-RHF Final Energy: -1028.45499561362249

   => Energetics <=

    Nuclear Repulsion Energy =           1323.2508660562921250
    One-Electron Energy =               -4057.1356308855288262
    Two-Electron Energy =                1705.4297692156142148
    Total Energy =                      -1028.4549956136224864
  Basis Set: (AUG-CC-PVTZ AUX)
    Blend: AUG-CC-PVTZ-RI
    Molecular point group: c1

    Geometry (in Angstrom), charge = -1, multiplicity = 1:

       Center              X                  Y                   Z               Mass
    ------------   -----------------  -----------------  -----------------  -----------------
         O           -2.954249560991     0.890948981570    -0.750114487911    15.994914619570
         O           -2.954306560991    -0.877678018430     0.738885512089    15.994914619570
         O           -0.554824560991    -3.292183018430     0.777800512089    15.994914619570
         O           -0.554743560991     3.305460981570    -0.788864487911    15.994914619570
         O           -1.541162560991    -2.668546018430    -1.101487487911    15.994914619570
         O           -1.541177560991     2.681759981570     1.090352512089    15.994914619570
         O            3.954972439009    -1.091963018430    -0.057584487911    15.994914619570
         O            3.954984439009     1.105155981570     0.046420512089    15.994914619570
         N           -0.827020560991    -2.465584018430    -0.110338487911    14.003074004430
         N           -0.826991560991     2.478828981570     0.099227512089    14.003074004430
         N            3.373498439009     0.006599981570    -0.005579487911    14.003074004430
         C           -0.912909560991     0.006621981570    -0.005566487911    12.000000000000
         C           -0.152798560991    -1.164592018430    -0.027365487911    12.000000000000
         C           -0.152785560991     1.177830981570     0.016236512089    12.000000000000
         C            1.908531439009     0.006606981570    -0.005571487911    12.000000000000
         C            1.236812439009    -1.211570018430    -0.012619487911    12.000000000000
         C            1.236824439009     1.224791981570     0.001481512089    12.000000000000
         C           -2.548475860991    -0.134542718430     0.113253812089    12.000000000000
         H            1.774354439009    -2.153066018430    -0.010413487911     1.007825032230
         H            1.774377439009     2.166281981570    -0.000724487911     1.007825032230

  Basis Set: AUG-CC-PVTZ
    Blend: AUG-CC-PVTZ
  Basis Set: (AUG-CC-PVTZ AUX)
    Blend: AUG-CC-PVTZ-JKFIT
	 Reference Energy          =   -1028.4549956136224864 [Eh]
	 Singles Energy            =      -0.0000000000000000 [Eh]
	 Same-Spin Energy          =      -1.0546615633218286 [Eh]
	 Opposite-Spin Energy      =      -2.9478435452935416 [Eh]
	 Correlation Energy        =      -4.0025051086153702 [Eh]
	 Total Energy              =   -1032.4575007222379099 [Eh]

	 ================> DF-SCS-MP2 Energies <==================
	-----------------------------------------------------------
	 SCS Same-Spin Scale       =       0.3333333333333333 [-]
	 SCS Opposite-Spin Scale   =       1.2000000000000000 [-]
	 SCS Same-Spin Energy      =      -0.3515538544406095 [Eh]
	 SCS Opposite-Spin Energy  =      -3.5374122543522497 [Eh]
	 SCS Correlation Energy    =      -3.8889661087928591 [Eh]
	 SCS Total Energy          =   -1032.3439617224153153 [Eh]
	-----------------------------------------------------------

  Dipole Moment: [D]
     X:     7.9055      Y:    -1.3028      Z:     1.2140     Total:     8.1036

*** Psi4 exiting successfully. Buy a developer a beer!
