                               Psi4 1.4a3.dev225

  ==> Input File <==

--------------------------------------------------------------------------
#psi4
#
memory 32 gb

molecule  {
-1 1
  O       -2.9714190     0.8843310    -0.7445430
  O       -2.9714760    -0.8842960     0.7444570
  O       -0.5719940    -3.2988010     0.7833720
  O       -0.5719130     3.2988430    -0.7832930
  O       -1.5583320    -2.6751640    -1.0959160
  O       -1.5583470     2.6751420     1.0959240
  O        3.9378030    -1.0985810    -0.0520130
  O        3.9378150     1.0985380     0.0519920
  N       -0.8892710    -2.4478835    -0.1039399
  N       -0.8441610     2.4722110     0.1047990
  N        3.3563290    -0.0000180    -0.0000080
  C       -0.9300790     0.0000040     0.0000050
  C       -0.1699680    -1.1712100    -0.0217940
  C       -0.1699550     1.1712130     0.0218080
  C        1.8913620    -0.0000110     0.0000000
  C        1.2196430    -1.2181880    -0.0070480
  C        1.2196550     1.2181740     0.0070530
  C       -2.4885490     0.0000140    -0.0000270
  H        1.7571850    -2.1596840    -0.0048420
  H        1.7572080     2.1596640     0.0048470
units angstrom
no_reorient  #important for SAPT in psi4, default
symmetry c1  #important for SAPT in psi4, default
}

set PROPERTIES_ORIGIN ["COM"]
properties('MP2/aug-cc-pvtz', properties = ['dipole'])
--------------------------------------------------------------------------

    Molecular point group: c1
  Charge       = -1
  Multiplicity = 1
  Basis Set: AUG-CC-PVTZ
    Blend: AUG-CC-PVTZ
  Basis Set: (AUG-CC-PVTZ AUX)
    Blend: AUG-CC-PVTZ-JKFIT

    Orbital Energies [Eh]
    ---------------------

    Doubly Occupied:

       1A    -20.542249     2A    -20.542194     3A    -20.525520
       4A    -20.516421     5A    -20.513618     6A    -20.502925
       7A    -20.371468     8A    -20.371020     9A    -15.794199
      10A    -15.762941    11A    -15.762330    12A    -11.249009
      13A    -11.240907    14A    -11.240572    15A    -11.230347
      16A    -11.224021    17A    -11.223253    18A    -11.210230
      19A     -1.525665    20A     -1.498025    21A     -1.496960
      22A     -1.323535    23A     -1.296730    24A     -1.290695
      25A     -1.248036    26A     -1.154679    27A     -1.149533
      28A     -1.049920    29A     -1.041810    30A     -0.913197
      31A     -0.894504    32A     -0.893957    33A     -0.761300
      34A     -0.741278    35A     -0.712597    36A     -0.676349
      37A     -0.672679    38A     -0.660456    39A     -0.650897
      40A     -0.647480    41A     -0.634741    42A     -0.629272
      43A     -0.627839    44A     -0.604611    45A     -0.561950
      46A     -0.557783    47A     -0.521216    48A     -0.506176
      49A     -0.489447    50A     -0.466798    51A     -0.441164
      52A     -0.434154    53A     -0.428700    54A     -0.414964
      55A     -0.409213    56A     -0.402634    57A     -0.392966
      58A     -0.391539    59A     -0.357657    60A     -0.353368
      61A     -0.318160    62A     -0.307255    63A     -0.283448
      64A     -0.280892    65A     -0.265619

  @DF-RHF Final Energy: -1028.52603640612938

   => Energetics <=

    Nuclear Repulsion Energy =           1323.7452707809545700
    One-Electron Energy =               -4058.1324746175032487
    Two-Electron Energy =                1705.8611674304195276
    Total Energy =                      -1028.5260364061293785
  Basis Set: (AUG-CC-PVTZ AUX)
    Blend: AUG-CC-PVTZ-RI
    Molecular point group: c1

    Geometry (in Angstrom), charge = -1, multiplicity = 1:

       Center              X                  Y                   Z               Mass
    ------------   -----------------  -----------------  -----------------  -----------------
         O           -2.955397612447     0.883000716629    -0.744588186998    15.994914619570
         O           -2.955454612447    -0.885626283371     0.744411813002    15.994914619570
         O           -0.555972612447    -3.300131283371     0.783326813002    15.994914619570
         O           -0.555891612447     3.297512716629    -0.783338186998    15.994914619570
         O           -1.542310612447    -2.676494283371    -1.095961186998    15.994914619570
         O           -1.542325612447     2.673811716629     1.095878813002    15.994914619570
         O            3.953824387553    -1.099911283371    -0.052058186998    15.994914619570
         O            3.953836387553     1.097207716629     0.051946813002    15.994914619570
         N           -0.873249612447    -2.449213783371    -0.103985086998    14.003074004430
         N           -0.828139612447     2.470880716629     0.104753813002    14.003074004430
         N            3.372350387553    -0.001348283371    -0.000053186998    14.003074004430
         C           -0.914057612447    -0.001326283371    -0.000040186998    12.000000000000
         C           -0.153946612447    -1.172540283371    -0.021839186998    12.000000000000
         C           -0.153933612447     1.169882716629     0.021762813002    12.000000000000
         C            1.907383387553    -0.001341283371    -0.000045186998    12.000000000000
         C            1.235664387553    -1.219518283371    -0.007093186998    12.000000000000
         C            1.235676387553     1.216843716629     0.007007813002    12.000000000000
         C           -2.472527612447    -0.001316283371    -0.000072186998    12.000000000000
         H            1.773206387553    -2.161014283371    -0.004887186998     1.007825032230
         H            1.773229387553     2.158333716629     0.004801813002     1.007825032230

  Basis Set: AUG-CC-PVTZ
    Blend: AUG-CC-PVTZ
  Basis Set: (AUG-CC-PVTZ AUX)
    Blend: AUG-CC-PVTZ-JKFIT
	 Reference Energy          =   -1028.5260364061293785 [Eh]
	 Singles Energy            =      -0.0000000000000000 [Eh]
	 Same-Spin Energy          =      -1.0569510864183500 [Eh]
	 Opposite-Spin Energy      =      -2.9531771038819445 [Eh]
	 Correlation Energy        =      -4.0101281903002945 [Eh]
	 Total Energy              =   -1032.5361645964296713 [Eh]

	 ================> DF-SCS-MP2 Energies <==================
	-----------------------------------------------------------
	 SCS Same-Spin Scale       =       0.3333333333333333 [-]
	 SCS Opposite-Spin Scale   =       1.2000000000000000 [-]
	 SCS Same-Spin Energy      =      -0.3523170288061166 [Eh]
	 SCS Opposite-Spin Energy  =      -3.5438125246583332 [Eh]
	 SCS Correlation Energy    =      -3.8961295534644500 [Eh]
	 SCS Total Energy          =   -1032.4221659595939400 [Eh]
	-----------------------------------------------------------

  Dipole Moment: [D]
     X:     8.7393      Y:     0.0878      Z:    -0.0876     Total:     8.7401

*** Psi4 exiting successfully. Buy a developer a beer!
