                               Psi4 1.4a3.dev225

  ==> Input File <==

--------------------------------------------------------------------------
#psi4
#
memory 32 gb

molecule  {
-1 1
  O       -2.9714190     0.8843310    -0.7445430
  O       -2.9714760    -0.8842960     0.7444570
  O       -0.5719940    -3.2988010     0.7833720
  O       -0.5719130     3.2988430    -0.7832930
  O       -1.5583320    -2.6751640    -1.0959160
  O       -1.5583470     2.6751420     1.0959240
  O        3.9378030    -1.0985810    -0.0520130
  O        3.9378150     1.0985380     0.0519920
  N       -0.8441900    -2.4722020    -0.1047670
  N       -0.8441610     2.4722110     0.1047990
  N        3.3563290    -0.0000180    -0.0000080
  C       -0.9300790     0.0000040     0.0000050
  C       -0.1699680    -1.1712100    -0.0217940
  C       -0.1699550     1.1712130     0.0218080
  C        1.8913620    -0.0000110     0.0000000
  C        1.2196430    -1.2181880    -0.0070480
  C        1.3195923     1.2215513     0.0059919
  C       -2.4885490     0.0000140    -0.0000270
  H        1.7571850    -2.1596840    -0.0048420
  H        1.7572080     2.1596640     0.0048470
units angstrom
no_reorient  #important for SAPT in psi4, default
symmetry c1  #important for SAPT in psi4, default
}

set PROPERTIES_ORIGIN ["COM"]
properties('MP2/aug-cc-pvtz', properties = ['dipole'])
--------------------------------------------------------------------------

    Molecular point group: c1
  Charge       = -1
  Multiplicity = 1
  Basis Set: AUG-CC-PVTZ
    Blend: AUG-CC-PVTZ
  Basis Set: (AUG-CC-PVTZ AUX)
    Blend: AUG-CC-PVTZ-JKFIT

    Orbital Energies [Eh]
    ---------------------

    Doubly Occupied:

       1A    -20.543691     2A    -20.542283     3A    -20.516965
       4A    -20.515502     5A    -20.514203     6A    -20.512609
       7A    -20.368697     8A    -20.367864     9A    -15.792768
      10A    -15.763659    11A    -15.762613    12A    -11.249136
      13A    -11.247414    14A    -11.244248    15A    -11.227716
      16A    -11.227058    17A    -11.221810    18A    -11.207536
      19A     -1.526626    20A     -1.497546    21A     -1.495815
      22A     -1.324488    23A     -1.297213    24A     -1.295729
      25A     -1.245000    26A     -1.151710    27A     -1.147770
      28A     -1.055089    29A     -1.033488    30A     -0.910759
      31A     -0.897845    32A     -0.894575    33A     -0.757824
      34A     -0.741385    35A     -0.714217    36A     -0.676484
      37A     -0.672039    38A     -0.667199    39A     -0.650103
      40A     -0.648322    41A     -0.631957    42A     -0.629506
      43A     -0.625709    44A     -0.607562    45A     -0.565296
      46A     -0.547665    47A     -0.533283    48A     -0.501736
      49A     -0.486704    50A     -0.464215    51A     -0.441015
      52A     -0.434214    53A     -0.427268    54A     -0.416033
      55A     -0.406832    56A     -0.404078    57A     -0.394633
      58A     -0.392195    59A     -0.358097    60A     -0.353649
      61A     -0.321700    62A     -0.298401    63A     -0.281124
      64A     -0.278939    65A     -0.262794

  @DF-RHF Final Energy: -1028.51544150890345

   => Energetics <=

    Nuclear Repulsion Energy =           1322.3560999851620181
    One-Electron Energy =               -4055.3598697260058543
    Two-Electron Energy =                1704.4883282319403861
    Total Energy =                      -1028.5154415089034501
  Basis Set: (AUG-CC-PVTZ AUX)
    Blend: AUG-CC-PVTZ-RI
    Molecular point group: c1

    Geometry (in Angstrom), charge = -1, multiplicity = 1:

       Center              X                  Y                   Z               Mass
    ------------   -----------------  -----------------  -----------------  -----------------
         O           -2.962548523548     0.884172688055    -0.744493200106    15.994914619570
         O           -2.962605523548    -0.884454311945     0.744506799894    15.994914619570
         O           -0.563123523548    -3.298959311945     0.783421799894    15.994914619570
         O           -0.563042523548     3.298684688055    -0.783243200106    15.994914619570
         O           -1.549461523548    -2.675322311945    -1.095866200106    15.994914619570
         O           -1.549476523548     2.674983688055     1.095973799894    15.994914619570
         O            3.946673476452    -1.098739311945    -0.051963200106    15.994914619570
         O            3.946685476452     1.098379688055     0.052041799894    15.994914619570
         N           -0.835319523548    -2.472360311945    -0.104717200106    14.003074004430
         N           -0.835290523548     2.472052688055     0.104848799894    14.003074004430
         N            3.365199476452    -0.000176311945     0.000041799894    14.003074004430
         C           -0.921208523548    -0.000154311945     0.000054799894    12.000000000000
         C           -0.161097523548    -1.171368311945    -0.021744200106    12.000000000000
         C           -0.161084523548     1.171054688055     0.021857799894    12.000000000000
         C            1.900232476452    -0.000169311945     0.000049799894    12.000000000000
         C            1.228513476452    -1.218346311945    -0.006998200106    12.000000000000
         C            1.328462776452     1.221392988055     0.006041699894    12.000000000000
         C           -2.479678523548    -0.000144311945     0.000022799894    12.000000000000
         H            1.766055476452    -2.159842311945    -0.004792200106     1.007825032230
         H            1.766078476452     2.159505688055     0.004896799894     1.007825032230

  Basis Set: AUG-CC-PVTZ
    Blend: AUG-CC-PVTZ
  Basis Set: (AUG-CC-PVTZ AUX)
    Blend: AUG-CC-PVTZ-JKFIT
	 Reference Energy          =   -1028.5154415089034501 [Eh]
	 Singles Energy            =      -0.0000000000000000 [Eh]
	 Same-Spin Energy          =      -1.0571989255375527 [Eh]
	 Opposite-Spin Energy      =      -2.9544141455568740 [Eh]
	 Correlation Energy        =      -4.0116130710944269 [Eh]
	 Total Energy              =   -1032.5270545799978663 [Eh]

	 ================> DF-SCS-MP2 Energies <==================
	-----------------------------------------------------------
	 SCS Same-Spin Scale       =       0.3333333333333333 [-]
	 SCS Opposite-Spin Scale   =       1.2000000000000000 [-]
	 SCS Same-Spin Energy      =      -0.3523996418458509 [Eh]
	 SCS Opposite-Spin Energy  =      -3.5452969746682488 [Eh]
	 SCS Correlation Energy    =      -3.8976966165140996 [Eh]
	 SCS Total Energy          =   -1032.4131381254176176 [Eh]
	-----------------------------------------------------------

  Dipole Moment: [D]
     X:     8.8567      Y:     0.0052      Z:     0.0074     Total:     8.8567

*** Psi4 exiting successfully. Buy a developer a beer!
