                               Psi4 1.4a3.dev225

  ==> Input File <==

--------------------------------------------------------------------------
#psi4
#
memory 32 gb

molecule  {
-1 1
  O       -2.9714190     0.8843310    -0.7445430
  O       -2.9714760    -0.8842960     0.7444570
  O       -0.5719940    -3.2988010     0.7833720
  O       -0.5719130     3.2988430    -0.7832930
  O       -1.5583320    -2.6751640    -1.0959160
  O       -1.5583470     2.6751420     1.0959240
  O        3.9378030    -1.0985810    -0.0520130
  O        3.9378150     1.0985380     0.0519920
  N       -0.9334756    -2.4220096    -0.1030126
  N       -0.8441610     2.4722110     0.1047990
  N        3.3563290    -0.0000180    -0.0000080
  C       -0.9300790     0.0000040     0.0000050
  C       -0.1699680    -1.1712100    -0.0217940
  C       -0.1699550     1.1712130     0.0218080
  C        1.8913620    -0.0000110     0.0000000
  C        1.2196430    -1.2181880    -0.0070480
  C        1.2196550     1.2181740     0.0070530
  C       -2.4885490     0.0000140    -0.0000270
  H        1.7571850    -2.1596840    -0.0048420
  H        1.7572080     2.1596640     0.0048470
units angstrom
no_reorient  #important for SAPT in psi4, default
symmetry c1  #important for SAPT in psi4, default
}

set PROPERTIES_ORIGIN ["COM"]
properties('MP2/aug-cc-pvtz', properties = ['dipole'])
--------------------------------------------------------------------------

    Molecular point group: c1
  Charge       = -1
  Multiplicity = 1
  Basis Set: AUG-CC-PVTZ
    Blend: AUG-CC-PVTZ
  Basis Set: (AUG-CC-PVTZ AUX)
    Blend: AUG-CC-PVTZ-JKFIT

    Orbital Energies [Eh]
    ---------------------

    Doubly Occupied:

       1A    -20.542280     2A    -20.542211     3A    -20.534469
       4A    -20.516522     5A    -20.513722     6A    -20.492554
       7A    -20.373405     8A    -20.372396     9A    -15.794297
      10A    -15.762950    11A    -15.760900    12A    -11.249292
      13A    -11.241306    14A    -11.240409    15A    -11.231699
      16A    -11.224700    17A    -11.223179    18A    -11.209527
      19A     -1.525690    20A     -1.503013    21A     -1.497081
      22A     -1.323544    23A     -1.296847    24A     -1.278547
      25A     -1.249764    26A     -1.156418    27A     -1.149344
      28A     -1.050387    29A     -1.041003    30A     -0.914340
      31A     -0.895175    32A     -0.892486    33A     -0.761899
      34A     -0.741545    35A     -0.713006    36A     -0.677042
      37A     -0.672659    38A     -0.660937    39A     -0.650350
      40A     -0.647498    41A     -0.634840    42A     -0.629120
      43A     -0.627119    44A     -0.605006    45A     -0.561981
      46A     -0.558199    47A     -0.520877    48A     -0.507347
      49A     -0.489712    50A     -0.467985    51A     -0.441195
      52A     -0.434516    53A     -0.429356    54A     -0.413322
      55A     -0.409902    56A     -0.400548    57A     -0.391571
      58A     -0.389680    59A     -0.357086    60A     -0.351547
      61A     -0.318894    62A     -0.306957    63A     -0.284793
      64A     -0.281924    65A     -0.267368

  @DF-RHF Final Energy: -1028.51902604034558

   => Energetics <=

    Nuclear Repulsion Energy =           1323.9715881416657339
    One-Electron Energy =               -4058.5707557599939719
    Two-Electron Energy =                1706.0801415779828858
    Total Energy =                      -1028.5190260403455795
  Basis Set: (AUG-CC-PVTZ AUX)
    Blend: AUG-CC-PVTZ-RI
    Molecular point group: c1

    Geometry (in Angstrom), charge = -1, multiplicity = 1:

       Center              X                  Y                   Z               Mass
    ------------   -----------------  -----------------  -----------------  -----------------
         O           -2.952979493236     0.881585339617    -0.744638912985    15.994914619570
         O           -2.953036493236    -0.887041660383     0.744361087015    15.994914619570
         O           -0.553554493236    -3.301546660383     0.783276087015    15.994914619570
         O           -0.553473493236     3.296097339617    -0.783388912985    15.994914619570
         O           -1.539892493236    -2.677909660383    -1.096011912985    15.994914619570
         O           -1.539907493236     2.672396339617     1.095828087015    15.994914619570
         O            3.956242506764    -1.101326660383    -0.052108912985    15.994914619570
         O            3.956254506764     1.095792339617     0.051896087015    15.994914619570
         N           -0.915036093236    -2.424755260383    -0.103108512985    14.003074004430
         N           -0.825721493236     2.469465339617     0.104703087015    14.003074004430
         N            3.374768506764    -0.002763660383    -0.000103912985    14.003074004430
         C           -0.911639493236    -0.002741660383    -0.000090912985    12.000000000000
         C           -0.151528493236    -1.173955660383    -0.021889912985    12.000000000000
         C           -0.151515493236     1.168467339617     0.021712087015    12.000000000000
         C            1.909801506764    -0.002756660383    -0.000095912985    12.000000000000
         C            1.238082506764    -1.220933660383    -0.007143912985    12.000000000000
         C            1.238094506764     1.215428339617     0.006957087015    12.000000000000
         C           -2.470109493236    -0.002731660383    -0.000122912985    12.000000000000
         H            1.775624506764    -2.162429660383    -0.004937912985     1.007825032230
         H            1.775647506764     2.156918339617     0.004751087015     1.007825032230

  Basis Set: AUG-CC-PVTZ
    Blend: AUG-CC-PVTZ
  Basis Set: (AUG-CC-PVTZ AUX)
    Blend: AUG-CC-PVTZ-JKFIT
	 Reference Energy          =   -1028.5190260403455795 [Eh]
	 Singles Energy            =      -0.0000000000000000 [Eh]
	 Same-Spin Energy          =      -1.0570154673843446 [Eh]
	 Opposite-Spin Energy      =      -2.9535631451617528 [Eh]
	 Correlation Energy        =      -4.0105786125460972 [Eh]
	 Total Energy              =   -1032.5296046528917486 [Eh]

	 ================> DF-SCS-MP2 Energies <==================
	-----------------------------------------------------------
	 SCS Same-Spin Scale       =       0.3333333333333333 [-]
	 SCS Opposite-Spin Scale   =       1.2000000000000000 [-]
	 SCS Same-Spin Energy      =      -0.3523384891281148 [Eh]
	 SCS Opposite-Spin Energy  =      -3.5442757741941033 [Eh]
	 SCS Correlation Energy    =      -3.8966142633222183 [Eh]
	 SCS Total Energy          =   -1032.4156403036677148 [Eh]
	-----------------------------------------------------------

  Dipole Moment: [D]
     X:     8.6587      Y:     0.2036      Z:    -0.1787     Total:     8.6629

*** Psi4 exiting successfully. Buy a developer a beer!
