                               Psi4 1.4a3.dev225

  ==> Input File <==

--------------------------------------------------------------------------
#psi4
#
memory 32 gb

molecule  {
-1 1
  O       -2.9714190     0.8843310    -0.7445430
  O       -2.9714760    -0.8842960     0.7444570
  O       -0.5719940    -3.2988010     0.7833720
  O       -0.5719130     3.2988430    -0.7832930
  O       -1.5583320    -2.6751640    -1.0959160
  O       -1.5583470     2.6751420     1.0959240
  O        3.9378030    -1.0985810    -0.0520130
  O        3.9378150     1.0985380     0.0519920
  N       -0.8441900    -2.4722020    -0.1047670
  N       -0.8441610     2.4722110     0.1047990
  N        3.3563290    -0.0000180    -0.0000080
  C       -0.9300790     0.0000040     0.0000050
  C       -0.0611023    -1.3389553    -0.0249161
  C       -0.1699550     1.1712130     0.0218080
  C        1.8913620    -0.0000110     0.0000000
  C        1.2196430    -1.2181880    -0.0070480
  C        1.2196550     1.2181740     0.0070530
  C       -2.4885490     0.0000140    -0.0000270
  H        1.7571850    -2.1596840    -0.0048420
  H        1.7572080     2.1596640     0.0048470
units angstrom
no_reorient  #important for SAPT in psi4, default
symmetry c1  #important for SAPT in psi4, default
}

set PROPERTIES_ORIGIN ["COM"]
properties('MP2/aug-cc-pvtz', properties = ['dipole'])
--------------------------------------------------------------------------

    Molecular point group: c1
  Charge       = -1
  Multiplicity = 1
  Basis Set: AUG-CC-PVTZ
    Blend: AUG-CC-PVTZ
  Basis Set: (AUG-CC-PVTZ AUX)
    Blend: AUG-CC-PVTZ-JKFIT

    Orbital Energies [Eh]
    ---------------------

    Doubly Occupied:

       1A    -20.537523     2A    -20.535688     3A    -20.521451
       4A    -20.517230     5A    -20.515876     6A    -20.512966
       7A    -20.372606     8A    -20.372422     9A    -15.790389
      10A    -15.767855    11A    -15.762316    12A    -11.243445
      13A    -11.240257    14A    -11.234958    15A    -11.233022
      16A    -11.231586    17A    -11.230281    18A    -11.205908
      19A     -1.520849    20A     -1.510167    21A     -1.496369
      22A     -1.318692    23A     -1.304144    24A     -1.296201
      25A     -1.248210    26A     -1.155352    27A     -1.146814
      28A     -1.061841    29A     -1.041742    30A     -0.928589
      31A     -0.901469    32A     -0.881222    33A     -0.766983
      34A     -0.735267    35A     -0.713651    36A     -0.682737
      37A     -0.671715    38A     -0.661646    39A     -0.651784
      40A     -0.644127    41A     -0.638757    42A     -0.634362
      43A     -0.628616    44A     -0.607906    45A     -0.559911
      46A     -0.553326    47A     -0.512750    48A     -0.491824
      49A     -0.485205    50A     -0.464331    51A     -0.437393
      52A     -0.434824    53A     -0.426013    54A     -0.420728
      55A     -0.413578    56A     -0.405449    57A     -0.392832
      58A     -0.388016    59A     -0.361083    60A     -0.354942
      61A     -0.326161    62A     -0.307482    63A     -0.283823
      64A     -0.271035    65A     -0.266071

  @DF-RHF Final Energy: -1028.48766182659506

   => Energetics <=

    Nuclear Repulsion Energy =           1322.3477720939815754
    One-Electron Energy =               -4055.2073420443521172
    Two-Electron Energy =                1704.3719081237752562
    Total Energy =                      -1028.4876618265950583
  Basis Set: (AUG-CC-PVTZ AUX)
    Blend: AUG-CC-PVTZ-RI
    Molecular point group: c1

    Geometry (in Angstrom), charge = -1, multiplicity = 1:

       Center              X                  Y                   Z               Mass
    ------------   -----------------  -----------------  -----------------  -----------------
         O           -2.962967068148     0.892194555373    -0.744396584764    15.994914619570
         O           -2.963024068148    -0.876432444627     0.744603415236    15.994914619570
         O           -0.563542068148    -3.290937444627     0.783518415236    15.994914619570
         O           -0.563461068148     3.306706555373    -0.783146584764    15.994914619570
         O           -1.549880068148    -2.667300444627    -1.095769584764    15.994914619570
         O           -1.549895068148     2.683005555373     1.096070415236    15.994914619570
         O            3.946254931852    -1.090717444627    -0.051866584764    15.994914619570
         O            3.946266931852     1.106401555373     0.052138415236    15.994914619570
         N           -0.835738068148    -2.464338444627    -0.104620584764    14.003074004430
         N           -0.835709068148     2.480074555373     0.104945415236    14.003074004430
         N            3.364780931852     0.007845555373     0.000138415236    14.003074004430
         C           -0.921627068148     0.007867555373     0.000151415236    12.000000000000
         C           -0.052650368148    -1.331091744627    -0.024769684764    12.000000000000
         C           -0.161503068148     1.179076555373     0.021954415236    12.000000000000
         C            1.899813931852     0.007852555373     0.000146415236    12.000000000000
         C            1.228094931852    -1.210324444627    -0.006901584764    12.000000000000
         C            1.228106931852     1.226037555373     0.007199415236    12.000000000000
         C           -2.480097068148     0.007877555373     0.000119415236    12.000000000000
         H            1.765636931852    -2.151820444627    -0.004695584764     1.007825032230
         H            1.765659931852     2.167527555373     0.004993415236     1.007825032230

  Basis Set: AUG-CC-PVTZ
    Blend: AUG-CC-PVTZ
  Basis Set: (AUG-CC-PVTZ AUX)
    Blend: AUG-CC-PVTZ-JKFIT
	 Reference Energy          =   -1028.4876618265950583 [Eh]
	 Singles Energy            =      -0.0000000000000000 [Eh]
	 Same-Spin Energy          =      -1.0562436458570192 [Eh]
	 Opposite-Spin Energy      =      -2.9537217044967239 [Eh]
	 Correlation Energy        =      -4.0099653503537436 [Eh]
	 Total Energy              =   -1032.4976271769487539 [Eh]

	 ================> DF-SCS-MP2 Energies <==================
	-----------------------------------------------------------
	 SCS Same-Spin Scale       =       0.3333333333333333 [-]
	 SCS Opposite-Spin Scale   =       1.2000000000000000 [-]
	 SCS Same-Spin Energy      =      -0.3520812152856730 [Eh]
	 SCS Opposite-Spin Energy  =      -3.5444660453960686 [Eh]
	 SCS Correlation Energy    =      -3.8965472606817415 [Eh]
	 SCS Total Energy          =   -1032.3842090872767585 [Eh]
	-----------------------------------------------------------

  Dipole Moment: [D]
     X:     8.6742      Y:    -0.2393      Z:    -0.0556     Total:     8.6777

*** Psi4 exiting successfully. Buy a developer a beer!
