                               Psi4 1.4a3.dev225

  ==> Input File <==

--------------------------------------------------------------------------
#psi4
#
memory 32 gb

molecule  {
-1 1
  O       -2.9714190     0.8843310    -0.7445430
  O       -2.9714760    -0.8842960     0.7444570
  O       -0.5719940    -3.2988010     0.7833720
  O       -0.5719130     3.2988430    -0.7832930
  O       -1.5583320    -2.6751640    -1.0959160
  O       -1.5583470     2.6751420     1.0959240
  O        3.9378030    -1.0985810    -0.0520130
  O        3.9378150     1.0985380     0.0519920
  N       -0.8441900    -2.4722020    -0.1047670
  N       -0.8667885     2.4602104     0.1051499
  N        3.3563290    -0.0000180    -0.0000080
  C       -0.9300790     0.0000040     0.0000050
  C       -0.1699680    -1.1712100    -0.0217940
  C       -0.1699550     1.1712130     0.0218080
  C        1.8913620    -0.0000110     0.0000000
  C        1.2196430    -1.2181880    -0.0070480
  C        1.2196550     1.2181740     0.0070530
  C       -2.4885490     0.0000140    -0.0000270
  H        1.7571850    -2.1596840    -0.0048420
  H        1.7572080     2.1596640     0.0048470
units angstrom
no_reorient  #important for SAPT in psi4, default
symmetry c1  #important for SAPT in psi4, default
}

set PROPERTIES_ORIGIN ["COM"]
properties('MP2/aug-cc-pvtz', properties = ['dipole'])
--------------------------------------------------------------------------

    Molecular point group: c1
  Charge       = -1
  Multiplicity = 1
  Basis Set: AUG-CC-PVTZ
    Blend: AUG-CC-PVTZ
  Basis Set: (AUG-CC-PVTZ AUX)
    Blend: AUG-CC-PVTZ-JKFIT

    Orbital Energies [Eh]
    ---------------------

    Doubly Occupied:

       1A    -20.542238     2A    -20.542187     3A    -20.521199
       4A    -20.516382     5A    -20.513578     6A    -20.507974
       7A    -20.370595     8A    -20.370383     9A    -15.794150
      10A    -15.762948    11A    -15.762734    12A    -11.248866
      13A    -11.240796    14A    -11.240663    15A    -11.229719
      16A    -11.223676    17A    -11.223294    18A    -11.210595
      19A     -1.525654    20A     -1.497112    21A     -1.496819
      22A     -1.323532    23A     -1.296685    24A     -1.294489
      25A     -1.247235    26A     -1.153876    27A     -1.149610
      28A     -1.049700    29A     -1.042232    30A     -0.912689
      31A     -0.895522    32A     -0.893354    33A     -0.761031
      34A     -0.741351    35A     -0.712542    36A     -0.676054
      37A     -0.672705    38A     -0.660422    39A     -0.651222
      40A     -0.647471    41A     -0.634789    42A     -0.629471
      43A     -0.628036    44A     -0.604523    45A     -0.562027
      46A     -0.557657    47A     -0.521408    48A     -0.505628
      49A     -0.489316    50A     -0.466227    51A     -0.441142
      52A     -0.434010    53A     -0.428338    54A     -0.415892
      55A     -0.408531    56A     -0.403390    57A     -0.393874
      58A     -0.391582    59A     -0.357992    60A     -0.353718
      61A     -0.317814    62A     -0.307375    63A     -0.282817
      64A     -0.280397    65A     -0.264804

  @DF-RHF Final Energy: -1028.52789965074976

   => Energetics <=

    Nuclear Repulsion Energy =           1323.6251080907466076
    One-Electron Energy =               -4057.8979347584358948
    Two-Electron Energy =                1705.7449270169397550
    Total Energy =                      -1028.5278996507497595
  Basis Set: (AUG-CC-PVTZ AUX)
    Blend: AUG-CC-PVTZ-RI
    Molecular point group: c1

    Geometry (in Angstrom), charge = -1, multiplicity = 1:

       Center              X                  Y                   Z               Mass
    ------------   -----------------  -----------------  -----------------  -----------------
         O           -2.956625883706     0.884987476229    -0.744562137484    15.994914619570
         O           -2.956682883706    -0.883639523771     0.744437862516    15.994914619570
         O           -0.557200883706    -3.298144523771     0.783352862516    15.994914619570
         O           -0.557119883706     3.299499476229    -0.783312137484    15.994914619570
         O           -1.543538883706    -2.674507523771    -1.095935137484    15.994914619570
         O           -1.543553883706     2.675798476229     1.095904862516    15.994914619570
         O            3.952596116294    -1.097924523771    -0.052032137484    15.994914619570
         O            3.952608116294     1.099194476229     0.051972862516    15.994914619570
         N           -0.829396883706    -2.471545523771    -0.104786137484    14.003074004430
         N           -0.851995383706     2.460866876229     0.105130762516    14.003074004430
         N            3.371122116294     0.000638476229    -0.000027137484    14.003074004430
         C           -0.915285883706     0.000660476229    -0.000014137484    12.000000000000
         C           -0.155174883706    -1.170553523771    -0.021813137484    12.000000000000
         C           -0.155161883706     1.171869476229     0.021788862516    12.000000000000
         C            1.906155116294     0.000645476229    -0.000019137484    12.000000000000
         C            1.234436116294    -1.217531523771    -0.007067137484    12.000000000000
         C            1.234448116294     1.218830476229     0.007033862516    12.000000000000
         C           -2.473755883706     0.000670476229    -0.000046137484    12.000000000000
         H            1.771978116294    -2.159027523771    -0.004861137484     1.007825032230
         H            1.772001116294     2.160320476229     0.004827862516     1.007825032230

  Basis Set: AUG-CC-PVTZ
    Blend: AUG-CC-PVTZ
  Basis Set: (AUG-CC-PVTZ AUX)
    Blend: AUG-CC-PVTZ-JKFIT
	 Reference Energy          =   -1028.5278996507497595 [Eh]
	 Singles Energy            =      -0.0000000000000000 [Eh]
	 Same-Spin Energy          =      -1.0569237046215223 [Eh]
	 Opposite-Spin Energy      =      -2.9530503126042533 [Eh]
	 Correlation Energy        =      -4.0099740172257761 [Eh]
	 Total Energy              =   -1032.5378736679756457 [Eh]

	 ================> DF-SCS-MP2 Energies <==================
	-----------------------------------------------------------
	 SCS Same-Spin Scale       =       0.3333333333333333 [-]
	 SCS Opposite-Spin Scale   =       1.2000000000000000 [-]
	 SCS Same-Spin Energy      =      -0.3523079015405074 [Eh]
	 SCS Opposite-Spin Energy  =      -3.5436603751251039 [Eh]
	 SCS Correlation Energy    =      -3.8959682766656112 [Eh]
	 SCS Total Energy          =   -1032.4238679274153583 [Eh]
	-----------------------------------------------------------

  Dipole Moment: [D]
     X:     8.7772      Y:    -0.0417      Z:     0.0467     Total:     8.7774

*** Psi4 exiting successfully. Buy a developer a beer!
