                               Psi4 1.4a3.dev225

  ==> Input File <==

--------------------------------------------------------------------------
#psi4
#
memory 32 gb

molecule  {
-1 1
  O       -2.9714190     0.8843310    -0.7445430
  O       -2.9714760    -0.8842960     0.7444570
  O       -0.5719940    -3.2988010     0.7833720
  O       -0.5719130     3.2988430    -0.7832930
  O       -1.5583320    -2.6751640    -1.0959160
  O       -1.5583470     2.6751420     1.0959240
  O        3.9378030    -1.0985810    -0.0520130
  O        3.9378150     1.0985380     0.0519920
  N       -0.8441900    -2.4722020    -0.1047670
  N       -0.8441610     2.4722110     0.1047990
  N        3.3563290    -0.0000180    -0.0000080
  C       -0.8034806    -0.0729761    -0.0033541
  C       -0.1699680    -1.1712100    -0.0217940
  C       -0.1699550     1.1712130     0.0218080
  C        1.8913620    -0.0000110     0.0000000
  C        1.2196430    -1.2181880    -0.0070480
  C        1.2196550     1.2181740     0.0070530
  C       -2.4885490     0.0000140    -0.0000270
  H        1.7571850    -2.1596840    -0.0048420
  H        1.7572080     2.1596640     0.0048470
units angstrom
no_reorient  #important for SAPT in psi4, default
symmetry c1  #important for SAPT in psi4, default
}

set PROPERTIES_ORIGIN ["COM"]
properties('MP2/aug-cc-pvtz', properties = ['dipole'])
--------------------------------------------------------------------------

    Molecular point group: c1
  Charge       = -1
  Multiplicity = 1
  Basis Set: AUG-CC-PVTZ
    Blend: AUG-CC-PVTZ
  Basis Set: (AUG-CC-PVTZ AUX)
    Blend: AUG-CC-PVTZ-JKFIT

    Orbital Energies [Eh]
    ---------------------

    Doubly Occupied:

       1A    -20.541735     2A    -20.540680     3A    -20.517040
       4A    -20.516982     5A    -20.514469     6A    -20.513905
       7A    -20.374207     8A    -20.371368     9A    -15.793212
      10A    -15.765755    11A    -15.762584    12A    -11.246611
      13A    -11.239150    14A    -11.237868    15A    -11.224356
      16A    -11.222893    17A    -11.218019    18A    -11.185178
      19A     -1.524666    20A     -1.497504    21A     -1.497074
      22A     -1.322547    23A     -1.297279    24A     -1.296878
      25A     -1.243467    26A     -1.158494    27A     -1.153159
      28A     -1.056203    29A     -1.040917    30A     -0.910810
      31A     -0.900176    32A     -0.889975    33A     -0.756994
      34A     -0.749998    35A     -0.712731    36A     -0.675097
      37A     -0.665347    38A     -0.661218    39A     -0.647763
      40A     -0.646573    41A     -0.635019    42A     -0.629892
      43A     -0.628154    44A     -0.602378    45A     -0.568213
      46A     -0.551250    47A     -0.521031    48A     -0.492393
      49A     -0.491086    50A     -0.467400    51A     -0.440289
      52A     -0.432612    53A     -0.427612    54A     -0.417309
      55A     -0.408217    56A     -0.404264    57A     -0.398574
      58A     -0.390649    59A     -0.358474    60A     -0.354049
      61A     -0.324810    62A     -0.304500    63A     -0.285068
      64A     -0.271322    65A     -0.265738

  @DF-RHF Final Energy: -1028.50572076407298

   => Energetics <=

    Nuclear Repulsion Energy =           1324.3784823008768399
    One-Electron Energy =               -4059.4460354699135678
    Two-Electron Energy =                1706.5618324049637522
    Total Energy =                      -1028.5057207640729757
  Basis Set: (AUG-CC-PVTZ AUX)
    Blend: AUG-CC-PVTZ-RI
    Molecular point group: c1

    Geometry (in Angstrom), charge = -1, multiplicity = 1:

       Center              X                  Y                   Z               Mass
    ------------   -----------------  -----------------  -----------------  -----------------
         O           -2.963798339802     0.887752162254    -0.744385474703    15.994914619570
         O           -2.963855339802    -0.880874837746     0.744614525297    15.994914619570
         O           -0.564373339802    -3.295379837746     0.783529525297    15.994914619570
         O           -0.564292339802     3.302264162254    -0.783135474703    15.994914619570
         O           -1.550711339802    -2.671742837746    -1.095758474703    15.994914619570
         O           -1.550726339802     2.678563162254     1.096081525297    15.994914619570
         O            3.945423660198    -1.095159837746    -0.051855474703    15.994914619570
         O            3.945435660198     1.101959162254     0.052149525297    15.994914619570
         N           -0.836569339802    -2.468780837746    -0.104609474703    14.003074004430
         N           -0.836540339802     2.475632162254     0.104956525297    14.003074004430
         N            3.363949660198     0.003403162254     0.000149525297    14.003074004430
         C           -0.795859939802    -0.069554937746    -0.003196574703    12.000000000000
         C           -0.162347339802    -1.167788837746    -0.021636474703    12.000000000000
         C           -0.162334339802     1.174634162254     0.021965525297    12.000000000000
         C            1.898982660198     0.003410162254     0.000157525297    12.000000000000
         C            1.227263660198    -1.214766837746    -0.006890474703    12.000000000000
         C            1.227275660198     1.221595162254     0.007210525297    12.000000000000
         C           -2.480928339802     0.003435162254     0.000130525297    12.000000000000
         H            1.764805660198    -2.156262837746    -0.004684474703     1.007825032230
         H            1.764828660198     2.163085162254     0.005004525297     1.007825032230

  Basis Set: AUG-CC-PVTZ
    Blend: AUG-CC-PVTZ
  Basis Set: (AUG-CC-PVTZ AUX)
    Blend: AUG-CC-PVTZ-JKFIT
	 Reference Energy          =   -1028.5057207640729757 [Eh]
	 Singles Energy            =      -0.0000000000000000 [Eh]
	 Same-Spin Energy          =      -1.0570787852074441 [Eh]
	 Opposite-Spin Energy      =      -2.9530803986325598 [Eh]
	 Correlation Energy        =      -4.0101591838400044 [Eh]
	 Total Energy              =   -1032.5158799479129357 [Eh]

	 ================> DF-SCS-MP2 Energies <==================
	-----------------------------------------------------------
	 SCS Same-Spin Scale       =       0.3333333333333333 [-]
	 SCS Opposite-Spin Scale   =       1.2000000000000000 [-]
	 SCS Same-Spin Energy      =      -0.3523595950691480 [Eh]
	 SCS Opposite-Spin Energy  =      -3.5436964783590716 [Eh]
	 SCS Correlation Energy    =      -3.8960560734282197 [Eh]
	 SCS Total Energy          =   -1032.4017768375013020 [Eh]
	-----------------------------------------------------------

  Dipole Moment: [D]
     X:     8.6094      Y:     0.0872      Z:    -0.0190     Total:     8.6098

*** Psi4 exiting successfully. Buy a developer a beer!
