                               Psi4 1.4a3.dev225

  ==> Input File <==

--------------------------------------------------------------------------
#psi4
#
memory 32 gb

molecule  {
-1 1
  O       -2.9714190     0.8843310    -0.7445430
  O       -2.9714760    -0.8842960     0.7444570
  O       -0.5719940    -3.2988010     0.7833720
  O       -0.5719130     3.2988430    -0.7832930
  O       -1.5583320    -2.6751640    -1.0959160
  O       -1.5583470     2.6751420     1.0959240
  O        3.9378030    -1.0985810    -0.0520130
  O        3.9378150     1.0985380     0.0519920
  N       -0.8441900    -2.4722020    -0.1047670
  N       -0.8441610     2.4722110     0.1047990
  N        3.3563290    -0.0000180    -0.0000080
  C       -0.9300790     0.0000040     0.0000050
  C       -0.1705752    -1.1954704    -0.0218924
  C       -0.1699550     1.1712130     0.0218080
  C        1.8913620    -0.0000110     0.0000000
  C        1.2196430    -1.2181880    -0.0070480
  C        1.2196550     1.2181740     0.0070530
  C       -2.4885490     0.0000140    -0.0000270
  H        1.7571850    -2.1596840    -0.0048420
  H        1.7572080     2.1596640     0.0048470
units angstrom
no_reorient  #important for SAPT in psi4, default
symmetry c1  #important for SAPT in psi4, default
}

set PROPERTIES_ORIGIN ["COM"]
properties('MP2/aug-cc-pvtz', properties = ['dipole'])
--------------------------------------------------------------------------

    Molecular point group: c1
  Charge       = -1
  Multiplicity = 1
  Basis Set: AUG-CC-PVTZ
    Blend: AUG-CC-PVTZ
  Basis Set: (AUG-CC-PVTZ AUX)
    Blend: AUG-CC-PVTZ-JKFIT

    Orbital Energies [Eh]
    ---------------------

    Doubly Occupied:

       1A    -20.541786     2A    -20.541676     3A    -20.517215
       4A    -20.516284     5A    -20.514283     6A    -20.513476
       7A    -20.369821     8A    -20.369721     9A    -15.793858
      10A    -15.764050    11A    -15.762955    12A    -11.248221
      13A    -11.240995    14A    -11.240134    15A    -11.228889
      16A    -11.224070    17A    -11.222999    18A    -11.213745
      19A     -1.525248    20A     -1.499606    21A     -1.496835
      22A     -1.323126    23A     -1.298073    24A     -1.296582
      25A     -1.246393    26A     -1.153102    27A     -1.148173
      28A     -1.049173    29A     -1.044705    30A     -0.912746
      31A     -0.898066    32A     -0.892764    33A     -0.760871
      34A     -0.741124    35A     -0.712824    36A     -0.674786
      37A     -0.672726    38A     -0.661945    39A     -0.652314
      40A     -0.647164    41A     -0.635446    42A     -0.630836
      43A     -0.628650    44A     -0.605277    45A     -0.561346
      46A     -0.556029    47A     -0.520187    48A     -0.504282
      49A     -0.487851    50A     -0.465303    51A     -0.440808
      52A     -0.433626    53A     -0.427763    54A     -0.417561
      55A     -0.409084    56A     -0.404177    57A     -0.395933
      58A     -0.391304    59A     -0.358606    60A     -0.354087
      61A     -0.316364    62A     -0.307444    63A     -0.281983
      64A     -0.278945    65A     -0.264029

  @DF-RHF Final Energy: -1028.52797433728279

   => Energetics <=

    Nuclear Repulsion Energy =           1323.3518426115938382
    One-Electron Energy =               -4057.3407462901095641
    Two-Electron Energy =                1705.4609293412329407
    Total Energy =                      -1028.5279743372827852
  Basis Set: (AUG-CC-PVTZ AUX)
    Blend: AUG-CC-PVTZ-RI
    Molecular point group: c1

    Geometry (in Angstrom), charge = -1, multiplicity = 1:

       Center              X                  Y                   Z               Mass
    ------------   -----------------  -----------------  -----------------  -----------------
         O           -2.957835209009     0.885468285261    -0.744538329456    15.994914619570
         O           -2.957892209009    -0.883158714739     0.744461670544    15.994914619570
         O           -0.558410209009    -3.297663714739     0.783376670544    15.994914619570
         O           -0.558329209009     3.299980285261    -0.783288329456    15.994914619570
         O           -1.544748209009    -2.674026714739    -1.095911329456    15.994914619570
         O           -1.544763209009     2.676279285261     1.095928670544    15.994914619570
         O            3.951386790991    -1.097443714739    -0.052008329456    15.994914619570
         O            3.951398790991     1.099675285261     0.051996670544    15.994914619570
         N           -0.830606209009    -2.471064714739    -0.104762329456    14.003074004430
         N           -0.830577209009     2.473348285261     0.104803670544    14.003074004430
         N            3.369912790991     0.001119285261    -0.000003329456    14.003074004430
         C           -0.916495209009     0.001141285261     0.000009670544    12.000000000000
         C           -0.156991409009    -1.194333114739    -0.021887729456    12.000000000000
         C           -0.156371209009     1.172350285261     0.021812670544    12.000000000000
         C            1.904945790991     0.001126285261     0.000004670544    12.000000000000
         C            1.233226790991    -1.217050714739    -0.007043329456    12.000000000000
         C            1.233238790991     1.219311285261     0.007057670544    12.000000000000
         C           -2.474965209009     0.001151285261    -0.000022329456    12.000000000000
         H            1.770768790991    -2.158546714739    -0.004837329456     1.007825032230
         H            1.770791790991     2.160801285261     0.004851670544     1.007825032230

  Basis Set: AUG-CC-PVTZ
    Blend: AUG-CC-PVTZ
  Basis Set: (AUG-CC-PVTZ AUX)
    Blend: AUG-CC-PVTZ-JKFIT
	 Reference Energy          =   -1028.5279743372827852 [Eh]
	 Singles Energy            =      -0.0000000000000000 [Eh]
	 Same-Spin Energy          =      -1.0569130715485464 [Eh]
	 Opposite-Spin Energy      =      -2.9529822759081119 [Eh]
	 Correlation Energy        =      -4.0098953474566583 [Eh]
	 Total Energy              =   -1032.5378696847394622 [Eh]

	 ================> DF-SCS-MP2 Energies <==================
	-----------------------------------------------------------
	 SCS Same-Spin Scale       =       0.3333333333333333 [-]
	 SCS Opposite-Spin Scale   =       1.2000000000000000 [-]
	 SCS Same-Spin Energy      =      -0.3523043571828488 [Eh]
	 SCS Opposite-Spin Energy  =      -3.5435787310897342 [Eh]
	 SCS Correlation Energy    =      -3.8958830882725830 [Eh]
	 SCS Total Energy          =   -1032.4238574255552976 [Eh]
	-----------------------------------------------------------

  Dipole Moment: [D]
     X:     8.7993      Y:    -0.0377      Z:    -0.0047     Total:     8.7994

*** Psi4 exiting successfully. Buy a developer a beer!
