                               Psi4 1.4a3.dev225

  ==> Input File <==

--------------------------------------------------------------------------
#psi4
#
memory 32 gb

molecule  {
-1 1
  O       -2.9714190     0.8843310    -0.7445430
  O       -2.9714760    -0.8842960     0.7444570
  O       -0.5719940    -3.2988010     0.7833720
  O       -0.5719130     3.2988430    -0.7832930
  O       -1.5583320    -2.6751640    -1.0959160
  O       -1.5583470     2.6751420     1.0959240
  O        3.9378030    -1.0985810    -0.0520130
  O        3.9378150     1.0985380     0.0519920
  N       -0.8441900    -2.4722020    -0.1047670
  N       -0.8213282     2.4838153     0.1044228
  N        3.3563290    -0.0000180    -0.0000080
  C       -0.9300790     0.0000040     0.0000050
  C       -0.1699680    -1.1712100    -0.0217940
  C       -0.1699550     1.1712130     0.0218080
  C        1.8913620    -0.0000110     0.0000000
  C        1.2196430    -1.2181880    -0.0070480
  C        1.2196550     1.2181740     0.0070530
  C       -2.4885490     0.0000140    -0.0000270
  H        1.7571850    -2.1596840    -0.0048420
  H        1.7572080     2.1596640     0.0048470
units angstrom
no_reorient  #important for SAPT in psi4, default
symmetry c1  #important for SAPT in psi4, default
}

set PROPERTIES_ORIGIN ["COM"]
properties('MP2/aug-cc-pvtz', properties = ['dipole'])
--------------------------------------------------------------------------

    Molecular point group: c1
  Charge       = -1
  Multiplicity = 1
  Basis Set: AUG-CC-PVTZ
    Blend: AUG-CC-PVTZ
  Basis Set: (AUG-CC-PVTZ AUX)
    Blend: AUG-CC-PVTZ-JKFIT

    Orbital Energies [Eh]
    ---------------------

    Doubly Occupied:

       1A    -20.542242     2A    -20.542191     3A    -20.519128
       4A    -20.516323     5A    -20.513519     6A    -20.511490
       7A    -20.369158     8A    -20.368966     9A    -15.794073
      10A    -15.762985    11A    -15.762980    12A    -11.248599
      13A    -11.240869    14A    -11.240797    15A    -11.228513
      16A    -11.223398    17A    -11.223014    18A    -11.211356
      19A     -1.525654    20A     -1.498268    21A     -1.496866
      22A     -1.323548    23A     -1.296877    24A     -1.296588
      25A     -1.245686    26A     -1.152342    27A     -1.149757
      28A     -1.049286    29A     -1.043139    30A     -0.911802
      31A     -0.897690    32A     -0.892075    33A     -0.760573
      34A     -0.741905    35A     -0.712791    36A     -0.675568
      37A     -0.672751    38A     -0.660755    39A     -0.652078
      40A     -0.647477    41A     -0.634993    42A     -0.629850
      43A     -0.628229    44A     -0.604518    45A     -0.562354
      46A     -0.557534    47A     -0.521847    48A     -0.504580
      49A     -0.489022    50A     -0.465107    51A     -0.441138
      52A     -0.433775    53A     -0.427535    54A     -0.417692
      55A     -0.407046    56A     -0.403742    57A     -0.394642
      58A     -0.391659    59A     -0.358239    60A     -0.353637
      61A     -0.317117    62A     -0.307610    63A     -0.281592
      64A     -0.279414    65A     -0.263216

  @DF-RHF Final Energy: -1028.52815718869351

   => Energetics <=

    Nuclear Repulsion Energy =           1323.3672235357967111
    One-Electron Energy =               -4057.3924286972023765
    Two-Electron Energy =                1705.4970479727121528
    Total Energy =                      -1028.5281571886935126
  Basis Set: (AUG-CC-PVTZ AUX)
    Blend: AUG-CC-PVTZ-RI
    Molecular point group: c1

    Geometry (in Angstrom), charge = -1, multiplicity = 1:

       Center              X                  Y                   Z               Mass
    ------------   -----------------  -----------------  -----------------  -----------------
         O           -2.959112693331     0.883696220067    -0.744522363015    15.994914619570
         O           -2.959169693331    -0.884930779933     0.744477636985    15.994914619570
         O           -0.559687693331    -3.299435779933     0.783392636985    15.994914619570
         O           -0.559606693331     3.298208220067    -0.783272363015    15.994914619570
         O           -1.546025693331    -2.675798779933    -1.095895363015    15.994914619570
         O           -1.546040693331     2.674507220067     1.095944636985    15.994914619570
         O            3.950109306669    -1.099215779933    -0.051992363015    15.994914619570
         O            3.950121306669     1.097903220067     0.052012636985    15.994914619570
         N           -0.831883693331    -2.472836779933    -0.104746363015    14.003074004430
         N           -0.809021893331     2.483180520067     0.104443436985    14.003074004430
         N            3.368635306669    -0.000652779933     0.000012636985    14.003074004430
         C           -0.917772693331    -0.000630779933     0.000025636985    12.000000000000
         C           -0.157661693331    -1.171844779933    -0.021773363015    12.000000000000
         C           -0.157648693331     1.170578220067     0.021828636985    12.000000000000
         C            1.903668306669    -0.000645779933     0.000020636985    12.000000000000
         C            1.231949306669    -1.218822779933    -0.007027363015    12.000000000000
         C            1.231961306669     1.217539220067     0.007073636985    12.000000000000
         C           -2.476242693331    -0.000620779933    -0.000006363015    12.000000000000
         H            1.769491306669    -2.160318779933    -0.004821363015     1.007825032230
         H            1.769514306669     2.159029220067     0.004867636985     1.007825032230

  Basis Set: AUG-CC-PVTZ
    Blend: AUG-CC-PVTZ
  Basis Set: (AUG-CC-PVTZ AUX)
    Blend: AUG-CC-PVTZ-JKFIT
	 Reference Energy          =   -1028.5281571886935126 [Eh]
	 Singles Energy            =      -0.0000000000000000 [Eh]
	 Same-Spin Energy          =      -1.0569283430679142 [Eh]
	 Opposite-Spin Energy      =      -2.9530296319653577 [Eh]
	 Correlation Energy        =      -4.0099579750332719 [Eh]
	 Total Energy              =   -1032.5381151637268431 [Eh]

	 ================> DF-SCS-MP2 Energies <==================
	-----------------------------------------------------------
	 SCS Same-Spin Scale       =       0.3333333333333333 [-]
	 SCS Opposite-Spin Scale   =       1.2000000000000000 [-]
	 SCS Same-Spin Energy      =      -0.3523094476893047 [Eh]
	 SCS Opposite-Spin Energy  =      -3.5436355583584294 [Eh]
	 SCS Correlation Energy    =      -3.8959450060477341 [Eh]
	 SCS Total Energy          =   -1032.4241021947411809 [Eh]
	-----------------------------------------------------------

  Dipole Moment: [D]
     X:     8.8538      Y:     0.0354      Z:    -0.0463     Total:     8.8540

*** Psi4 exiting successfully. Buy a developer a beer!
