                               Psi4 1.4a3.dev225

  ==> Input File <==

--------------------------------------------------------------------------
#psi4
#
memory 32 gb

molecule  {
-1 1
  O       -2.9714190     0.8843310    -0.7445430
  O       -2.9714760    -0.8842960     0.7444570
  O       -0.5719940    -3.2988010     0.7833720
  O       -0.5719130     3.2988430    -0.7832930
  O       -1.5583320    -2.6751640    -1.0959160
  O       -1.5583470     2.6751420     1.0959240
  O        3.9378030    -1.0985810    -0.0520130
  O        3.9378150     1.0985380     0.0519920
  N       -0.8441900    -2.4722020    -0.1047670
  N       -0.8441610     2.4722110     0.1047990
  N        3.3563290    -0.0000180    -0.0000080
  C       -0.9300790     0.0000040     0.0000050
  C       -0.1699680    -1.1712100    -0.0217940
  C       -0.1590683     1.1879874     0.0221203
  C        1.8913620    -0.0000110     0.0000000
  C        1.2196430    -1.2181880    -0.0070480
  C        1.2196550     1.2181740     0.0070530
  C       -2.4885490     0.0000140    -0.0000270
  H        1.7571850    -2.1596840    -0.0048420
  H        1.7572080     2.1596640     0.0048470
units angstrom
no_reorient  #important for SAPT in psi4, default
symmetry c1  #important for SAPT in psi4, default
}

set PROPERTIES_ORIGIN ["COM"]
properties('MP2/aug-cc-pvtz', properties = ['dipole'])
--------------------------------------------------------------------------

    Molecular point group: c1
  Charge       = -1
  Multiplicity = 1
  Basis Set: AUG-CC-PVTZ
    Blend: AUG-CC-PVTZ
  Basis Set: (AUG-CC-PVTZ AUX)
    Blend: AUG-CC-PVTZ-JKFIT

    Orbital Energies [Eh]
    ---------------------

    Doubly Occupied:

       1A    -20.541764     2A    -20.541540     3A    -20.516865
       4A    -20.516333     5A    -20.513882     6A    -20.513510
       7A    -20.370084     8A    -20.370029     9A    -15.793746
      10A    -15.763536    11A    -15.762922    12A    -11.248150
      13A    -11.240819    14A    -11.240117    15A    -11.229376
      16A    -11.224079    17A    -11.221517    18A    -11.213956
      19A     -1.525172    20A     -1.498194    21A     -1.496864
      22A     -1.323055    23A     -1.297362    24A     -1.296621
      25A     -1.246632    26A     -1.153343    27A     -1.149182
      28A     -1.048465    29A     -1.044484    30A     -0.912587
      31A     -0.896167    32A     -0.893434    33A     -0.761261
      34A     -0.740856    35A     -0.712776    36A     -0.675227
      37A     -0.672712    38A     -0.661226    39A     -0.651538
      40A     -0.647105    41A     -0.635342    42A     -0.630203
      43A     -0.628545    44A     -0.604851    45A     -0.561554
      46A     -0.557515    47A     -0.520358    48A     -0.505121
      49A     -0.488582    50A     -0.465733    51A     -0.440762
      52A     -0.433677    53A     -0.427957    54A     -0.417282
      55A     -0.408338    56A     -0.404075    57A     -0.394944
      58A     -0.391261    59A     -0.358419    60A     -0.353963
      61A     -0.316334    62A     -0.308831    63A     -0.282503
      64A     -0.279050    65A     -0.264224

  @DF-RHF Final Energy: -1028.52829015560383

   => Energetics <=

    Nuclear Repulsion Energy =           1323.3648170168098659
    One-Electron Energy =               -4057.3743944130169439
    Two-Electron Energy =                1705.4812872406032511
    Total Energy =                      -1028.5282901556038269
  Basis Set: (AUG-CC-PVTZ AUX)
    Blend: AUG-CC-PVTZ-RI
    Molecular point group: c1

    Geometry (in Angstrom), charge = -1, multiplicity = 1:

       Center              X                  Y                   Z               Mass
    ------------   -----------------  -----------------  -----------------  -----------------
         O           -2.958374018849     0.883544660205    -0.744557582208    15.994914619570
         O           -2.958431018849    -0.885082339795     0.744442417792    15.994914619570
         O           -0.558949018849    -3.299587339795     0.783357417792    15.994914619570
         O           -0.558868018849     3.298056660205    -0.783307582208    15.994914619570
         O           -1.545287018849    -2.675950339795    -1.095930582208    15.994914619570
         O           -1.545302018849     2.674355660205     1.095909417792    15.994914619570
         O            3.950847981151    -1.099367339795    -0.052027582208    15.994914619570
         O            3.950859981151     1.097751660205     0.051977417792    15.994914619570
         N           -0.831145018849    -2.472988339795    -0.104781582208    14.003074004430
         N           -0.831116018849     2.471424660205     0.104784417792    14.003074004430
         N            3.369373981151    -0.000804339795    -0.000022582208    14.003074004430
         C           -0.917034018849    -0.000782339795    -0.000009582208    12.000000000000
         C           -0.156923018849    -1.171996339795    -0.021808582208    12.000000000000
         C           -0.146023318849     1.187201060205     0.022105717792    12.000000000000
         C            1.904406981151    -0.000797339795    -0.000014582208    12.000000000000
         C            1.232687981151    -1.218974339795    -0.007062582208    12.000000000000
         C            1.232699981151     1.217387660205     0.007038417792    12.000000000000
         C           -2.475504018849    -0.000772339795    -0.000041582208    12.000000000000
         H            1.770229981151    -2.160470339795    -0.004856582208     1.007825032230
         H            1.770252981151     2.158877660205     0.004832417792     1.007825032230

  Basis Set: AUG-CC-PVTZ
    Blend: AUG-CC-PVTZ
  Basis Set: (AUG-CC-PVTZ AUX)
    Blend: AUG-CC-PVTZ-JKFIT
	 Reference Energy          =   -1028.5282901556038269 [Eh]
	 Singles Energy            =      -0.0000000000000000 [Eh]
	 Same-Spin Energy          =      -1.0568499383891534 [Eh]
	 Opposite-Spin Energy      =      -2.9528931889083010 [Eh]
	 Correlation Energy        =      -4.0097431272974546 [Eh]
	 Total Energy              =   -1032.5380332829013241 [Eh]

	 ================> DF-SCS-MP2 Energies <==================
	-----------------------------------------------------------
	 SCS Same-Spin Scale       =       0.3333333333333333 [-]
	 SCS Opposite-Spin Scale   =       1.2000000000000000 [-]
	 SCS Same-Spin Energy      =      -0.3522833127963845 [Eh]
	 SCS Opposite-Spin Energy  =      -3.5434718266899612 [Eh]
	 SCS Correlation Energy    =      -3.8957551394863454 [Eh]
	 SCS Total Energy          =   -1032.4240452950900817 [Eh]
	-----------------------------------------------------------

  Dipole Moment: [D]
     X:     8.8039      Y:     0.0281      Z:     0.0062     Total:     8.8040

*** Psi4 exiting successfully. Buy a developer a beer!
