                               Psi4 1.4a3.dev225

  ==> Input File <==

--------------------------------------------------------------------------
#psi4
#
memory 32 gb

molecule  {
-1 1
  O       -2.9714190     0.8843310    -0.7445430
  O       -2.9714760    -0.8842960     0.7444570
  O       -0.5719940    -3.2988010     0.7833720
  O       -0.5719130     3.2988430    -0.7832930
  O       -1.5583320    -2.6751640    -1.0959160
  O       -1.5583470     2.6751420     1.0959240
  O        3.9378030    -1.0985810    -0.0520130
  O        3.9378150     1.0985380     0.0519920
  N       -0.8441900    -2.4722020    -0.1047670
  N       -0.8441610     2.4722110     0.1047990
  N        3.3563290    -0.0000180    -0.0000080
  C       -0.8465215    -0.0501276    -0.0022632
  C       -0.1699680    -1.1712100    -0.0217940
  C       -0.1699550     1.1712130     0.0218080
  C        1.8913620    -0.0000110     0.0000000
  C        1.2196430    -1.2181880    -0.0070480
  C        1.2196550     1.2181740     0.0070530
  C       -2.4885490     0.0000140    -0.0000270
  H        1.7571850    -2.1596840    -0.0048420
  H        1.7572080     2.1596640     0.0048470
units angstrom
no_reorient  #important for SAPT in psi4, default
symmetry c1  #important for SAPT in psi4, default
}

set PROPERTIES_ORIGIN ["COM"]
properties('MP2/aug-cc-pvtz', properties = ['dipole'])
--------------------------------------------------------------------------

    Molecular point group: c1
  Charge       = -1
  Multiplicity = 1
  Basis Set: AUG-CC-PVTZ
    Blend: AUG-CC-PVTZ
  Basis Set: (AUG-CC-PVTZ AUX)
    Blend: AUG-CC-PVTZ-JKFIT

    Orbital Energies [Eh]
    ---------------------

    Doubly Occupied:

       1A    -20.542060     2A    -20.541345     3A    -20.516920
       4A    -20.516869     5A    -20.514203     6A    -20.513912
       7A    -20.372072     8A    -20.370253     9A    -15.793657
      10A    -15.764909    11A    -15.762932    12A    -11.247527
      13A    -11.239652    14A    -11.234738    15A    -11.229620
      16A    -11.223941    17A    -11.219838    18A    -11.194199
      19A     -1.525145    20A     -1.497406    21A     -1.497115
      22A     -1.323028    23A     -1.297114    24A     -1.296934
      25A     -1.243805    26A     -1.155309    27A     -1.152565
      28A     -1.053553    29A     -1.042127    30A     -0.910946
      31A     -0.899253    32A     -0.891127    33A     -0.757817
      34A     -0.747443    35A     -0.712770    36A     -0.674001
      37A     -0.665590    38A     -0.659432    39A     -0.653716
      40A     -0.647036    41A     -0.635211    42A     -0.629933
      43A     -0.628286    44A     -0.603174    45A     -0.566696
      46A     -0.553058    47A     -0.521529    48A     -0.496277
      49A     -0.490894    50A     -0.466611    51A     -0.440713
      52A     -0.432989    53A     -0.427510    54A     -0.417231
      55A     -0.408127    56A     -0.404176    57A     -0.397417
      58A     -0.391103    59A     -0.358432    60A     -0.353992
      61A     -0.321556    62A     -0.305796    63A     -0.283539
      64A     -0.275193    65A     -0.265014

  @DF-RHF Final Energy: -1028.51947999048389

   => Energetics <=

    Nuclear Repulsion Energy =           1324.0443445407347554
    One-Electron Energy =               -4058.7749698546790569
    Two-Electron Energy =                1706.2111453234601868
    Total Energy =                      -1028.5194799904838874
  Basis Set: (AUG-CC-PVTZ AUX)
    Blend: AUG-CC-PVTZ-RI
    Molecular point group: c1

    Geometry (in Angstrom), charge = -1, multiplicity = 1:

       Center              X                  Y                   Z               Mass
    ------------   -----------------  -----------------  -----------------  -----------------
         O           -2.961780673000     0.886681072664    -0.744436613799    15.994914619570
         O           -2.961837673000    -0.881945927336     0.744563386201    15.994914619570
         O           -0.562355673000    -3.296450927336     0.783478386201    15.994914619570
         O           -0.562274673000     3.301193072664    -0.783186613799    15.994914619570
         O           -1.548693673000    -2.672813927336    -1.095809613799    15.994914619570
         O           -1.548708673000     2.677492072664     1.096030386201    15.994914619570
         O            3.947441327000    -1.096230927336    -0.051906613799    15.994914619570
         O            3.947453327000     1.100888072664     0.052098386201    15.994914619570
         N           -0.834551673000    -2.469851927336    -0.104660613799    14.003074004430
         N           -0.834522673000     2.474561072664     0.104905386201    14.003074004430
         N            3.365967327000     0.002332072664     0.000098386201    14.003074004430
         C           -0.836883173000    -0.047777527336    -0.002156813799    12.000000000000
         C           -0.160329673000    -1.168859927336    -0.021687613799    12.000000000000
         C           -0.160316673000     1.173563072664     0.021914386201    12.000000000000
         C            1.901000327000     0.002339072664     0.000106386201    12.000000000000
         C            1.229281327000    -1.215837927336    -0.006941613799    12.000000000000
         C            1.229293327000     1.220524072664     0.007159386201    12.000000000000
         C           -2.478910673000     0.002364072664     0.000079386201    12.000000000000
         H            1.766823327000    -2.157333927336    -0.004735613799     1.007825032230
         H            1.766846327000     2.162014072664     0.004953386201     1.007825032230

  Basis Set: AUG-CC-PVTZ
    Blend: AUG-CC-PVTZ
  Basis Set: (AUG-CC-PVTZ AUX)
    Blend: AUG-CC-PVTZ-JKFIT
	 Reference Energy          =   -1028.5194799904838874 [Eh]
	 Singles Energy            =      -0.0000000000000000 [Eh]
	 Same-Spin Energy          =      -1.0567925994536200 [Eh]
	 Opposite-Spin Energy      =      -2.9526041171746518 [Eh]
	 Correlation Energy        =      -4.0093967166282720 [Eh]
	 Total Energy              =   -1032.5288767071122038 [Eh]

	 ================> DF-SCS-MP2 Energies <==================
	-----------------------------------------------------------
	 SCS Same-Spin Scale       =       0.3333333333333333 [-]
	 SCS Opposite-Spin Scale   =       1.2000000000000000 [-]
	 SCS Same-Spin Energy      =      -0.3522641998178733 [Eh]
	 SCS Opposite-Spin Energy  =      -3.5431249406095819 [Eh]
	 SCS Correlation Energy    =      -3.8953891404274552 [Eh]
	 SCS Total Energy          =   -1032.4148691309112564 [Eh]
	-----------------------------------------------------------

  Dipole Moment: [D]
     X:     8.7169      Y:     0.0482      Z:    -0.0126     Total:     8.7170

*** Psi4 exiting successfully. Buy a developer a beer!
