                               Psi4 1.4a3.dev225

  ==> Input File <==

--------------------------------------------------------------------------
#psi4
#
memory 32 gb

molecule  {
-1 1
  O       -2.9714190     0.8843310    -0.7445430
  O       -2.9714760    -0.8842960     0.7444570
  O       -0.5719940    -3.2988010     0.7833720
  O       -0.5719130     3.2988430    -0.7832930
  O       -1.5583320    -2.6751640    -1.0959160
  O       -1.5583470     2.6751420     1.0959240
  O        3.9378030    -1.0985810    -0.0520130
  O        3.9378150     1.0985380     0.0519920
  N       -0.8441900    -2.4722020    -0.1047670
  N       -0.8153254     2.4640176     0.0647818
  N        3.3563290    -0.0000180    -0.0000080
  C       -0.9300790     0.0000040     0.0000050
  C       -0.1699680    -1.1712100    -0.0217940
  C       -0.1699550     1.1712130     0.0218080
  C        1.8913620    -0.0000110     0.0000000
  C        1.2196430    -1.2181880    -0.0070480
  C        1.2196550     1.2181740     0.0070530
  C       -2.4885490     0.0000140    -0.0000270
  H        1.7571850    -2.1596840    -0.0048420
  H        1.7572080     2.1596640     0.0048470
units angstrom
no_reorient  #important for SAPT in psi4, default
symmetry c1  #important for SAPT in psi4, default
}

set PROPERTIES_ORIGIN ["COM"]
properties('MP2/aug-cc-pvtz', properties = ['dipole'])
--------------------------------------------------------------------------

    Molecular point group: c1
  Charge       = -1
  Multiplicity = 1
  Basis Set: AUG-CC-PVTZ
    Blend: AUG-CC-PVTZ
  Basis Set: (AUG-CC-PVTZ AUX)
    Blend: AUG-CC-PVTZ-JKFIT

    Orbital Energies [Eh]
    ---------------------

    Doubly Occupied:

       1A    -20.542854     2A    -20.542804     3A    -20.530092
       4A    -20.516700     5A    -20.513887     6A    -20.498767
       7A    -20.369088     8A    -20.368808     9A    -15.794715
      10A    -15.763369    11A    -15.761848    12A    -11.249397
      13A    -11.241422    14A    -11.240966    15A    -11.228553
      16A    -11.224439    17A    -11.224385    18A    -11.212338
      19A     -1.526272    20A     -1.497720    21A     -1.497214
      22A     -1.324161    23A     -1.296977    24A     -1.280919
      25A     -1.245338    26A     -1.152205    27A     -1.151252
      28A     -1.051950    29A     -1.046500    30A     -0.913618
      31A     -0.901381    32A     -0.894178    33A     -0.761348
      34A     -0.742210    35A     -0.713343    36A     -0.676067
      37A     -0.673712    38A     -0.661778    39A     -0.652425
      40A     -0.648117    41A     -0.635199    42A     -0.629254
      43A     -0.626505    44A     -0.603587    45A     -0.561124
      46A     -0.556847    47A     -0.522564    48A     -0.504733
      49A     -0.489046    50A     -0.465026    51A     -0.441687
      52A     -0.434233    53A     -0.427696    54A     -0.417317
      55A     -0.408634    56A     -0.400236    57A     -0.394724
      58A     -0.392193    59A     -0.357317    60A     -0.350372
      61A     -0.317114    62A     -0.308348    63A     -0.281524
      64A     -0.279537    65A     -0.262798

  @DF-RHF Final Energy: -1028.52205196097179

   => Energetics <=

    Nuclear Repulsion Energy =           1323.6800840375353800
    One-Electron Energy =               -4058.0028103118070248
    Two-Electron Energy =                1705.8006743132998508
    Total Energy =                      -1028.5220519609717940
  Basis Set: (AUG-CC-PVTZ AUX)
    Blend: AUG-CC-PVTZ-RI
    Molecular point group: c1

    Geometry (in Angstrom), charge = -1, multiplicity = 1:

       Center              X                  Y                   Z               Mass
    ------------   -----------------  -----------------  -----------------  -----------------
         O           -2.959441063817     0.884779211400    -0.742353885897    15.994914619570
         O           -2.959498063817    -0.883847788600     0.746646114103    15.994914619570
         O           -0.560016063817    -3.298352788600     0.785561114103    15.994914619570
         O           -0.559935063817     3.299291211400    -0.781103885897    15.994914619570
         O           -1.546354063817    -2.674715788600    -1.093726885897    15.994914619570
         O           -1.546369063817     2.675590211400     1.098113114103    15.994914619570
         O            3.949780936183    -1.098132788600    -0.049823885897    15.994914619570
         O            3.949792936183     1.098986211400     0.054181114103    15.994914619570
         N           -0.832212063817    -2.471753788600    -0.102577885897    14.003074004430
         N           -0.803347463817     2.464465811400     0.066970914103    14.003074004430
         N            3.368306936183     0.000430211400     0.002181114103    14.003074004430
         C           -0.918101063817     0.000452211400     0.002194114103    12.000000000000
         C           -0.157990063817    -1.170761788600    -0.019604885897    12.000000000000
         C           -0.157977063817     1.171661211400     0.023997114103    12.000000000000
         C            1.903339936183     0.000437211400     0.002189114103    12.000000000000
         C            1.231620936183    -1.217739788600    -0.004858885897    12.000000000000
         C            1.231632936183     1.218622211400     0.009242114103    12.000000000000
         C           -2.476571063817     0.000462211400     0.002162114103    12.000000000000
         H            1.769162936183    -2.159235788600    -0.002652885897     1.007825032230
         H            1.769185936183     2.160112211400     0.007036114103     1.007825032230

  Basis Set: AUG-CC-PVTZ
    Blend: AUG-CC-PVTZ
  Basis Set: (AUG-CC-PVTZ AUX)
    Blend: AUG-CC-PVTZ-JKFIT
	 Reference Energy          =   -1028.5220519609717940 [Eh]
	 Singles Energy            =      -0.0000000000000000 [Eh]
	 Same-Spin Energy          =      -1.0575433070619304 [Eh]
	 Opposite-Spin Energy      =      -2.9544133605960403 [Eh]
	 Correlation Energy        =      -4.0119566676579712 [Eh]
	 Total Energy              =   -1032.5340086286298629 [Eh]

	 ================> DF-SCS-MP2 Energies <==================
	-----------------------------------------------------------
	 SCS Same-Spin Scale       =       0.3333333333333333 [-]
	 SCS Opposite-Spin Scale   =       1.2000000000000000 [-]
	 SCS Same-Spin Energy      =      -0.3525144356873101 [Eh]
	 SCS Opposite-Spin Energy  =      -3.5452960327152483 [Eh]
	 SCS Correlation Energy    =      -3.8978104684025583 [Eh]
	 SCS Total Energy          =   -1032.4198624293744615 [Eh]
	-----------------------------------------------------------

  Dipole Moment: [D]
     X:     8.9294      Y:    -0.0474      Z:    -0.1816     Total:     8.9314

*** Psi4 exiting successfully. Buy a developer a beer!
