                               Psi4 1.4a3.dev225

  ==> Input File <==

--------------------------------------------------------------------------
#psi4
#
memory 32 gb

molecule  {
-1 1
  O       -2.9714190     0.8843310    -0.7445430
  O       -2.9714760    -0.8842960     0.7444570
  O       -0.5719940    -3.2988010     0.7833720
  O       -0.5719130     3.2988430    -0.7832930
  O       -1.5583320    -2.6751640    -1.0959160
  O       -1.5583470     2.6751420     1.0959240
  O        3.9378030    -1.0985810    -0.0520130
  O        3.9378150     1.0985380     0.0519920
  N       -0.8441900    -2.4722020    -0.1047670
  N       -0.8441610     2.4722110     0.1047990
  N        3.3563290    -0.0000180    -0.0000080
  C       -0.9300790     0.0000040     0.0000050
  C       -0.1699680    -1.1712100    -0.0217940
  C       -0.1699550     1.1712130     0.0218080
  C        1.8913620    -0.0000110     0.0000000
  C        1.1954999    -1.2619721    -0.0073013
  C        1.2196550     1.2181740     0.0070530
  C       -2.4885490     0.0000140    -0.0000270
  H        1.7571850    -2.1596840    -0.0048420
  H        1.7572080     2.1596640     0.0048470
units angstrom
no_reorient  #important for SAPT in psi4, default
symmetry c1  #important for SAPT in psi4, default
}

set PROPERTIES_ORIGIN ["COM"]
properties('MP2/aug-cc-pvtz', properties = ['dipole'])
--------------------------------------------------------------------------

    Molecular point group: c1
  Charge       = -1
  Multiplicity = 1
  Basis Set: AUG-CC-PVTZ
    Blend: AUG-CC-PVTZ
  Basis Set: (AUG-CC-PVTZ AUX)
    Blend: AUG-CC-PVTZ-JKFIT

    Orbital Energies [Eh]
    ---------------------

    Doubly Occupied:

       1A    -20.541233     2A    -20.540685     3A    -20.516598
       4A    -20.516012     5A    -20.513749     6A    -20.513250
       7A    -20.370728     8A    -20.370488     9A    -15.793374
      10A    -15.763126    11A    -15.761973    12A    -11.251790
      13A    -11.240517    14A    -11.240484    15A    -11.230179
      16A    -11.224685    17A    -11.224475    18A    -11.212816
      19A     -1.524471    20A     -1.497192    21A     -1.496819
      22A     -1.322417    23A     -1.296883    24A     -1.296493
      25A     -1.247279    26A     -1.153907    27A     -1.147420
      28A     -1.048268    29A     -1.044038    30A     -0.910825
      31A     -0.898545    32A     -0.891270    33A     -0.760053
      34A     -0.741417    35A     -0.711527    36A     -0.677862
      37A     -0.671677    38A     -0.658130    39A     -0.652175
      40A     -0.646166    41A     -0.635930    42A     -0.629826
      43A     -0.628218    44A     -0.605511    45A     -0.562675
      46A     -0.560935    47A     -0.520970    48A     -0.506740
      49A     -0.488633    50A     -0.465966    51A     -0.439967
      52A     -0.433228    53A     -0.427763    54A     -0.417226
      55A     -0.407219    56A     -0.403339    57A     -0.393971
      58A     -0.390912    59A     -0.358392    60A     -0.353896
      61A     -0.316522    62A     -0.310038    63A     -0.283393
      64A     -0.278846    65A     -0.264706

  @DF-RHF Final Energy: -1028.52545328913357

   => Energetics <=

    Nuclear Repulsion Energy =           1323.1178659627398702
    One-Electron Energy =               -4056.8750089316913545
    Two-Electron Energy =                1705.2316896798179187
    Total Energy =                      -1028.5254532891335657
  Basis Set: (AUG-CC-PVTZ AUX)
    Blend: AUG-CC-PVTZ-RI
    Molecular point group: c1

    Geometry (in Angstrom), charge = -1, multiplicity = 1:

       Center              X                  Y                   Z               Mass
    ------------   -----------------  -----------------  -----------------  -----------------
         O           -2.956731895554     0.886383515224    -0.744531068070    15.994914619570
         O           -2.956788895554    -0.882243484776     0.744468931930    15.994914619570
         O           -0.557306895554    -3.296748484776     0.783383931930    15.994914619570
         O           -0.557225895554     3.300895515224    -0.783281068070    15.994914619570
         O           -1.543644895554    -2.673111484776    -1.095904068070    15.994914619570
         O           -1.543659895554     2.677194515224     1.095935931930    15.994914619570
         O            3.952490104446    -1.096528484776    -0.052001068070    15.994914619570
         O            3.952502104446     1.100590515224     0.052003931930    15.994914619570
         N           -0.829502895554    -2.470149484776    -0.104755068070    14.003074004430
         N           -0.829473895554     2.474263515224     0.104810931930    14.003074004430
         N            3.371016104446     0.002034515224     0.000003931930    14.003074004430
         C           -0.915391895554     0.002056515224     0.000016931930    12.000000000000
         C           -0.155280895554    -1.169157484776    -0.021782068070    12.000000000000
         C           -0.155267895554     1.173265515224     0.021819931930    12.000000000000
         C            1.906049104446     0.002041515224     0.000011931930    12.000000000000
         C            1.210187004446    -1.259919584776    -0.007289368070    12.000000000000
         C            1.234342104446     1.220226515224     0.007064931930    12.000000000000
         C           -2.473861895554     0.002066515224    -0.000015068070    12.000000000000
         H            1.771872104446    -2.157631484776    -0.004830068070     1.007825032230
         H            1.771895104446     2.161716515224     0.004858931930     1.007825032230

  Basis Set: AUG-CC-PVTZ
    Blend: AUG-CC-PVTZ
  Basis Set: (AUG-CC-PVTZ AUX)
    Blend: AUG-CC-PVTZ-JKFIT
	 Reference Energy          =   -1028.5254532891335657 [Eh]
	 Singles Energy            =      -0.0000000000000000 [Eh]
	 Same-Spin Energy          =      -1.0568171195374534 [Eh]
	 Opposite-Spin Energy      =      -2.9530734002606582 [Eh]
	 Correlation Energy        =      -4.0098905197981116 [Eh]
	 Total Energy              =   -1032.5353438089316569 [Eh]

	 ================> DF-SCS-MP2 Energies <==================
	-----------------------------------------------------------
	 SCS Same-Spin Scale       =       0.3333333333333333 [-]
	 SCS Opposite-Spin Scale   =       1.2000000000000000 [-]
	 SCS Same-Spin Energy      =      -0.3522723731791511 [Eh]
	 SCS Opposite-Spin Energy  =      -3.5436880803127897 [Eh]
	 SCS Correlation Energy    =      -3.8959604534919410 [Eh]
	 SCS Total Energy          =   -1032.4214137426254183 [Eh]
	-----------------------------------------------------------

  Dipole Moment: [D]
     X:     8.7738      Y:     0.0320      Z:     0.0065     Total:     8.7738

*** Psi4 exiting successfully. Buy a developer a beer!
