                               Psi4 1.4a3.dev225

  ==> Input File <==

--------------------------------------------------------------------------
#psi4
#
memory 32 gb

molecule  {
-1 1
  O       -2.9714190     0.8843310    -0.7445430
  O       -2.9714760    -0.8842960     0.7444570
  O       -0.5719940    -3.2988010     0.7833720
  O       -0.5719130     3.2988430    -0.7832930
  O       -1.5583320    -2.6751640    -1.0959160
  O       -1.5583470     2.6751420     1.0959240
  O        3.9378030    -1.0985810    -0.0520130
  O        3.9378150     1.0985380     0.0519920
  N       -0.8441900    -2.4722020    -0.1047670
  N       -0.9766064     2.3943950     0.1065217
  N        3.3563290    -0.0000180    -0.0000080
  C       -0.9300790     0.0000040     0.0000050
  C       -0.1699680    -1.1712100    -0.0217940
  C       -0.1699550     1.1712130     0.0218080
  C        1.8913620    -0.0000110     0.0000000
  C        1.2196430    -1.2181880    -0.0070480
  C        1.2196550     1.2181740     0.0070530
  C       -2.4885490     0.0000140    -0.0000270
  H        1.7571850    -2.1596840    -0.0048420
  H        1.7572080     2.1596640     0.0048470
units angstrom
no_reorient  #important for SAPT in psi4, default
symmetry c1  #important for SAPT in psi4, default
}

set PROPERTIES_ORIGIN ["COM"]
properties('MP2/aug-cc-pvtz', properties = ['dipole'])
--------------------------------------------------------------------------

    Molecular point group: c1
  Charge       = -1
  Multiplicity = 1
  Basis Set: AUG-CC-PVTZ
    Blend: AUG-CC-PVTZ
  Basis Set: (AUG-CC-PVTZ AUX)
    Blend: AUG-CC-PVTZ-JKFIT

    Orbital Energies [Eh]
    ---------------------

    Doubly Occupied:

       1A    -20.544348     2A    -20.542296     3A    -20.542212
       4A    -20.516647     5A    -20.513851     6A    -20.481292
       7A    -20.375627     8A    -20.373923     9A    -15.794372
      10A    -15.762978    11A    -15.758446    12A    -11.249544
      13A    -11.241842    14A    -11.240256    15A    -11.233187
      16A    -11.225308    17A    -11.223082    18A    -11.208835
      19A     -1.525699    20A     -1.512782    21A     -1.497212
      22A     -1.323536    23A     -1.296988    24A     -1.260839
      25A     -1.251620    26A     -1.158352    27A     -1.149025
      28A     -1.050865    29A     -1.040206    30A     -0.915643
      31A     -0.896249    32A     -0.890615    33A     -0.762581
      34A     -0.742511    35A     -0.713848    36A     -0.677865
      37A     -0.672764    38A     -0.662075    39A     -0.649948
      40A     -0.647492    41A     -0.635238    42A     -0.629248
      43A     -0.626778    44A     -0.605919    45A     -0.562437
      46A     -0.558888    47A     -0.520592    48A     -0.508613
      49A     -0.490042    50A     -0.469203    51A     -0.441148
      52A     -0.435009    53A     -0.429895    54A     -0.412459
      55A     -0.409088    56A     -0.397580    57A     -0.391475
      58A     -0.384245    59A     -0.356921    60A     -0.348143
      61A     -0.319659    62A     -0.306474    63A     -0.286249
      64A     -0.283005    65A     -0.269296

  @DF-RHF Final Energy: -1028.50767841455217

   => Energetics <=

    Nuclear Repulsion Energy =           1324.1988810540249233
    One-Electron Energy =               -4059.0043905320590056
    Two-Electron Energy =                1706.2978310634816808
    Total Energy =                      -1028.5076784145521742
  Basis Set: (AUG-CC-PVTZ AUX)
    Blend: AUG-CC-PVTZ-RI
    Molecular point group: c1

    Geometry (in Angstrom), charge = -1, multiplicity = 1:

       Center              X                  Y                   Z               Mass
    ------------   -----------------  -----------------  -----------------  -----------------
         O           -2.950618527601     0.888587768576    -0.744637178903    15.994914619570
         O           -2.950675527601    -0.880039231424     0.744362821097    15.994914619570
         O           -0.551193527601    -3.294544231424     0.783277821097    15.994914619570
         O           -0.551112527601     3.303099768576    -0.783387178903    15.994914619570
         O           -1.537531527601    -2.670907231424    -1.096010178903    15.994914619570
         O           -1.537546527601     2.679398768576     1.095829821097    15.994914619570
         O            3.958603472399    -1.094324231424    -0.052107178903    15.994914619570
         O            3.958615472399     1.102794768576     0.051897821097    15.994914619570
         N           -0.823389527601    -2.467945231424    -0.104861178903    14.003074004430
         N           -0.955805927601     2.398651768576     0.106427521097    14.003074004430
         N            3.377129472399     0.004238768576    -0.000102178903    14.003074004430
         C           -0.909278527601     0.004260768576    -0.000089178903    12.000000000000
         C           -0.149167527601    -1.166953231424    -0.021888178903    12.000000000000
         C           -0.149154527601     1.175469768576     0.021713821097    12.000000000000
         C            1.912162472399     0.004245768576    -0.000094178903    12.000000000000
         C            1.240443472399    -1.213931231424    -0.007142178903    12.000000000000
         C            1.240455472399     1.222430768576     0.006958821097    12.000000000000
         C           -2.467748527601     0.004270768576    -0.000121178903    12.000000000000
         H            1.777985472399    -2.155427231424    -0.004936178903     1.007825032230
         H            1.778008472399     2.163920768576     0.004752821097     1.007825032230

  Basis Set: AUG-CC-PVTZ
    Blend: AUG-CC-PVTZ
  Basis Set: (AUG-CC-PVTZ AUX)
    Blend: AUG-CC-PVTZ-JKFIT
	 Reference Energy          =   -1028.5076784145521742 [Eh]
	 Singles Energy            =      -0.0000000000000000 [Eh]
	 Same-Spin Energy          =      -1.0569295234549594 [Eh]
	 Opposite-Spin Energy      =      -2.9537898421420357 [Eh]
	 Correlation Energy        =      -4.0107193655969953 [Eh]
	 Total Energy              =   -1032.5183977801491437 [Eh]

	 ================> DF-SCS-MP2 Energies <==================
	-----------------------------------------------------------
	 SCS Same-Spin Scale       =       0.3333333333333333 [-]
	 SCS Opposite-Spin Scale   =       1.2000000000000000 [-]
	 SCS Same-Spin Energy      =      -0.3523098411516531 [Eh]
	 SCS Opposite-Spin Energy  =      -3.5445478105704429 [Eh]
	 SCS Correlation Energy    =      -3.8968576517220961 [Eh]
	 SCS Total Energy          =   -1032.4045360662742041 [Eh]
	-----------------------------------------------------------

  Dipole Moment: [D]
     X:     8.5647      Y:    -0.3642      Z:     0.3024     Total:     8.5778

*** Psi4 exiting successfully. Buy a developer a beer!
