                               Psi4 1.4a3.dev225

  ==> Input File <==

--------------------------------------------------------------------------
#psi4
#
memory 32 gb

molecule  {
-1 1
  O       -2.9714190     0.8843310    -0.7445430
  O       -2.9714760    -0.8842960     0.7444570
  O       -0.5719940    -3.2988010     0.7833720
  O       -0.5719130     3.2988430    -0.7832930
  O       -1.5583320    -2.6751640    -1.0959160
  O       -1.5583470     2.6751420     1.0959240
  O        3.9378030    -1.0985810    -0.0520130
  O        3.9378150     1.0985380     0.0519920
  N       -0.8441900    -2.4722020    -0.1047670
  N       -0.8441610     2.4722110     0.1047990
  N        3.3563290    -0.0000180    -0.0000080
  C       -0.9300790     0.0000040     0.0000050
  C       -0.1699680    -1.1712100    -0.0217940
  C       -0.1699550     1.1712130     0.0218080
  C        1.8913620    -0.0000110     0.0000000
  C        1.2196430    -1.2181880    -0.0070480
  C        1.2696237     1.2198627     0.0065224
  C       -2.4885490     0.0000140    -0.0000270
  H        1.7571850    -2.1596840    -0.0048420
  H        1.7572080     2.1596640     0.0048470
units angstrom
no_reorient  #important for SAPT in psi4, default
symmetry c1  #important for SAPT in psi4, default
}

set PROPERTIES_ORIGIN ["COM"]
properties('MP2/aug-cc-pvtz', properties = ['dipole'])
--------------------------------------------------------------------------

    Molecular point group: c1
  Charge       = -1
  Multiplicity = 1
  Basis Set: AUG-CC-PVTZ
    Blend: AUG-CC-PVTZ
  Basis Set: (AUG-CC-PVTZ AUX)
    Blend: AUG-CC-PVTZ-JKFIT

    Orbital Energies [Eh]
    ---------------------

    Doubly Occupied:

       1A    -20.542988     2A    -20.542301     3A    -20.516638
       4A    -20.515933     5A    -20.513857     6A    -20.513093
       7A    -20.369215     8A    -20.368792     9A    -15.793485
      10A    -15.763292    11A    -15.762813    12A    -11.248850
      13A    -11.244419    14A    -11.242474    15A    -11.228399
      16A    -11.225350    17A    -11.222560    18A    -11.209248
      19A     -1.526154    20A     -1.497226    21A     -1.496351
      22A     -1.324030    23A     -1.296916    24A     -1.296195
      25A     -1.245708    26A     -1.152387    27A     -1.148403
      28A     -1.052098    29A     -1.038022    30A     -0.911519
      31A     -0.895715    32A     -0.895033    33A     -0.759125
      34A     -0.741589    35A     -0.713252    36A     -0.675533
      37A     -0.672486    38A     -0.663693    39A     -0.650768
      40A     -0.647922    41A     -0.633299    42A     -0.629655
      43A     -0.627161    44A     -0.606142    45A     -0.562974
      46A     -0.552729    47A     -0.529175    48A     -0.503650
      49A     -0.487830    50A     -0.464902    51A     -0.441138
      52A     -0.434071    53A     -0.427632    54A     -0.416419
      55A     -0.407360    56A     -0.403971    57A     -0.394616
      58A     -0.391911    59A     -0.358133    60A     -0.353730
      61A     -0.319364    62A     -0.302438    63A     -0.281427
      64A     -0.279992    65A     -0.263383

  @DF-RHF Final Energy: -1028.52474856301342

   => Energetics <=

    Nuclear Repulsion Energy =           1322.9053873527068390
    One-Electron Energy =               -4056.4664082015356144
    Two-Electron Energy =                1705.0362722858153575
    Total Energy =                      -1028.5247485630134179
  Basis Set: (AUG-CC-PVTZ AUX)
    Blend: AUG-CC-PVTZ-RI
    Molecular point group: c1

    Geometry (in Angstrom), charge = -1, multiplicity = 1:

       Center              X                  Y                   Z               Mass
    ------------   -----------------  -----------------  -----------------  -----------------
         O           -2.960206100752     0.884251846069    -0.744518068830    15.994914619570
         O           -2.960263100752    -0.884375153931     0.744481931170    15.994914619570
         O           -0.560781100752    -3.298880153931     0.783396931170    15.994914619570
         O           -0.560700100752     3.298763846069    -0.783268068830    15.994914619570
         O           -1.547119100752    -2.675243153931    -1.095891068830    15.994914619570
         O           -1.547134100752     2.675062846069     1.095948931170    15.994914619570
         O            3.949015899248    -1.098660153931    -0.051988068830    15.994914619570
         O            3.949027899248     1.098458846069     0.052016931170    15.994914619570
         N           -0.832977100752    -2.472281153931    -0.104742068830    14.003074004430
         N           -0.832948100752     2.472131846069     0.104823931170    14.003074004430
         N            3.367541899248    -0.000097153931     0.000016931170    14.003074004430
         C           -0.918866100752    -0.000075153931     0.000029931170    12.000000000000
         C           -0.158755100752    -1.171289153931    -0.021769068830    12.000000000000
         C           -0.158742100752     1.171133846069     0.021832931170    12.000000000000
         C            1.902574899248    -0.000090153931     0.000024931170    12.000000000000
         C            1.230855899248    -1.218267153931    -0.007023068830    12.000000000000
         C            1.280836599248     1.219783546069     0.006547331170    12.000000000000
         C           -2.477336100752    -0.000065153931    -0.000002068830    12.000000000000
         H            1.768397899248    -2.159763153931    -0.004817068830     1.007825032230
         H            1.768420899248     2.159584846069     0.004871931170     1.007825032230

  Basis Set: AUG-CC-PVTZ
    Blend: AUG-CC-PVTZ
  Basis Set: (AUG-CC-PVTZ AUX)
    Blend: AUG-CC-PVTZ-JKFIT
	 Reference Energy          =   -1028.5247485630134179 [Eh]
	 Singles Energy            =      -0.0000000000000000 [Eh]
	 Same-Spin Energy          =      -1.0570758462623948 [Eh]
	 Opposite-Spin Energy      =      -2.9535803680376795 [Eh]
	 Correlation Energy        =      -4.0106562143000746 [Eh]
	 Total Energy              =   -1032.5354047773134880 [Eh]

	 ================> DF-SCS-MP2 Energies <==================
	-----------------------------------------------------------
	 SCS Same-Spin Scale       =       0.3333333333333333 [-]
	 SCS Opposite-Spin Scale   =       1.2000000000000000 [-]
	 SCS Same-Spin Energy      =      -0.3523586154207983 [Eh]
	 SCS Opposite-Spin Energy  =      -3.5442964416452152 [Eh]
	 SCS Correlation Energy    =      -3.8966550570660132 [Eh]
	 SCS Total Energy          =   -1032.4214036200794453 [Eh]
	-----------------------------------------------------------

  Dipole Moment: [D]
     X:     8.8336      Y:     0.0042      Z:     0.0039     Total:     8.8336

*** Psi4 exiting successfully. Buy a developer a beer!
