                               Psi4 1.4a3.dev225

  ==> Input File <==

--------------------------------------------------------------------------
#psi4
#
memory 32 gb

molecule  {
-1 1
  O       -2.9714190     0.8843310    -0.7445430
  O       -2.9714760    -0.8842960     0.7444570
  O       -0.5719940    -3.2988010     0.7833720
  O       -0.5719130     3.2988430    -0.7832930
  O       -1.5583320    -2.6751640    -1.0959160
  O       -1.5583470     2.6751420     1.0959240
  O        3.9378030    -1.0985810    -0.0520130
  O        3.9378150     1.0985380     0.0519920
  N       -0.8441900    -2.4722020    -0.1047670
  N       -0.8441610     2.4722110     0.1047990
  N        3.3563290    -0.0000180    -0.0000080
  C       -0.9300790     0.0000040     0.0000050
  C       -0.1699680    -1.1712100    -0.0217940
  C       -0.1699550     1.1712130     0.0218080
  C        1.8913620    -0.0000110     0.0000000
  C        1.2196430    -1.2181880    -0.0070480
  C        1.4195296     1.2249286     0.0049307
  C       -2.4885490     0.0000140    -0.0000270
  H        1.7571850    -2.1596840    -0.0048420
  H        1.7572080     2.1596640     0.0048470
units angstrom
no_reorient  #important for SAPT in psi4, default
symmetry c1  #important for SAPT in psi4, default
}

set PROPERTIES_ORIGIN ["COM"]
properties('MP2/aug-cc-pvtz', properties = ['dipole'])
--------------------------------------------------------------------------

    Molecular point group: c1
  Charge       = -1
  Multiplicity = 1
  Basis Set: AUG-CC-PVTZ
    Blend: AUG-CC-PVTZ
  Basis Set: (AUG-CC-PVTZ AUX)
    Blend: AUG-CC-PVTZ-JKFIT

    Orbital Energies [Eh]
    ---------------------

    Doubly Occupied:

       1A    -20.544931     2A    -20.542022     3A    -20.517714
       4A    -20.514972     5A    -20.514541     6A    -20.511520
       7A    -20.367726     8A    -20.366128     9A    -15.791163
      10A    -15.764475    11A    -15.762015    12A    -11.251465
      13A    -11.250378    14A    -11.247889    15A    -11.230250
      16A    -11.226405    17A    -11.220423    18A    -11.204178
      19A     -1.527587    20A     -1.498285    21A     -1.494640
      22A     -1.325412    23A     -1.297892    24A     -1.294687
      25A     -1.243667    26A     -1.150444    27A     -1.147988
      28A     -1.061183    29A     -1.025667    30A     -0.909573
      31A     -0.902503    32A     -0.892968    33A     -0.756708
      34A     -0.740426    35A     -0.717478    36A     -0.684056
      37A     -0.671701    38A     -0.669999    39A     -0.649861
      40A     -0.648538    41A     -0.631370    42A     -0.628311
      43A     -0.622578    44A     -0.608989    45A     -0.571776
      46A     -0.546957    47A     -0.525666    48A     -0.495307
      49A     -0.484959    50A     -0.462991    51A     -0.440486
      52A     -0.434258    53A     -0.426180    54A     -0.415430
      55A     -0.405328    56A     -0.403920    57A     -0.394132
      58A     -0.392840    59A     -0.358175    60A     -0.353364
      61A     -0.327052    62A     -0.293652    63A     -0.280010
      64A     -0.275163    65A     -0.261673

  @DF-RHF Final Energy: -1028.48367133260945

   => Energetics <=

    Nuclear Repulsion Energy =           1321.3663955322112997
    One-Electron Energy =               -4053.3400862828084428
    Two-Electron Energy =                1703.4900194179876962
    Total Energy =                      -1028.4836713326094468
  Basis Set: (AUG-CC-PVTZ AUX)
    Blend: AUG-CC-PVTZ-RI
    Molecular point group: c1

    Geometry (in Angstrom), charge = -1, multiplicity = 1:

       Center              X                  Y                   Z               Mass
    ------------   -----------------  -----------------  -----------------  -----------------
         O           -2.967233373830     0.884014367340    -0.744443453284    15.994914619570
         O           -2.967290373830    -0.884612632660     0.744556546716    15.994914619570
         O           -0.567808373830    -3.299117632660     0.783471546716    15.994914619570
         O           -0.567727373830     3.298526367340    -0.783193453284    15.994914619570
         O           -1.554146373830    -2.675480632660    -1.095816453284    15.994914619570
         O           -1.554161373830     2.674825367340     1.096023546716    15.994914619570
         O            3.941988626170    -1.098897632660    -0.051913453284    15.994914619570
         O            3.942000626170     1.098221367340     0.052091546716    15.994914619570
         N           -0.840004373830    -2.472518632660    -0.104667453284    14.003074004430
         N           -0.839975373830     2.471894367340     0.104898546716    14.003074004430
         N            3.360514626170    -0.000334632660     0.000091546716    14.003074004430
         C           -0.925893373830    -0.000312632660     0.000104546716    12.000000000000
         C           -0.165782373830    -1.171526632660    -0.021694453284    12.000000000000
         C           -0.165769373830     1.170896367340     0.021907546716    12.000000000000
         C            1.895547626170    -0.000327632660     0.000099546716    12.000000000000
         C            1.223828626170    -1.218504632660    -0.006948453284    12.000000000000
         C            1.423715226170     1.224611967340     0.005030246716    12.000000000000
         C           -2.484363373830    -0.000302632660     0.000072546716    12.000000000000
         H            1.761370626170    -2.160000632660    -0.004742453284     1.007825032230
         H            1.761393626170     2.159347367340     0.004946546716     1.007825032230

  Basis Set: AUG-CC-PVTZ
    Blend: AUG-CC-PVTZ
  Basis Set: (AUG-CC-PVTZ AUX)
    Blend: AUG-CC-PVTZ-JKFIT
	 Reference Energy          =   -1028.4836713326094468 [Eh]
	 Singles Energy            =      -0.0000000000000000 [Eh]
	 Same-Spin Energy          =      -1.0575230362418000 [Eh]
	 Opposite-Spin Energy      =      -2.9568514555907077 [Eh]
	 Correlation Energy        =      -4.0143744918325073 [Eh]
	 Total Energy              =   -1032.4980458244419879 [Eh]

	 ================> DF-SCS-MP2 Energies <==================
	-----------------------------------------------------------
	 SCS Same-Spin Scale       =       0.3333333333333333 [-]
	 SCS Opposite-Spin Scale   =       1.2000000000000000 [-]
	 SCS Same-Spin Energy      =      -0.3525076787472666 [Eh]
	 SCS Opposite-Spin Energy  =      -3.5482217467088493 [Eh]
	 SCS Correlation Energy    =      -3.9007294254561158 [Eh]
	 SCS Total Energy          =   -1032.3844007580655671 [Eh]
	-----------------------------------------------------------

  Dipole Moment: [D]
     X:     8.9243      Y:    -0.0036      Z:     0.0136     Total:     8.9243

*** Psi4 exiting successfully. Buy a developer a beer!
