                               Psi4 1.4a3.dev225

  ==> Input File <==

--------------------------------------------------------------------------
#psi4
#
memory 32 gb

molecule  {
-1 1
  O       -2.9714190     0.8843310    -0.7445430
  O       -2.9714760    -0.8842960     0.7444570
  O       -0.5719940    -3.2988010     0.7833720
  O       -0.5719130     3.2988430    -0.7832930
  O       -1.5583320    -2.6751640    -1.0959160
  O       -1.5583470     2.6751420     1.0959240
  O        3.9378030    -1.0985810    -0.0520130
  O        3.9378150     1.0985380     0.0519920
  N       -0.8441900    -2.4722020    -0.1047670
  N       -0.8441610     2.4722110     0.1047990
  N        3.3563290    -0.0000180    -0.0000080
  C       -0.9300790     0.0000040     0.0000050
  C       -0.1674840    -1.1227395    -0.0215837
  C       -0.1699550     1.1712130     0.0218080
  C        1.8913620    -0.0000110     0.0000000
  C        1.2196430    -1.2181880    -0.0070480
  C        1.2196550     1.2181740     0.0070530
  C       -2.4885490     0.0000140    -0.0000270
  H        1.7571850    -2.1596840    -0.0048420
  H        1.7572080     2.1596640     0.0048470
units angstrom
no_reorient  #important for SAPT in psi4, default
symmetry c1  #important for SAPT in psi4, default
}

set PROPERTIES_ORIGIN ["COM"]
properties('MP2/aug-cc-pvtz', properties = ['dipole'])
--------------------------------------------------------------------------

    Molecular point group: c1
  Charge       = -1
  Multiplicity = 1
  Basis Set: AUG-CC-PVTZ
    Blend: AUG-CC-PVTZ
  Basis Set: (AUG-CC-PVTZ AUX)
    Blend: AUG-CC-PVTZ-JKFIT

    Orbital Energies [Eh]
    ---------------------

    Doubly Occupied:

       1A    -20.543342     2A    -20.543142     3A    -20.516572
       4A    -20.514187     5A    -20.513779     6A    -20.511678
       7A    -20.369965     8A    -20.369715     9A    -15.794679
      10A    -15.763069    11A    -15.759887    12A    -11.249909
      13A    -11.242225    14A    -11.240364    15A    -11.229710
      16A    -11.224284    17A    -11.222023    18A    -11.205435
      19A     -1.526526    20A     -1.497133    21A     -1.491440
      22A     -1.324426    23A     -1.296855    24A     -1.293467
      25A     -1.246656    26A     -1.153279    27A     -1.153115
      28A     -1.051593    29A     -1.038605    30A     -0.913209
      31A     -0.898598    32A     -0.885495    33A     -0.760788
      34A     -0.742267    35A     -0.712053    36A     -0.678222
      37A     -0.673079    38A     -0.658130    39A     -0.649749
      40A     -0.648080    41A     -0.633513    42A     -0.628850
      43A     -0.625139    44A     -0.602902    45A     -0.565312
      46A     -0.559392    47A     -0.524047    48A     -0.506276
      49A     -0.492206    50A     -0.466318    51A     -0.441832
      52A     -0.434542    53A     -0.428373    54A     -0.415615
      55A     -0.405810    56A     -0.402853    57A     -0.392311
      58A     -0.389601    59A     -0.357628    60A     -0.352835
      61A     -0.320443    62A     -0.307330    63A     -0.282685
      64A     -0.281710    65A     -0.263999

  @DF-RHF Final Energy: -1028.52577235709236

   => Energetics <=

    Nuclear Repulsion Energy =           1323.8177589513977637
    One-Electron Energy =               -4058.3105563122389867
    Two-Electron Energy =                1705.9670250037486312
    Total Energy =                      -1028.5257723570923645
  Basis Set: (AUG-CC-PVTZ AUX)
    Blend: AUG-CC-PVTZ-RI
    Molecular point group: c1

    Geometry (in Angstrom), charge = -1, multiplicity = 1:

       Center              X                  Y                   Z               Mass
    ------------   -----------------  -----------------  -----------------  -----------------
         O           -2.957980117959     0.882058813749    -0.744552800662    15.994914619570
         O           -2.958037117959    -0.886568186251     0.744447199338    15.994914619570
         O           -0.558555117959    -3.301073186251     0.783362199338    15.994914619570
         O           -0.558474117959     3.296570813749    -0.783302800662    15.994914619570
         O           -1.544893117959    -2.677436186251    -1.095925800662    15.994914619570
         O           -1.544908117959     2.672869813749     1.095914199338    15.994914619570
         O            3.951241882041    -1.100853186251    -0.052022800662    15.994914619570
         O            3.951253882041     1.096265813749     0.051982199338    15.994914619570
         N           -0.830751117959    -2.474474186251    -0.104776800662    14.003074004430
         N           -0.830722117959     2.469938813749     0.104789199338    14.003074004430
         N            3.369767882041    -0.002290186251    -0.000017800662    14.003074004430
         C           -0.916640117959    -0.002268186251    -0.000004800662    12.000000000000
         C           -0.154045117959    -1.125011686251    -0.021593500662    12.000000000000
         C           -0.156516117959     1.168940813749     0.021798199338    12.000000000000
         C            1.904800882041    -0.002283186251    -0.000009800662    12.000000000000
         C            1.233081882041    -1.220460186251    -0.007057800662    12.000000000000
         C            1.233093882041     1.215901813749     0.007043199338    12.000000000000
         C           -2.475110117959    -0.002258186251    -0.000036800662    12.000000000000
         H            1.770623882041    -2.161956186251    -0.004851800662     1.007825032230
         H            1.770646882041     2.157391813749     0.004837199338     1.007825032230

  Basis Set: AUG-CC-PVTZ
    Blend: AUG-CC-PVTZ
  Basis Set: (AUG-CC-PVTZ AUX)
    Blend: AUG-CC-PVTZ-JKFIT
	 Reference Energy          =   -1028.5257723570923645 [Eh]
	 Singles Energy            =      -0.0000000000000000 [Eh]
	 Same-Spin Energy          =      -1.0571007140360345 [Eh]
	 Opposite-Spin Energy      =      -2.9533857524782219 [Eh]
	 Correlation Energy        =      -4.0104864665142568 [Eh]
	 Total Energy              =   -1032.5362588236066586 [Eh]

	 ================> DF-SCS-MP2 Energies <==================
	-----------------------------------------------------------
	 SCS Same-Spin Scale       =       0.3333333333333333 [-]
	 SCS Opposite-Spin Scale   =       1.2000000000000000 [-]
	 SCS Same-Spin Energy      =      -0.3523669046786782 [Eh]
	 SCS Opposite-Spin Energy  =      -3.5440629029738662 [Eh]
	 SCS Correlation Energy    =      -3.8964298076525443 [Eh]
	 SCS Total Energy          =   -1032.4222021647449310 [Eh]
	-----------------------------------------------------------

  Dipole Moment: [D]
     X:     8.8461      Y:     0.0846      Z:     0.0097     Total:     8.8465

*** Psi4 exiting successfully. Buy a developer a beer!
