                               Psi4 1.4a3.dev225

  ==> Input File <==

--------------------------------------------------------------------------
#psi4
#
memory 32 gb

molecule  {
-1 1
  O       -2.9714190     0.8843310    -0.7445430
  O       -2.9714760    -0.8842960     0.7444570
  O       -0.5719940    -3.2988010     0.7833720
  O       -0.5719130     3.2988430    -0.7832930
  O       -1.5583320    -2.6751640    -1.0959160
  O       -1.5583470     2.6751420     1.0959240
  O        3.9378030    -1.0985810    -0.0520130
  O        3.9378150     1.0985380     0.0519920
  N       -0.8441900    -2.4722020    -0.1047670
  N       -0.8441610     2.4722110     0.1047990
  N        3.3563290    -0.0000180    -0.0000080
  C       -0.9300790     0.0000040     0.0000050
  C       -0.1699680    -1.1712100    -0.0217940
  C       -0.1699550     1.1712130     0.0218080
  C        1.9413620    -0.0000112    -0.0000003
  C        1.2196430    -1.2181880    -0.0070480
  C        1.2196550     1.2181740     0.0070530
  C       -2.4885490     0.0000140    -0.0000270
  H        1.7571850    -2.1596840    -0.0048420
  H        1.7572080     2.1596640     0.0048470
units angstrom
no_reorient  #important for SAPT in psi4, default
symmetry c1  #important for SAPT in psi4, default
}

set PROPERTIES_ORIGIN ["COM"]
properties('MP2/aug-cc-pvtz', properties = ['dipole'])
--------------------------------------------------------------------------

    Molecular point group: c1
  Charge       = -1
  Multiplicity = 1
  Basis Set: AUG-CC-PVTZ
    Blend: AUG-CC-PVTZ
  Basis Set: (AUG-CC-PVTZ AUX)
    Blend: AUG-CC-PVTZ-JKFIT

    Orbital Energies [Eh]
    ---------------------

    Doubly Occupied:

       1A    -20.539502     2A    -20.539454     3A    -20.516720
       4A    -20.516719     5A    -20.513954     6A    -20.513954
       7A    -20.371353     8A    -20.371320     9A    -15.793539
      10A    -15.763574    11A    -15.763574    12A    -11.247625
      13A    -11.240875    14A    -11.240851    15A    -11.230673
      16A    -11.227766    17A    -11.227722    18A    -11.214639
      19A     -1.528325    20A     -1.497473    21A     -1.497191
      22A     -1.323172    23A     -1.297123    24A     -1.296993
      25A     -1.247939    26A     -1.154571    27A     -1.146586
      28A     -1.057102    29A     -1.042063    30A     -0.918757
      31A     -0.897505    32A     -0.888580    33A     -0.760251
      34A     -0.741764    35A     -0.712412    36A     -0.679333
      37A     -0.673447    38A     -0.659433    39A     -0.651759
      40A     -0.651140    41A     -0.634491    42A     -0.630060
      43A     -0.627931    44A     -0.604463    45A     -0.561315
      46A     -0.559421    47A     -0.512049    48A     -0.506555
      49A     -0.487105    50A     -0.465796    51A     -0.443938
      52A     -0.432751    53A     -0.427225    54A     -0.417292
      55A     -0.409069    56A     -0.403628    57A     -0.394712
      58A     -0.391104    59A     -0.358568    60A     -0.354117
      61A     -0.316818    62A     -0.307418    63A     -0.283718
      64A     -0.280502    65A     -0.265256

  @DF-RHF Final Energy: -1028.52626436938681

   => Energetics <=

    Nuclear Repulsion Energy =           1323.1147849085155030
    One-Electron Energy =               -4056.8180187975185618
    Two-Electron Energy =                1705.1769695196162502
    Total Energy =                      -1028.5262643693868085
  Basis Set: (AUG-CC-PVTZ AUX)
    Blend: AUG-CC-PVTZ-RI
    Molecular point group: c1

    Geometry (in Angstrom), charge = -1, multiplicity = 1:

       Center              X                  Y                   Z               Mass
    ------------   -----------------  -----------------  -----------------  -----------------
         O           -2.960207568030     0.884331018146    -0.744542928178    15.994914619570
         O           -2.960264568030    -0.884295981854     0.744457071822    15.994914619570
         O           -0.560782568030    -3.298800981854     0.783372071822    15.994914619570
         O           -0.560701568030     3.298843018146    -0.783292928178    15.994914619570
         O           -1.547120568030    -2.675163981854    -1.095915928178    15.994914619570
         O           -1.547135568030     2.675142018146     1.095924071822    15.994914619570
         O            3.949014431970    -1.098580981854    -0.052012928178    15.994914619570
         O            3.949026431970     1.098538018146     0.051992071822    15.994914619570
         N           -0.832978568030    -2.472201981854    -0.104766928178    14.003074004430
         N           -0.832949568030     2.472211018146     0.104799071822    14.003074004430
         N            3.367540431970    -0.000017981854    -0.000007928178    14.003074004430
         C           -0.918867568030     0.000004018146     0.000005071822    12.000000000000
         C           -0.158756568030    -1.171209981854    -0.021793928178    12.000000000000
         C           -0.158743568030     1.171213018146     0.021808071822    12.000000000000
         C            1.952573431970    -0.000011181854    -0.000000228178    12.000000000000
         C            1.230854431970    -1.218187981854    -0.007047928178    12.000000000000
         C            1.230866431970     1.218174018146     0.007053071822    12.000000000000
         C           -2.477337568030     0.000014018146    -0.000026928178    12.000000000000
         H            1.768396431970    -2.159683981854    -0.004841928178     1.007825032230
         H            1.768419431970     2.159664018146     0.004847071822     1.007825032230

  Basis Set: AUG-CC-PVTZ
    Blend: AUG-CC-PVTZ
  Basis Set: (AUG-CC-PVTZ AUX)
    Blend: AUG-CC-PVTZ-JKFIT
	 Reference Energy          =   -1028.5262643693868085 [Eh]
	 Singles Energy            =      -0.0000000000000000 [Eh]
	 Same-Spin Energy          =      -1.0567998168534380 [Eh]
	 Opposite-Spin Energy      =      -2.9527787411356896 [Eh]
	 Correlation Energy        =      -4.0095785579891281 [Eh]
	 Total Energy              =   -1032.5358429273758247 [Eh]

	 ================> DF-SCS-MP2 Energies <==================
	-----------------------------------------------------------
	 SCS Same-Spin Scale       =       0.3333333333333333 [-]
	 SCS Opposite-Spin Scale   =       1.2000000000000000 [-]
	 SCS Same-Spin Energy      =      -0.3522666056178126 [Eh]
	 SCS Opposite-Spin Energy  =      -3.5433344893628274 [Eh]
	 SCS Correlation Energy    =      -3.8956010949806399 [Eh]
	 SCS Total Energy          =   -1032.4218654643675563 [Eh]
	-----------------------------------------------------------

  Dipole Moment: [D]
     X:     8.6823      Y:    -0.0001      Z:     0.0001     Total:     8.6823

*** Psi4 exiting successfully. Buy a developer a beer!
