                               Psi4 1.4a3.dev225

  ==> Input File <==

--------------------------------------------------------------------------
#psi4
#
memory 32 gb

molecule  {
-1 1
  O       -2.9714190     0.8843310    -0.7445430
  O       -2.9714760    -0.8842960     0.7444570
  O       -0.5719940    -3.2988010     0.7833720
  O       -0.5719130     3.2988430    -0.7832930
  O       -1.5583320    -2.6751640    -1.0959160
  O       -1.5583470     2.6751420     1.0959240
  O        3.9378030    -1.0985810    -0.0520130
  O        3.9378150     1.0985380     0.0519920
  N       -0.8441900    -2.4722020    -0.1047670
  N       -0.8441610     2.4722110     0.1047990
  N        3.3563290    -0.0000180    -0.0000080
  C       -0.9300790     0.0000040     0.0000050
  C       -0.1699680    -1.1712100    -0.0217940
  C       -0.1699550     1.1712130     0.0218080
  C        1.8913620    -0.0000110     0.0000000
  C        1.2293002    -1.2006744    -0.0069467
  C        1.2196550     1.2181740     0.0070530
  C       -2.4885490     0.0000140    -0.0000270
  H        1.7571850    -2.1596840    -0.0048420
  H        1.7572080     2.1596640     0.0048470
units angstrom
no_reorient  #important for SAPT in psi4, default
symmetry c1  #important for SAPT in psi4, default
}

set PROPERTIES_ORIGIN ["COM"]
properties('MP2/aug-cc-pvtz', properties = ['dipole'])
--------------------------------------------------------------------------

    Molecular point group: c1
  Charge       = -1
  Multiplicity = 1
  Basis Set: AUG-CC-PVTZ
    Blend: AUG-CC-PVTZ
  Basis Set: (AUG-CC-PVTZ AUX)
    Blend: AUG-CC-PVTZ-JKFIT

    Orbital Energies [Eh]
    ---------------------

    Doubly Occupied:

       1A    -20.542849     2A    -20.542621     3A    -20.516462
       4A    -20.516252     5A    -20.513643     6A    -20.513466
       7A    -20.369455     8A    -20.369349     9A    -15.794391
      10A    -15.763335    11A    -15.762899    12A    -11.247323
      13A    -11.240904    14A    -11.240882    15A    -11.228658
      16A    -11.222865    17A    -11.222702    18A    -11.210203
      19A     -1.526136    20A     -1.497012    21A     -1.496718
      22A     -1.323998    23A     -1.296713    24A     -1.296530
      25A     -1.246098    26A     -1.152751    27A     -1.150836
      28A     -1.050930    29A     -1.041257    30A     -0.912904
      31A     -0.895974    32A     -0.893138    33A     -0.761060
      34A     -0.741689    35A     -0.713034    36A     -0.675334
      37A     -0.673161    38A     -0.661161    39A     -0.651349
      40A     -0.648010    41A     -0.634547    42A     -0.629638
      43A     -0.628089    44A     -0.604019    45A     -0.562543
      46A     -0.556084    47A     -0.520899    48A     -0.504148
      49A     -0.489486    50A     -0.465536    51A     -0.441577
      52A     -0.434144    53A     -0.428009    54A     -0.416720
      55A     -0.407857    56A     -0.404053    57A     -0.394584
      58A     -0.391909    59A     -0.358148    60A     -0.353738
      61A     -0.318396    62A     -0.306221    63A     -0.281714
      64A     -0.280147    65A     -0.263699

  @DF-RHF Final Energy: -1028.52811537955063

   => Energetics <=

    Nuclear Repulsion Energy =           1323.6621494038124638
    One-Electron Energy =               -4057.9806146513092244
    Two-Electron Energy =                1705.7903498679459062
    Total Energy =                      -1028.5281153795506270
  Basis Set: (AUG-CC-PVTZ AUX)
    Blend: AUG-CC-PVTZ-RI
    Molecular point group: c1

    Geometry (in Angstrom), charge = -1, multiplicity = 1:

       Center              X                  Y                   Z               Mass
    ------------   -----------------  -----------------  -----------------  -----------------
         O           -2.958316382477     0.883510008065    -0.744547690972    15.994914619570
         O           -2.958373382477    -0.885116991935     0.744452309028    15.994914619570
         O           -0.558891382477    -3.299621991935     0.783367309028    15.994914619570
         O           -0.558810382477     3.298022008065    -0.783297690972    15.994914619570
         O           -1.545229382477    -2.675984991935    -1.095920690972    15.994914619570
         O           -1.545244382477     2.674321008065     1.095919309028    15.994914619570
         O            3.950905617523    -1.099401991935    -0.052017690972    15.994914619570
         O            3.950917617523     1.097717008065     0.051987309028    15.994914619570
         N           -0.831087382477    -2.473022991935    -0.104771690972    14.003074004430
         N           -0.831058382477     2.471390008065     0.104794309028    14.003074004430
         N            3.369431617523    -0.000838991935    -0.000012690972    14.003074004430
         C           -0.916976382477    -0.000816991935     0.000000309028    12.000000000000
         C           -0.156865382477    -1.172030991935    -0.021798690972    12.000000000000
         C           -0.156852382477     1.170392008065     0.021803309028    12.000000000000
         C            1.904464617523    -0.000831991935    -0.000004690972    12.000000000000
         C            1.242402817523    -1.201495391935    -0.006951390972    12.000000000000
         C            1.232757617523     1.217353008065     0.007048309028    12.000000000000
         C           -2.475446382477    -0.000806991935    -0.000031690972    12.000000000000
         H            1.770287617523    -2.160504991935    -0.004846690972     1.007825032230
         H            1.770310617523     2.158843008065     0.004842309028     1.007825032230

  Basis Set: AUG-CC-PVTZ
    Blend: AUG-CC-PVTZ
  Basis Set: (AUG-CC-PVTZ AUX)
    Blend: AUG-CC-PVTZ-JKFIT
	 Reference Energy          =   -1028.5281153795506270 [Eh]
	 Singles Energy            =      -0.0000000000000000 [Eh]
	 Same-Spin Energy          =      -1.0569620024876736 [Eh]
	 Opposite-Spin Energy      =      -2.9530865336676451 [Eh]
	 Correlation Energy        =      -4.0100485361553186 [Eh]
	 Total Energy              =   -1032.5381639157060363 [Eh]

	 ================> DF-SCS-MP2 Energies <==================
	-----------------------------------------------------------
	 SCS Same-Spin Scale       =       0.3333333333333333 [-]
	 SCS Opposite-Spin Scale   =       1.2000000000000000 [-]
	 SCS Same-Spin Energy      =      -0.3523206674958912 [Eh]
	 SCS Opposite-Spin Energy  =      -3.5437038404011738 [Eh]
	 SCS Correlation Energy    =      -3.8960245078970650 [Eh]
	 SCS Total Energy          =   -1032.4241398874476090 [Eh]
	-----------------------------------------------------------

  Dipole Moment: [D]
     X:     8.8340      Y:    -0.0138      Z:    -0.0025     Total:     8.8340

*** Psi4 exiting successfully. Buy a developer a beer!
