                               Psi4 1.4a3.dev225

  ==> Input File <==

--------------------------------------------------------------------------
#psi4
#
memory 32 gb

molecule  {
-1 1
  O       -2.9714190     0.8843310    -0.7445430
  O       -2.9714760    -0.8842960     0.7444570
  O       -0.5719940    -3.2988010     0.7833720
  O       -0.5719130     3.2988430    -0.7832930
  O       -1.5583320    -2.6751640    -1.0959160
  O       -1.5583470     2.6751420     1.0959240
  O        3.9378030    -1.0985810    -0.0520130
  O        3.9378150     1.0985380     0.0519920
  N       -0.8441900    -2.4722020    -0.1047670
  N       -0.8556952     2.4754884     0.1208059
  N        3.3563290    -0.0000180    -0.0000080
  C       -0.9300790     0.0000040     0.0000050
  C       -0.1699680    -1.1712100    -0.0217940
  C       -0.1699550     1.1712130     0.0218080
  C        1.8913620    -0.0000110     0.0000000
  C        1.2196430    -1.2181880    -0.0070480
  C        1.2196550     1.2181740     0.0070530
  C       -2.4885490     0.0000140    -0.0000270
  H        1.7571850    -2.1596840    -0.0048420
  H        1.7572080     2.1596640     0.0048470
units angstrom
no_reorient  #important for SAPT in psi4, default
symmetry c1  #important for SAPT in psi4, default
}

set PROPERTIES_ORIGIN ["COM"]
properties('MP2/aug-cc-pvtz', properties = ['dipole'])
--------------------------------------------------------------------------

    Molecular point group: c1
  Charge       = -1
  Multiplicity = 1
  Basis Set: AUG-CC-PVTZ
    Blend: AUG-CC-PVTZ
  Basis Set: (AUG-CC-PVTZ AUX)
    Blend: AUG-CC-PVTZ-JKFIT

    Orbital Energies [Eh]
    ---------------------

    Doubly Occupied:

       1A    -20.541972     2A    -20.541923     3A    -20.523318
       4A    -20.516196     5A    -20.513395     6A    -20.506941
       7A    -20.370145     8A    -20.370019     9A    -15.793846
      10A    -15.763039    11A    -15.762783    12A    -11.248441
      13A    -11.240642    14A    -11.240481    15A    -11.229317
      16A    -11.222892    17A    -11.222848    18A    -11.210400
      19A     -1.525385    20A     -1.501899    21A     -1.496750
      22A     -1.323270    23A     -1.299155    24A     -1.296498
      25A     -1.246826    26A     -1.153442    27A     -1.149002
      28A     -1.048868    29A     -1.040756    30A     -0.911731
      31A     -0.895047    32A     -0.891596    33A     -0.760611
      34A     -0.741719    35A     -0.712797    36A     -0.675687
      37A     -0.672419    38A     -0.660589    39A     -0.651847
      40A     -0.647204    41A     -0.635066    42A     -0.630636
      43A     -0.628420    44A     -0.605511    45A     -0.563162
      46A     -0.557769    47A     -0.521309    48A     -0.505235
      49A     -0.489158    50A     -0.465921    51A     -0.440973
      52A     -0.433747    53A     -0.427985    54A     -0.416459
      55A     -0.408263    56A     -0.403785    57A     -0.392804
      58A     -0.391345    59A     -0.358778    60A     -0.354392
      61A     -0.317524    62A     -0.306931    63A     -0.282448
      64A     -0.279998    65A     -0.264466

  @DF-RHF Final Energy: -1028.52951913356105

   => Energetics <=

    Nuclear Repulsion Energy =           1323.4418988396103032
    One-Electron Energy =               -4057.5352773324198097
    Two-Electron Energy =                1705.5638593592482266
    Total Energy =                      -1028.5295191335610525
  Basis Set: (AUG-CC-PVTZ AUX)
    Blend: AUG-CC-PVTZ-RI
    Molecular point group: c1

    Geometry (in Angstrom), charge = -1, multiplicity = 1:

       Center              X                  Y                   Z               Mass
    ------------   -----------------  -----------------  -----------------  -----------------
         O           -2.957232719235     0.884151725531    -0.745418565873    15.994914619570
         O           -2.957289719235    -0.884475274469     0.743581434127    15.994914619570
         O           -0.557807719235    -3.298980274469     0.782496434127    15.994914619570
         O           -0.557726719235     3.298663725531    -0.784168565873    15.994914619570
         O           -1.544145719235    -2.675343274469    -1.096791565873    15.994914619570
         O           -1.544160719235     2.674962725531     1.095048434127    15.994914619570
         O            3.951989280765    -1.098760274469    -0.052888565873    15.994914619570
         O            3.952001280765     1.098358725531     0.051116434127    15.994914619570
         N           -0.830003719235    -2.472381274469    -0.105642565873    14.003074004430
         N           -0.841508919235     2.475309125531     0.119930334127    14.003074004430
         N            3.370515280765    -0.000197274469    -0.000883565873    14.003074004430
         C           -0.915892719235    -0.000175274469    -0.000870565873    12.000000000000
         C           -0.155781719235    -1.171389274469    -0.022669565873    12.000000000000
         C           -0.155768719235     1.171033725531     0.020932434127    12.000000000000
         C            1.905548280765    -0.000190274469    -0.000875565873    12.000000000000
         C            1.233829280765    -1.218367274469    -0.007923565873    12.000000000000
         C            1.233841280765     1.217994725531     0.006177434127    12.000000000000
         C           -2.474362719235    -0.000165274469    -0.000902565873    12.000000000000
         H            1.771371280765    -2.159863274469    -0.005717565873     1.007825032230
         H            1.771394280765     2.159484725531     0.003971434127     1.007825032230

  Basis Set: AUG-CC-PVTZ
    Blend: AUG-CC-PVTZ
  Basis Set: (AUG-CC-PVTZ AUX)
    Blend: AUG-CC-PVTZ-JKFIT
	 Reference Energy          =   -1028.5295191335610525 [Eh]
	 Singles Energy            =      -0.0000000000000000 [Eh]
	 Same-Spin Energy          =      -1.0565049110316116 [Eh]
	 Opposite-Spin Energy      =      -2.9520775857113550 [Eh]
	 Correlation Energy        =      -4.0085824967429664 [Eh]
	 Total Energy              =   -1032.5381016303040269 [Eh]

	 ================> DF-SCS-MP2 Energies <==================
	-----------------------------------------------------------
	 SCS Same-Spin Scale       =       0.3333333333333333 [-]
	 SCS Opposite-Spin Scale   =       1.2000000000000000 [-]
	 SCS Same-Spin Energy      =      -0.3521683036772039 [Eh]
	 SCS Opposite-Spin Energy  =      -3.5424931028536260 [Eh]
	 SCS Correlation Energy    =      -3.8946614065308296 [Eh]
	 SCS Total Energy          =   -1032.4241805400918111 [Eh]
	-----------------------------------------------------------

  Dipole Moment: [D]
     X:     8.7665      Y:     0.0134      Z:     0.0803     Total:     8.7669

*** Psi4 exiting successfully. Buy a developer a beer!
