                               Psi4 1.4a3.dev225

  ==> Input File <==

--------------------------------------------------------------------------
#psi4
#
memory 32 gb

molecule  {
-1 1
  O       -2.9714190     0.8843310    -0.7445430
  O       -2.9714760    -0.8842960     0.7444570
  O       -0.5719940    -3.2988010     0.7833720
  O       -0.5719130     3.2988430    -0.7832930
  O       -1.5583320    -2.6751640    -1.0959160
  O       -1.5583470     2.6751420     1.0959240
  O        3.9378030    -1.0985810    -0.0520130
  O        3.9378150     1.0985380     0.0519920
  N       -0.8441900    -2.4722020    -0.1047670
  N       -0.8441610     2.4722110     0.1047990
  N        3.3563290    -0.0000180    -0.0000080
  C       -0.9300790     0.0000040     0.0000050
  C       -0.1699680    -1.1712100    -0.0217940
  C       -0.2788224     1.0034687     0.0186853
  C        1.8913620    -0.0000110     0.0000000
  C        1.2196430    -1.2181880    -0.0070480
  C        1.2196550     1.2181740     0.0070530
  C       -2.4885490     0.0000140    -0.0000270
  H        1.7571850    -2.1596840    -0.0048420
  H        1.7572080     2.1596640     0.0048470
units angstrom
no_reorient  #important for SAPT in psi4, default
symmetry c1  #important for SAPT in psi4, default
}

set PROPERTIES_ORIGIN ["COM"]
properties('MP2/aug-cc-pvtz', properties = ['dipole'])
--------------------------------------------------------------------------

    Molecular point group: c1
  Charge       = -1
  Multiplicity = 1
  Basis Set: AUG-CC-PVTZ
    Blend: AUG-CC-PVTZ
  Basis Set: (AUG-CC-PVTZ AUX)
    Blend: AUG-CC-PVTZ-JKFIT

    Orbital Energies [Eh]
    ---------------------

    Doubly Occupied:

       1A    -20.547858     2A    -20.545630     3A    -20.516558
       4A    -20.514031     5A    -20.510062     6A    -20.509312
       7A    -20.368693     8A    -20.367906     9A    -15.796825
      10A    -15.763471    11A    -15.753440    12A    -11.253975
      13A    -11.247851    14A    -11.239376    15A    -11.235669
      16A    -11.228555    17A    -11.217138    18A    -11.173950
      19A     -1.529510    20A     -1.497290    21A     -1.483735
      22A     -1.327419    23A     -1.296946    24A     -1.288692
      25A     -1.246410    26A     -1.159646    27A     -1.151870
      28A     -1.066236    29A     -1.028572    30A     -0.917639
      31A     -0.901964    32A     -0.871422    33A     -0.759880
      34A     -0.745316    35A     -0.709924    36A     -0.683351
      37A     -0.675098    38A     -0.656212    39A     -0.652966
      40A     -0.650366    41A     -0.631079    42A     -0.623564
      43A     -0.618633    44A     -0.600145    45A     -0.564859
      46A     -0.553789    47A     -0.527473    48A     -0.503358
      49A     -0.499555    50A     -0.465331    51A     -0.443723
      52A     -0.436920    53A     -0.427432    54A     -0.413588
      55A     -0.404647    56A     -0.400357    57A     -0.394518
      58A     -0.379003    59A     -0.357039    60A     -0.351152
      61A     -0.341879    62A     -0.294624    63A     -0.286264
      64A     -0.278925    65A     -0.262896

  @DF-RHF Final Energy: -1028.46659767849656

   => Energetics <=

    Nuclear Repulsion Energy =           1325.2317305544634110
    One-Electron Energy =               -4061.0936231760024384
    Two-Electron Energy =                1707.3952949430424724
    Total Energy =                      -1028.4665976784965551
  Basis Set: (AUG-CC-PVTZ AUX)
    Blend: AUG-CC-PVTZ-RI
    Molecular point group: c1

    Geometry (in Angstrom), charge = -1, multiplicity = 1:

       Center              X                  Y                   Z               Mass
    ------------   -----------------  -----------------  -----------------  -----------------
         O           -2.952760198693     0.892194508496    -0.744396556637    15.994914619570
         O           -2.952817198693    -0.876432491504     0.744603443363    15.994914619570
         O           -0.553335198693    -3.290937491504     0.783518443363    15.994914619570
         O           -0.553254198693     3.306706508496    -0.783146556637    15.994914619570
         O           -1.539673198693    -2.667300491504    -1.095769556637    15.994914619570
         O           -1.539688198693     2.683005508496     1.096070443363    15.994914619570
         O            3.956461801307    -1.090717491504    -0.051866556637    15.994914619570
         O            3.956473801307     1.106401508496     0.052138443363    15.994914619570
         N           -0.825531198693    -2.464338491504    -0.104620556637    14.003074004430
         N           -0.825502198693     2.480074508496     0.104945443363    14.003074004430
         N            3.374987801307     0.007845508496     0.000138443363    14.003074004430
         C           -0.911420198693     0.007867508496     0.000151443363    12.000000000000
         C           -0.151309198693    -1.163346491504    -0.021647556637    12.000000000000
         C           -0.260163598693     1.011332208496     0.018831743363    12.000000000000
         C            1.910020801307     0.007852508496     0.000146443363    12.000000000000
         C            1.238301801307    -1.210324491504    -0.006901556637    12.000000000000
         C            1.238313801307     1.226037508496     0.007199443363    12.000000000000
         C           -2.469890198693     0.007877508496     0.000119443363    12.000000000000
         H            1.775843801307    -2.151820491504    -0.004695556637     1.007825032230
         H            1.775866801307     2.167527508496     0.004993443363     1.007825032230

  Basis Set: AUG-CC-PVTZ
    Blend: AUG-CC-PVTZ
  Basis Set: (AUG-CC-PVTZ AUX)
    Blend: AUG-CC-PVTZ-JKFIT
	 Reference Energy          =   -1028.4665976784965551 [Eh]
	 Singles Energy            =      -0.0000000000000000 [Eh]
	 Same-Spin Energy          =      -1.0569699610621586 [Eh]
	 Opposite-Spin Energy      =      -2.9561140144817974 [Eh]
	 Correlation Energy        =      -4.0130839755439558 [Eh]
	 Total Energy              =   -1032.4796816540404052 [Eh]

	 ================> DF-SCS-MP2 Energies <==================
	-----------------------------------------------------------
	 SCS Same-Spin Scale       =       0.3333333333333333 [-]
	 SCS Opposite-Spin Scale   =       1.2000000000000000 [-]
	 SCS Same-Spin Energy      =      -0.3523233203540528 [Eh]
	 SCS Opposite-Spin Energy  =      -3.5473368173781568 [Eh]
	 SCS Correlation Energy    =      -3.8996601377322095 [Eh]
	 SCS Total Energy          =   -1032.3662578162286536 [Eh]
	-----------------------------------------------------------

  Dipole Moment: [D]
     X:     8.8826      Y:    -0.3496      Z:    -0.0568     Total:     8.8897

*** Psi4 exiting successfully. Buy a developer a beer!
