                               Psi4 1.4a3.dev225

  ==> Input File <==

--------------------------------------------------------------------------
#psi4
#
memory 32 gb

molecule  {
-1 1
  O       -2.9714190     0.8843310    -0.7445430
  O       -2.9714760    -0.8842960     0.7444570
  O       -0.5719940    -3.2988010     0.7833720
  O       -0.5719130     3.2988430    -0.7832930
  O       -1.5583320    -2.6751640    -1.0959160
  O       -1.5583470     2.6751420     1.0959240
  O        3.9378030    -1.0985810    -0.0520130
  O        3.9378150     1.0985380     0.0519920
  N       -0.8441900    -2.4722020    -0.1047670
  N       -0.8441610     2.4722110     0.1047990
  N        3.3563290    -0.0000180    -0.0000080
  C       -0.9300790     0.0000040     0.0000050
  C       -0.1699680    -1.1712100    -0.0217940
  C       -0.1699550     1.1712130     0.0218080
  C        1.8913620    -0.0000110     0.0000000
  C        1.2196430    -1.2181880    -0.0070480
  C        1.2196550     1.2181740     0.0070530
  C       -2.4808394     0.0141315    -0.0119122
  H        1.7571850    -2.1596840    -0.0048420
  H        1.7572080     2.1596640     0.0048470
units angstrom
no_reorient  #important for SAPT in psi4, default
symmetry c1  #important for SAPT in psi4, default
}

set PROPERTIES_ORIGIN ["COM"]
properties('MP2/aug-cc-pvtz', properties = ['dipole'])
--------------------------------------------------------------------------

    Molecular point group: c1
  Charge       = -1
  Multiplicity = 1
  Basis Set: AUG-CC-PVTZ
    Blend: AUG-CC-PVTZ
  Basis Set: (AUG-CC-PVTZ AUX)
    Blend: AUG-CC-PVTZ-JKFIT

    Orbital Energies [Eh]
    ---------------------

    Doubly Occupied:

       1A    -20.542599     2A    -20.542545     3A    -20.517287
       4A    -20.515810     5A    -20.514433     6A    -20.513020
       7A    -20.373535     8A    -20.364803     9A    -15.794460
      10A    -15.763827    11A    -15.762608    12A    -11.249262
      13A    -11.241468    14A    -11.241343    15A    -11.228510
      16A    -11.223836    17A    -11.223691    18A    -11.211955
      19A     -1.526002    20A     -1.497882    21A     -1.496335
      22A     -1.323882    23A     -1.297586    24A     -1.296071
      25A     -1.246487    26A     -1.151486    27A     -1.147404
      28A     -1.050065    29A     -1.043094    30A     -0.912775
      31A     -0.897454    32A     -0.893105    33A     -0.761435
      34A     -0.741924    35A     -0.712889    36A     -0.677638
      37A     -0.673102    38A     -0.660887    39A     -0.651981
      40A     -0.647816    41A     -0.635210    42A     -0.630021
      43A     -0.628164    44A     -0.604705    45A     -0.562560
      46A     -0.557790    47A     -0.522089    48A     -0.505097
      49A     -0.489458    50A     -0.464058    51A     -0.441470
      52A     -0.433884    53A     -0.427425    54A     -0.417074
      55A     -0.407935    56A     -0.403951    57A     -0.394542
      58A     -0.391923    59A     -0.358383    60A     -0.353794
      61A     -0.317016    62A     -0.307915    63A     -0.284204
      64A     -0.277482    65A     -0.262244

  @DF-RHF Final Energy: -1028.52744545411247

   => Energetics <=

    Nuclear Repulsion Energy =           1323.5959688597761215
    One-Electron Energy =               -4057.8254657462457544
    Two-Electron Energy =                1705.7020514323573934
    Total Energy =                      -1028.5274454541124669
  Basis Set: (AUG-CC-PVTZ AUX)
    Blend: AUG-CC-PVTZ-RI
    Molecular point group: c1

    Geometry (in Angstrom), charge = -1, multiplicity = 1:

       Center              X                  Y                   Z               Mass
    ------------   -----------------  -----------------  -----------------  -----------------
         O           -2.958225083088     0.883669210085    -0.743985789080    15.994914619570
         O           -2.958282083088    -0.884957789915     0.745014210920    15.994914619570
         O           -0.558800083088    -3.299462789915     0.783929210920    15.994914619570
         O           -0.558719083088     3.298181210085    -0.782735789080    15.994914619570
         O           -1.545138083088    -2.675825789915    -1.095358789080    15.994914619570
         O           -1.545153083088     2.674480210085     1.096481210920    15.994914619570
         O            3.950996916912    -1.099242789915    -0.051455789080    15.994914619570
         O            3.951008916912     1.097876210085     0.052549210920    15.994914619570
         N           -0.830996083088    -2.472863789915    -0.104209789080    14.003074004430
         N           -0.830967083088     2.471549210085     0.105356210920    14.003074004430
         N            3.369522916912    -0.000679789915     0.000549210920    14.003074004430
         C           -0.916885083088    -0.000657789915     0.000562210920    12.000000000000
         C           -0.156774083088    -1.171871789915    -0.021236789080    12.000000000000
         C           -0.156761083088     1.170551210085     0.022365210920    12.000000000000
         C            1.904555916912    -0.000672789915     0.000557210920    12.000000000000
         C            1.232836916912    -1.218849789915    -0.006490789080    12.000000000000
         C            1.232848916912     1.217512210085     0.007610210920    12.000000000000
         C           -2.467645483088     0.013469710085    -0.011354989080    12.000000000000
         H            1.770378916912    -2.160345789915    -0.004284789080     1.007825032230
         H            1.770401916912     2.159002210085     0.005404210920     1.007825032230

  Basis Set: AUG-CC-PVTZ
    Blend: AUG-CC-PVTZ
  Basis Set: (AUG-CC-PVTZ AUX)
    Blend: AUG-CC-PVTZ-JKFIT
	 Reference Energy          =   -1028.5274454541124669 [Eh]
	 Singles Energy            =      -0.0000000000000000 [Eh]
	 Same-Spin Energy          =      -1.0570992727651765 [Eh]
	 Opposite-Spin Energy      =      -2.9534595295961621 [Eh]
	 Correlation Energy        =      -4.0105588023613388 [Eh]
	 Total Energy              =   -1032.5380042564738687 [Eh]

	 ================> DF-SCS-MP2 Energies <==================
	-----------------------------------------------------------
	 SCS Same-Spin Scale       =       0.3333333333333333 [-]
	 SCS Opposite-Spin Scale   =       1.2000000000000000 [-]
	 SCS Same-Spin Energy      =      -0.3523664242550588 [Eh]
	 SCS Opposite-Spin Energy  =      -3.5441514355153942 [Eh]
	 SCS Correlation Energy    =      -3.8965178597704528 [Eh]
	 SCS Total Energy          =   -1032.4239633138829504 [Eh]
	-----------------------------------------------------------

  Dipole Moment: [D]
     X:     8.8743      Y:     0.1162      Z:    -0.1108     Total:     8.8757

*** Psi4 exiting successfully. Buy a developer a beer!
