                               Psi4 1.4a3.dev225

  ==> Input File <==

--------------------------------------------------------------------------
#psi4
#
memory 32 gb

molecule  {
-1 1
  O       -2.9714190     0.8843310    -0.7445430
  O       -2.9714760    -0.8842960     0.7444570
  O       -0.5719940    -3.2988010     0.7833720
  O       -0.5719130     3.2988430    -0.7832930
  O       -1.5583320    -2.6751640    -1.0959160
  O       -1.5583470     2.6751420     1.0959240
  O        3.9378030    -1.0985810    -0.0520130
  O        3.9378150     1.0985380     0.0519920
  N       -0.8441900    -2.4722020    -0.1047670
  N       -0.8879504     2.3392523     0.2476432
  N        3.3563290    -0.0000180    -0.0000080
  C       -0.9300790     0.0000040     0.0000050
  C       -0.1699680    -1.1712100    -0.0217940
  C       -0.1699550     1.1712130     0.0218080
  C        1.8913620    -0.0000110     0.0000000
  C        1.2196430    -1.2181880    -0.0070480
  C        1.2196550     1.2181740     0.0070530
  C       -2.4885490     0.0000140    -0.0000270
  H        1.7571850    -2.1596840    -0.0048420
  H        1.7572080     2.1596640     0.0048470
units angstrom
no_reorient  #important for SAPT in psi4, default
symmetry c1  #important for SAPT in psi4, default
}

set PROPERTIES_ORIGIN ["COM"]
properties('MP2/aug-cc-pvtz', properties = ['dipole'])
--------------------------------------------------------------------------

    Molecular point group: c1
  Charge       = -1
  Multiplicity = 1
  Basis Set: AUG-CC-PVTZ
    Blend: AUG-CC-PVTZ
  Basis Set: (AUG-CC-PVTZ AUX)
    Blend: AUG-CC-PVTZ-JKFIT

    Orbital Energies [Eh]
    ---------------------

    Doubly Occupied:

       1A    -20.574485     2A    -20.543648     3A    -20.543534
       4A    -20.518160     5A    -20.515338     6A    -20.450361
       7A    -20.375114     8A    -20.374573     9A    -15.795640
      10A    -15.764623    11A    -15.748221    12A    -11.251311
      13A    -11.242635    14A    -11.240847    15A    -11.233750
      16A    -11.227774    17A    -11.226291    18A    -11.212680
      19A     -1.557697    20A     -1.527005    21A     -1.498730
      22A     -1.324819    23A     -1.298462    24A     -1.252402
      25A     -1.209139    26A     -1.158350    27A     -1.149257
      28A     -1.063181    29A     -1.048099    30A     -0.924547
      31A     -0.905831    32A     -0.896959    33A     -0.765126
      34A     -0.749959    35A     -0.720428    36A     -0.680774
      37A     -0.677530    38A     -0.670515    39A     -0.657492
      40A     -0.648961    41A     -0.641432    42A     -0.635499
      43A     -0.631377    44A     -0.611590    45A     -0.565568
      46A     -0.560655    47A     -0.522812    48A     -0.509298
      49A     -0.491571    50A     -0.469488    51A     -0.441704
      52A     -0.436048    53A     -0.431264    54A     -0.414635
      55A     -0.406427    56A     -0.392612    57A     -0.387646
      58A     -0.364697    59A     -0.357909    60A     -0.335323
      61A     -0.319574    62A     -0.302952    63A     -0.287189
      64A     -0.283650    65A     -0.269398

  @DF-RHF Final Energy: -1028.47771148261609

   => Energetics <=

    Nuclear Repulsion Energy =           1325.4681471838262041
    One-Electron Energy =               -4061.3025815823016273
    Two-Electron Energy =                1707.3567229158593364
    Total Energy =                      -1028.4777114826160869
  Basis Set: (AUG-CC-PVTZ AUX)
    Blend: AUG-CC-PVTZ-RI
    Molecular point group: c1

    Geometry (in Angstrom), charge = -1, multiplicity = 1:

       Center              X                  Y                   Z               Mass
    ------------   -----------------  -----------------  -----------------  -----------------
         O           -2.955468266695     0.891604233428    -0.752356932282    15.994914619570
         O           -2.955525266695    -0.877022766572     0.736643067718    15.994914619570
         O           -0.556043266695    -3.291527766572     0.775558067718    15.994914619570
         O           -0.555962266695     3.306116233428    -0.791106932282    15.994914619570
         O           -1.542381266695    -2.667890766572    -1.103729932282    15.994914619570
         O           -1.542396266695     2.682415233428     1.088110067718    15.994914619570
         O            3.953753733305    -1.091307766572    -0.059826932282    15.994914619570
         O            3.953765733305     1.105811233428     0.044178067718    15.994914619570
         N           -0.828239266695    -2.464928766572    -0.112580932282    14.003074004430
         N           -0.871999666695     2.346525533428     0.239829267718    14.003074004430
         N            3.372279733305     0.007255233428    -0.007821932282    14.003074004430
         C           -0.914128266695     0.007277233428    -0.007808932282    12.000000000000
         C           -0.154017266695    -1.163936766572    -0.029607932282    12.000000000000
         C           -0.154004266695     1.178486233428     0.013994067718    12.000000000000
         C            1.907312733305     0.007262233428    -0.007813932282    12.000000000000
         C            1.235593733305    -1.210914766572    -0.014861932282    12.000000000000
         C            1.235605733305     1.225447233428    -0.000760932282    12.000000000000
         C           -2.472598266695     0.007287233428    -0.007840932282    12.000000000000
         H            1.773135733305    -2.152410766572    -0.012655932282     1.007825032230
         H            1.773158733305     2.166937233428    -0.002966932282     1.007825032230

  Basis Set: AUG-CC-PVTZ
    Blend: AUG-CC-PVTZ
  Basis Set: (AUG-CC-PVTZ AUX)
    Blend: AUG-CC-PVTZ-JKFIT
	 Reference Energy          =   -1028.4777114826160869 [Eh]
	 Singles Energy            =      -0.0000000000000000 [Eh]
	 Same-Spin Energy          =      -1.0542903231919698 [Eh]
	 Opposite-Spin Energy      =      -2.9490684291125406 [Eh]
	 Correlation Energy        =      -4.0033587523045107 [Eh]
	 Total Energy              =   -1032.4810702349207077 [Eh]

	 ================> DF-SCS-MP2 Energies <==================
	-----------------------------------------------------------
	 SCS Same-Spin Scale       =       0.3333333333333333 [-]
	 SCS Opposite-Spin Scale   =       1.2000000000000000 [-]
	 SCS Same-Spin Energy      =      -0.3514301077306566 [Eh]
	 SCS Opposite-Spin Energy  =      -3.5388821149350487 [Eh]
	 SCS Correlation Energy    =      -3.8903122226657052 [Eh]
	 SCS Total Energy          =   -1032.3680237052817574 [Eh]
	-----------------------------------------------------------

  Dipole Moment: [D]
     X:     8.6416      Y:    -1.0762      Z:     1.0518     Total:     8.7716

*** Psi4 exiting successfully. Buy a developer a beer!
