                               Psi4 1.4a3.dev225

  ==> Input File <==

--------------------------------------------------------------------------
#psi4
#
memory 32 gb

molecule  {
-1 1
  O       -2.9714190     0.8843310    -0.7445430
  O       -2.9714760    -0.8842960     0.7444570
  O       -0.5719940    -3.2988010     0.7833720
  O       -0.5719130     3.2988430    -0.7832930
  O       -1.5583320    -2.6751640    -1.0959160
  O       -1.5583470     2.6751420     1.0959240
  O        3.9378030    -1.0985810    -0.0520130
  O        3.9378150     1.0985380     0.0519920
  N       -0.8441900    -2.4722020    -0.1047670
  N       -0.8441610     2.4722110     0.1047990
  N        3.3563290    -0.0000180    -0.0000080
  C       -0.9300790     0.0000040     0.0000050
  C       -0.1699680    -1.1712100    -0.0217940
  C       -0.1699550     1.1712130     0.0218080
  C        1.8913620    -0.0000110     0.0000000
  C        1.2196430    -1.2181880    -0.0070480
  C        1.2196550     1.2181740     0.0070530
  C       -2.4114619    -0.1411616     0.1188302
  H        1.7571850    -2.1596840    -0.0048420
  H        1.7572080     2.1596640     0.0048470
units angstrom
no_reorient  #important for SAPT in psi4, default
symmetry c1  #important for SAPT in psi4, default
}

set PROPERTIES_ORIGIN ["COM"]
properties('MP2/aug-cc-pvtz', properties = ['dipole'])
--------------------------------------------------------------------------

    Molecular point group: c1
  Charge       = -1
  Multiplicity = 1
  Basis Set: AUG-CC-PVTZ
    Blend: AUG-CC-PVTZ
  Basis Set: (AUG-CC-PVTZ AUX)
    Blend: AUG-CC-PVTZ-JKFIT

    Orbital Energies [Eh]
    ---------------------

    Doubly Occupied:

       1A    -20.544684     2A    -20.544451     3A    -20.525040
       4A    -20.521726     5A    -20.511034     6A    -20.508365
       7A    -20.407060     8A    -20.325221     9A    -15.796435
      10A    -15.770745    11A    -15.759235    12A    -11.252346
      13A    -11.246527    14A    -11.244825    15A    -11.227066
      16A    -11.225854    17A    -11.219956    18A    -11.219197
      19A     -1.527968    20A     -1.505886    21A     -1.491421
      22A     -1.325817    23A     -1.323518    24A     -1.304955
      25A     -1.291051    26A     -1.156240    27A     -1.069412
      28A     -1.049957    29A     -1.039658    30A     -0.917285
      31A     -0.903936    32A     -0.895205    33A     -0.766973
      34A     -0.745563    35A     -0.714542    36A     -0.694347
      37A     -0.675106    38A     -0.663607    39A     -0.654027
      40A     -0.649826    41A     -0.639378    42A     -0.634523
      43A     -0.624631    44A     -0.607559    45A     -0.568321
      46A     -0.564560    47A     -0.534096    48A     -0.525067
      49A     -0.496145    50A     -0.462152    51A     -0.451597
      52A     -0.443487    53A     -0.433668    54A     -0.420627
      55A     -0.412486    56A     -0.403306    57A     -0.395196
      58A     -0.393640    59A     -0.363704    60A     -0.351143
      61A     -0.315012    62A     -0.310249    63A     -0.275819
      64A     -0.241063    65A     -0.227606

  @DF-RHF Final Energy: -1028.47081448745803

   => Energetics <=

    Nuclear Repulsion Energy =           1324.8732614265031771
    One-Electron Energy =               -4060.0659449367763045
    Two-Electron Energy =                1706.7218690228150990
    Total Energy =                      -1028.4708144874580285
  Basis Set: (AUG-CC-PVTZ AUX)
    Blend: AUG-CC-PVTZ-RI
    Molecular point group: c1

    Geometry (in Angstrom), charge = -1, multiplicity = 1:

       Center              X                  Y                   Z               Mass
    ------------   -----------------  -----------------  -----------------  -----------------
         O           -2.961477354266     0.890949023760    -0.750114717613    15.994914619570
         O           -2.961534354266    -0.877677976240     0.738885282387    15.994914619570
         O           -0.562052354266    -3.292182976240     0.777800282387    15.994914619570
         O           -0.561971354266     3.305461023760    -0.788864717613    15.994914619570
         O           -1.548390354266    -2.668545976240    -1.101487717613    15.994914619570
         O           -1.548405354266     2.681760023760     1.090352282387    15.994914619570
         O            3.947744645734    -1.091962976240    -0.057584717613    15.994914619570
         O            3.947756645734     1.105156023760     0.046420282387    15.994914619570
         N           -0.834248354266    -2.465583976240    -0.110338717613    14.003074004430
         N           -0.834219354266     2.478829023760     0.099227282387    14.003074004430
         N            3.366270645734     0.006600023760    -0.005579717613    14.003074004430
         C           -0.920137354266     0.006622023760    -0.005566717613    12.000000000000
         C           -0.160026354266    -1.164591976240    -0.027365717613    12.000000000000
         C           -0.160013354266     1.177831023760     0.016236282387    12.000000000000
         C            1.901303645734     0.006607023760    -0.005571717613    12.000000000000
         C            1.229584645734    -1.211569976240    -0.012619717613    12.000000000000
         C            1.229596645734     1.224792023760     0.001481282387    12.000000000000
         C           -2.401520254266    -0.134543576240     0.113258482387    12.000000000000
         H            1.767126645734    -2.153065976240    -0.010413717613     1.007825032230
         H            1.767149645734     2.166282023760    -0.000724717613     1.007825032230

  Basis Set: AUG-CC-PVTZ
    Blend: AUG-CC-PVTZ
  Basis Set: (AUG-CC-PVTZ AUX)
    Blend: AUG-CC-PVTZ-JKFIT
	 Reference Energy          =   -1028.4708144874580285 [Eh]
	 Singles Energy            =      -0.0000000000000000 [Eh]
	 Same-Spin Energy          =      -1.0588622160951531 [Eh]
	 Opposite-Spin Energy      =      -2.9577800600604438 [Eh]
	 Correlation Energy        =      -4.0166422761555971 [Eh]
	 Total Energy              =   -1032.4874567636136362 [Eh]

	 ================> DF-SCS-MP2 Energies <==================
	-----------------------------------------------------------
	 SCS Same-Spin Scale       =       0.3333333333333333 [-]
	 SCS Opposite-Spin Scale   =       1.2000000000000000 [-]
	 SCS Same-Spin Energy      =      -0.3529540720317177 [Eh]
	 SCS Opposite-Spin Energy  =      -3.5493360720725327 [Eh]
	 SCS Correlation Energy    =      -3.9022901441042501 [Eh]
	 SCS Total Energy          =   -1032.3731046315622280 [Eh]
	-----------------------------------------------------------

  Dipole Moment: [D]
     X:     9.0962      Y:    -1.1079      Z:     1.0796     Total:     9.2268

*** Psi4 exiting successfully. Buy a developer a beer!
