                               Psi4 1.4a3.dev225

  ==> Input File <==

--------------------------------------------------------------------------
#psi4
#
memory 32 gb

molecule  {
-1 1
  O       -2.9714190     0.8843310    -0.7445430
  O       -2.9714760    -0.8842960     0.7444570
  O       -0.5719940    -3.2988010     0.7833720
  O       -0.5719130     3.2988430    -0.7832930
  O       -1.5583320    -2.6751640    -1.0959160
  O       -1.5583470     2.6751420     1.0959240
  O        3.9378030    -1.0985810    -0.0520130
  O        3.9378150     1.0985380     0.0519920
  N       -0.8441900    -2.4722020    -0.1047670
  N       -0.8441610     2.4722110     0.1047990
  N        3.3563290    -0.0000180    -0.0000080
  C       -0.9300790     0.0000040     0.0000050
  C       -0.1699680    -1.1712100    -0.0217940
  C       -0.1699550     1.1712130     0.0218080
  C        2.0913620    -0.0000120    -0.0000011
  C        1.2196430    -1.2181880    -0.0070480
  C        1.2196550     1.2181740     0.0070530
  C       -2.4885490     0.0000140    -0.0000270
  H        1.7571850    -2.1596840    -0.0048420
  H        1.7572080     2.1596640     0.0048470
units angstrom
no_reorient  #important for SAPT in psi4, default
symmetry c1  #important for SAPT in psi4, default
}

set PROPERTIES_ORIGIN ["COM"]
properties('MP2/aug-cc-pvtz', properties = ['dipole'])
--------------------------------------------------------------------------

    Molecular point group: c1
  Charge       = -1
  Multiplicity = 1
  Basis Set: AUG-CC-PVTZ
    Blend: AUG-CC-PVTZ
  Basis Set: (AUG-CC-PVTZ AUX)
    Blend: AUG-CC-PVTZ-JKFIT

    Orbital Energies [Eh]
    ---------------------

    Doubly Occupied:

       1A    -20.520144     2A    -20.520143     3A    -20.519256
       4A    -20.519211     5A    -20.517490     6A    -20.517490
       7A    -20.379392     8A    -20.379360     9A    -15.776316
      10A    -15.767783    11A    -15.767783    12A    -11.245680
      13A    -11.245598    14A    -11.244467    15A    -11.244290
      16A    -11.243452    17A    -11.238821    18A    -11.231324
      19A     -1.532004    20A     -1.501094    21A     -1.500809
      22A     -1.313019    23A     -1.300663    24A     -1.300516
      25A     -1.255687    26A     -1.162195    27A     -1.144883
      28A     -1.088685    29A     -1.044687    30A     -0.931301
      31A     -0.903137    32A     -0.881045    33A     -0.753804
      34A     -0.744694    35A     -0.711203    36A     -0.689773
      37A     -0.672981    38A     -0.660215    39A     -0.657118
      40A     -0.655475    41A     -0.635281    42A     -0.633405
      43A     -0.624953    44A     -0.605794    45A     -0.568012
      46A     -0.563118    47A     -0.514439    48A     -0.490114
      49A     -0.478820    50A     -0.468380    51A     -0.439150
      52A     -0.431728    53A     -0.420896    54A     -0.414668
      55A     -0.414014    56A     -0.404278    57A     -0.396528
      58A     -0.383534    59A     -0.361754    60A     -0.357239
      61A     -0.316881    62A     -0.311092    63A     -0.291661
      64A     -0.283888    65A     -0.271935

  @DF-RHF Final Energy: -1028.47954638090278

   => Energetics <=

    Nuclear Repulsion Energy =           1322.3703324292614525
    One-Electron Energy =               -4054.9706563189506596
    Two-Electron Energy =                1704.1207775087864320
    Total Energy =                      -1028.4795463809027751
  Basis Set: (AUG-CC-PVTZ AUX)
    Blend: AUG-CC-PVTZ-RI
    Molecular point group: c1

    Geometry (in Angstrom), charge = -1, multiplicity = 1:

       Center              X                  Y                   Z               Mass
    ------------   -----------------  -----------------  -----------------  -----------------
         O           -2.967239252318     0.884331055649    -0.744542890675    15.994914619570
         O           -2.967296252318    -0.884295944351     0.744457109325    15.994914619570
         O           -0.567814252318    -3.298800944351     0.783372109325    15.994914619570
         O           -0.567733252318     3.298843055649    -0.783292890675    15.994914619570
         O           -1.554152252318    -2.675163944351    -1.095915890675    15.994914619570
         O           -1.554167252318     2.675142055649     1.095924109325    15.994914619570
         O            3.941982747682    -1.098580944351    -0.052012890675    15.994914619570
         O            3.941994747682     1.098538055649     0.051992109325    15.994914619570
         N           -0.840010252318    -2.472201944351    -0.104766890675    14.003074004430
         N           -0.839981252318     2.472211055649     0.104799109325    14.003074004430
         N            3.360508747682    -0.000017944351    -0.000007890675    14.003074004430
         C           -0.925899252318     0.000004055649     0.000005109325    12.000000000000
         C           -0.165788252318    -1.171209944351    -0.021793890675    12.000000000000
         C           -0.165775252318     1.171213055649     0.021808109325    12.000000000000
         C            2.095541747682    -0.000011944351    -0.000000990675    12.000000000000
         C            1.223822747682    -1.218187944351    -0.007047890675    12.000000000000
         C            1.223834747682     1.218174055649     0.007053109325    12.000000000000
         C           -2.484369252318     0.000014055649    -0.000026890675    12.000000000000
         H            1.761364747682    -2.159683944351    -0.004841890675     1.007825032230
         H            1.761387747682     2.159664055649     0.004847109325     1.007825032230

  Basis Set: AUG-CC-PVTZ
    Blend: AUG-CC-PVTZ
  Basis Set: (AUG-CC-PVTZ AUX)
    Blend: AUG-CC-PVTZ-JKFIT
	 Reference Energy          =   -1028.4795463809027751 [Eh]
	 Singles Energy            =      -0.0000000000000000 [Eh]
	 Same-Spin Energy          =      -1.0567645144596036 [Eh]
	 Opposite-Spin Energy      =      -2.9526228383173327 [Eh]
	 Correlation Energy        =      -4.0093873527769368 [Eh]
	 Total Energy              =   -1032.4889337336796871 [Eh]

	 ================> DF-SCS-MP2 Energies <==================
	-----------------------------------------------------------
	 SCS Same-Spin Scale       =       0.3333333333333333 [-]
	 SCS Opposite-Spin Scale   =       1.2000000000000000 [-]
	 SCS Same-Spin Energy      =      -0.3522548381532012 [Eh]
	 SCS Opposite-Spin Energy  =      -3.5431474059807990 [Eh]
	 SCS Correlation Energy    =      -3.8954022441340004 [Eh]
	 SCS Total Energy          =   -1032.3749486250367227 [Eh]
	-----------------------------------------------------------

  Dipole Moment: [D]
     X:     8.0338      Y:    -0.0001      Z:     0.0001     Total:     8.0338

*** Psi4 exiting successfully. Buy a developer a beer!
