                               Psi4 1.4a3.dev225

  ==> Input File <==

--------------------------------------------------------------------------
#psi4
#
memory 32 gb

molecule  {
-1 1
  O       -2.9714190     0.8843310    -0.7445430
  O       -2.9714760    -0.8842960     0.7444570
  O       -0.5719940    -3.2988010     0.7833720
  O       -0.5719130     3.2988430    -0.7832930
  O       -1.5583320    -2.6751640    -1.0959160
  O       -1.5583470     2.6751420     1.0959240
  O        3.9378030    -1.0985810    -0.0520130
  O        3.9378150     1.0985380     0.0519920
  N       -0.8441900    -2.4722020    -0.1047670
  N       -0.8441610     2.4722110     0.1047990
  N        3.3563290    -0.0000180    -0.0000080
  C       -0.9300790     0.0000040     0.0000050
  C       -0.1707589    -1.2197377    -0.0219864
  C       -0.1699550     1.1712130     0.0218080
  C        1.8913620    -0.0000110     0.0000000
  C        1.2196430    -1.2181880    -0.0070480
  C        1.2196550     1.2181740     0.0070530
  C       -2.4885490     0.0000140    -0.0000270
  H        1.7571850    -2.1596840    -0.0048420
  H        1.7572080     2.1596640     0.0048470
units angstrom
no_reorient  #important for SAPT in psi4, default
symmetry c1  #important for SAPT in psi4, default
}

set PROPERTIES_ORIGIN ["COM"]
properties('MP2/aug-cc-pvtz', properties = ['dipole'])
--------------------------------------------------------------------------

    Molecular point group: c1
  Charge       = -1
  Multiplicity = 1
  Basis Set: AUG-CC-PVTZ
    Blend: AUG-CC-PVTZ
  Basis Set: (AUG-CC-PVTZ AUX)
    Blend: AUG-CC-PVTZ-JKFIT

    Orbital Energies [Eh]
    ---------------------

    Doubly Occupied:

       1A    -20.541375     2A    -20.541173     3A    -20.517945
       4A    -20.516248     5A    -20.514903     6A    -20.513436
       7A    -20.369904     8A    -20.369733     9A    -15.793628
      10A    -15.764861    11A    -15.762978    12A    -11.247765
      13A    -11.241244    14A    -11.239570    15A    -11.228728
      16A    -11.224837    17A    -11.222743    18A    -11.216499
      19A     -1.524868    20A     -1.502286    21A     -1.496803
      22A     -1.322737    23A     -1.299401    24A     -1.296554
      25A     -1.246369    26A     -1.153138    27A     -1.146827
      28A     -1.050408    29A     -1.045678    30A     -0.914111
      31A     -0.900121    32A     -0.891310    33A     -0.761007
      34A     -0.740660    35A     -0.713033    36A     -0.674065
      37A     -0.672842    38A     -0.663327    39A     -0.652897
      40A     -0.646882    41A     -0.636023    42A     -0.632146
      43A     -0.628847    44A     -0.606065    45A     -0.560900
      46A     -0.554340    47A     -0.518683    48A     -0.503212
      49A     -0.486644    50A     -0.464918    51A     -0.440507
      52A     -0.433426    53A     -0.427603    54A     -0.418287
      55A     -0.410643    56A     -0.404417    57A     -0.396892
      58A     -0.391006    59A     -0.359025    60A     -0.354316
      61A     -0.315588    62A     -0.307235    63A     -0.281793
      64A     -0.277959    65A     -0.264082

  @DF-RHF Final Energy: -1028.52593739002987

   => Energetics <=

    Nuclear Repulsion Energy =           1323.2145762058544278
    One-Electron Energy =               -4057.0461259267249261
    Two-Electron Energy =                1705.3056123308406313
    Total Energy =                      -1028.5259373900298669
  Basis Set: (AUG-CC-PVTZ AUX)
    Blend: AUG-CC-PVTZ-RI
    Molecular point group: c1

    Geometry (in Angstrom), charge = -1, multiplicity = 1:

       Center              X                  Y                   Z               Mass
    ------------   -----------------  -----------------  -----------------  -----------------
         O           -2.957826597540     0.886605885208    -0.744533922934    15.994914619570
         O           -2.957883597540    -0.882021114792     0.744466077066    15.994914619570
         O           -0.558401597540    -3.296526114792     0.783381077066    15.994914619570
         O           -0.558320597540     3.301117885208    -0.783283922934    15.994914619570
         O           -1.544739597540    -2.672889114792    -1.095906922934    15.994914619570
         O           -1.544754597540     2.677416885208     1.095933077066    15.994914619570
         O            3.951395402460    -1.096306114792    -0.052003922934    15.994914619570
         O            3.951407402460     1.100812885208     0.052001077066    15.994914619570
         N           -0.830597597540    -2.469927114792    -0.104757922934    14.003074004430
         N           -0.830568597540     2.474485885208     0.104808077066    14.003074004430
         N            3.369921402460     0.002256885208     0.000001077066    14.003074004430
         C           -0.916486597540     0.002278885208     0.000014077066    12.000000000000
         C           -0.157166497540    -1.217462814792    -0.021977322934    12.000000000000
         C           -0.156362597540     1.173487885208     0.021817077066    12.000000000000
         C            1.904954402460     0.002263885208     0.000009077066    12.000000000000
         C            1.233235402460    -1.215913114792    -0.007038922934    12.000000000000
         C            1.233247402460     1.220448885208     0.007062077066    12.000000000000
         C           -2.474956597540     0.002288885208    -0.000017922934    12.000000000000
         H            1.770777402460    -2.157409114792    -0.004832922934     1.007825032230
         H            1.770800402460     2.161938885208     0.004856077066     1.007825032230

  Basis Set: AUG-CC-PVTZ
    Blend: AUG-CC-PVTZ
  Basis Set: (AUG-CC-PVTZ AUX)
    Blend: AUG-CC-PVTZ-JKFIT
	 Reference Energy          =   -1028.5259373900298669 [Eh]
	 Singles Energy            =      -0.0000000000000000 [Eh]
	 Same-Spin Energy          =      -1.0569566905959631 [Eh]
	 Opposite-Spin Energy      =      -2.9530500358874185 [Eh]
	 Correlation Energy        =      -4.0100067264833816 [Eh]
	 Total Energy              =   -1032.5359441165132921 [Eh]

	 ================> DF-SCS-MP2 Energies <==================
	-----------------------------------------------------------
	 SCS Same-Spin Scale       =       0.3333333333333333 [-]
	 SCS Opposite-Spin Scale   =       1.2000000000000000 [-]
	 SCS Same-Spin Energy      =      -0.3523188968653210 [Eh]
	 SCS Opposite-Spin Energy  =      -3.5436600430649023 [Eh]
	 SCS Correlation Energy    =      -3.8959789399302234 [Eh]
	 SCS Total Energy          =   -1032.4219163299601405 [Eh]
	-----------------------------------------------------------

  Dipole Moment: [D]
     X:     8.7822      Y:    -0.0724      Z:    -0.0095     Total:     8.7825

*** Psi4 exiting successfully. Buy a developer a beer!
