                               Psi4 1.4a3.dev225

  ==> Input File <==

--------------------------------------------------------------------------
#psi4
#
memory 32 gb

molecule  {
-1 1
  O       -2.9714190     0.8843310    -0.7445430
  O       -2.9714760    -0.8842960     0.7444570
  O       -0.5719940    -3.2988010     0.7833720
  O       -0.5719130     3.2988430    -0.7832930
  O       -1.5583320    -2.6751640    -1.0959160
  O       -1.5583470     2.6751420     1.0959240
  O        3.9378030    -1.0985810    -0.0520130
  O        3.9378150     1.0985380     0.0519920
  N       -0.8441900    -2.4722020    -0.1047670
  N       -0.8441610     2.4722110     0.1047990
  N        3.3563290    -0.0000180    -0.0000080
  C       -0.9300790     0.0000040     0.0000050
  C       -0.1699680    -1.1712100    -0.0217940
  C       -0.1699550     1.1712130     0.0218080
  C        1.8913620    -0.0000110     0.0000000
  C        1.2196430    -1.2181880    -0.0070480
  C        1.1696863     1.2164853     0.0075836
  C       -2.4885490     0.0000140    -0.0000270
  H        1.7571850    -2.1596840    -0.0048420
  H        1.7572080     2.1596640     0.0048470
units angstrom
no_reorient  #important for SAPT in psi4, default
symmetry c1  #important for SAPT in psi4, default
}

set PROPERTIES_ORIGIN ["COM"]
properties('MP2/aug-cc-pvtz', properties = ['dipole'])
--------------------------------------------------------------------------

    Molecular point group: c1
  Charge       = -1
  Multiplicity = 1
  Basis Set: AUG-CC-PVTZ
    Blend: AUG-CC-PVTZ
  Basis Set: (AUG-CC-PVTZ AUX)
    Blend: AUG-CC-PVTZ-JKFIT

    Orbital Energies [Eh]
    ---------------------

    Doubly Occupied:

       1A    -20.542016     2A    -20.541374     3A    -20.516755
       4A    -20.516099     5A    -20.513963     6A    -20.513268
       7A    -20.370742     8A    -20.370316     9A    -15.794637
      10A    -15.763057    11A    -15.762668    12A    -11.248751
      13A    -11.239137    14A    -11.236434    15A    -11.229817
      16A    -11.224144    17A    -11.220899    18A    -11.212681
      19A     -1.525113    20A     -1.497450    21A     -1.496620
      22A     -1.323008    23A     -1.297069    24A     -1.296407
      25A     -1.247203    26A     -1.153819    27A     -1.151771
      28A     -1.050306    29A     -1.044386    30A     -0.912853
      31A     -0.897725    32A     -0.890551    33A     -0.762612
      34A     -0.741251    35A     -0.712170    36A     -0.676553
      37A     -0.672912    38A     -0.658656    39A     -0.652274
      40A     -0.646984    41A     -0.635933    42A     -0.629866
      43A     -0.628556    44A     -0.602667    45A     -0.564870
      46A     -0.558744    47A     -0.512412    48A     -0.505932
      49A     -0.490745    50A     -0.466478    51A     -0.440996
      52A     -0.433698    53A     -0.428224    54A     -0.417346
      55A     -0.407808    56A     -0.403753    57A     -0.394121
      58A     -0.391320    59A     -0.358343    60A     -0.353823
      61A     -0.316925    62A     -0.312549    63A     -0.283136
      64A     -0.279089    65A     -0.264622

  @DF-RHF Final Energy: -1028.52609826309458

   => Energetics <=

    Nuclear Repulsion Energy =           1324.1402811817990823
    One-Electron Energy =               -4058.9199492229827229
    Two-Electron Energy =                1706.2535697780892860
    Total Energy =                      -1028.5260982630945819
  Basis Set: (AUG-CC-PVTZ AUX)
    Blend: AUG-CC-PVTZ-RI
    Molecular point group: c1

    Geometry (in Angstrom), charge = -1, multiplicity = 1:

       Center              X                  Y                   Z               Mass
    ------------   -----------------  -----------------  -----------------  -----------------
         O           -2.955521245783     0.884410171473    -0.744567815652    15.994914619570
         O           -2.955578245783    -0.884216828527     0.744432184348    15.994914619570
         O           -0.556096245783    -3.298721828527     0.783347184348    15.994914619570
         O           -0.556015245783     3.298922171473    -0.783317815652    15.994914619570
         O           -1.542434245783    -2.675084828527    -1.095940815652    15.994914619570
         O           -1.542449245783     2.675221171473     1.095899184348    15.994914619570
         O            3.953700754217    -1.098501828527    -0.052037815652    15.994914619570
         O            3.953712754217     1.098617171473     0.051967184348    15.994914619570
         N           -0.828292245783    -2.472122828527    -0.104791815652    14.003074004430
         N           -0.828263245783     2.472290171473     0.104774184348    14.003074004430
         N            3.372226754217     0.000061171473    -0.000032815652    14.003074004430
         C           -0.914181245783     0.000083171473    -0.000019815652    12.000000000000
         C           -0.154070245783    -1.171130828527    -0.021818815652    12.000000000000
         C           -0.154057245783     1.171292171473     0.021783184348    12.000000000000
         C            1.907259754217     0.000068171473    -0.000024815652    12.000000000000
         C            1.235540754217    -1.218108828527    -0.007072815652    12.000000000000
         C            1.185584054217     1.216564471473     0.007558784348    12.000000000000
         C           -2.472651245783     0.000093171473    -0.000051815652    12.000000000000
         H            1.773082754217    -2.159604828527    -0.004866815652     1.007825032230
         H            1.773105754217     2.159743171473     0.004822184348     1.007825032230

  Basis Set: AUG-CC-PVTZ
    Blend: AUG-CC-PVTZ
  Basis Set: (AUG-CC-PVTZ AUX)
    Blend: AUG-CC-PVTZ-JKFIT
	 Reference Energy          =   -1028.5260982630945819 [Eh]
	 Singles Energy            =      -0.0000000000000000 [Eh]
	 Same-Spin Energy          =      -1.0567247606768249 [Eh]
	 Opposite-Spin Energy      =      -2.9527305363832550 [Eh]
	 Correlation Energy        =      -4.0094552970600796 [Eh]
	 Total Energy              =   -1032.5355535601547672 [Eh]

	 ================> DF-SCS-MP2 Energies <==================
	-----------------------------------------------------------
	 SCS Same-Spin Scale       =       0.3333333333333333 [-]
	 SCS Opposite-Spin Scale   =       1.2000000000000000 [-]
	 SCS Same-Spin Energy      =      -0.3522415868922749 [Eh]
	 SCS Opposite-Spin Energy  =      -3.5432766436599059 [Eh]
	 SCS Correlation Energy    =      -3.8955182305521809 [Eh]
	 SCS Total Energy          =   -1032.4216164936467521 [Eh]
	-----------------------------------------------------------

  Dipole Moment: [D]
     X:     8.8009      Y:    -0.0070      Z:    -0.0039     Total:     8.8009

*** Psi4 exiting successfully. Buy a developer a beer!
