                               Psi4 1.4a3.dev225

  ==> Input File <==

--------------------------------------------------------------------------
#psi4
#
memory 32 gb

molecule  {
-1 1
  O       -2.9714190     0.8843310    -0.7445430
  O       -2.9714760    -0.8842960     0.7444570
  O       -0.5719940    -3.2988010     0.7833720
  O       -0.5719130     3.2988430    -0.7832930
  O       -1.5583320    -2.6751640    -1.0959160
  O       -1.5583470     2.6751420     1.0959240
  O        3.9378030    -1.0985810    -0.0520130
  O        3.9378150     1.0985380     0.0519920
  N       -0.8441900    -2.4722020    -0.1047670
  N       -0.8441610     2.4722110     0.1047990
  N        3.3563290    -0.0000180    -0.0000080
  C       -0.9300790     0.0000040     0.0000050
  C       -0.2159064    -1.2598537    -0.0274474
  C       -0.1699550     1.1712130     0.0218080
  C        1.8913620    -0.0000110     0.0000000
  C        1.2196430    -1.2181880    -0.0070480
  C        1.2196550     1.2181740     0.0070530
  C       -2.4885490     0.0000140    -0.0000270
  H        1.7571850    -2.1596840    -0.0048420
  H        1.7572080     2.1596640     0.0048470
units angstrom
no_reorient  #important for SAPT in psi4, default
symmetry c1  #important for SAPT in psi4, default
}

set PROPERTIES_ORIGIN ["COM"]
properties('MP2/aug-cc-pvtz', properties = ['dipole'])
--------------------------------------------------------------------------

    Molecular point group: c1
  Charge       = -1
  Multiplicity = 1
  Basis Set: AUG-CC-PVTZ
    Blend: AUG-CC-PVTZ
  Basis Set: (AUG-CC-PVTZ AUX)
    Blend: AUG-CC-PVTZ-JKFIT

    Orbital Energies [Eh]
    ---------------------

    Doubly Occupied:

       1A    -20.541677     2A    -20.541455     3A    -20.518663
       4A    -20.516234     5A    -20.515943     6A    -20.513488
       7A    -20.369002     8A    -20.368735     9A    -15.794147
      10A    -15.765432    11A    -15.763325    12A    -11.248171
      13A    -11.242307    14A    -11.239733    15A    -11.228738
      16A    -11.226974    17A    -11.225460    18A    -11.217810
      19A     -1.525178    20A     -1.509211    21A     -1.496843
      22A     -1.323023    23A     -1.302160    24A     -1.296575
      25A     -1.245550    26A     -1.152335    27A     -1.143345
      28A     -1.059269    29A     -1.045130    30A     -0.918573
      31A     -0.904224    32A     -0.887985    33A     -0.759592
      34A     -0.741237    35A     -0.713348    36A     -0.674612
      37A     -0.671741    38A     -0.666997    39A     -0.655077
      40A     -0.647208    41A     -0.638405    42A     -0.633817
      43A     -0.629143    44A     -0.607868    45A     -0.560910
      46A     -0.547658    47A     -0.517455    48A     -0.498073
      49A     -0.483816    50A     -0.462921    51A     -0.440707
      52A     -0.433359    53A     -0.426946    54A     -0.420001
      55A     -0.414363    56A     -0.404557    57A     -0.398972
      58A     -0.391203    59A     -0.359961    60A     -0.354619
      61A     -0.315463    62A     -0.301967    63A     -0.279703
      64A     -0.276912    65A     -0.263427

  @DF-RHF Final Energy: -1028.51569884134847

   => Energetics <=

    Nuclear Repulsion Energy =           1323.1686428816699390
    One-Electron Energy =               -4056.8912168256770201
    Two-Electron Energy =                1705.2068751026588416
    Total Energy =                      -1028.5156988413484669
  Basis Set: (AUG-CC-PVTZ AUX)
    Blend: AUG-CC-PVTZ-RI
    Molecular point group: c1

    Geometry (in Angstrom), charge = -1, multiplicity = 1:

       Center              X                  Y                   Z               Mass
    ------------   -----------------  -----------------  -----------------  -----------------
         O           -2.955710177764     0.888486438854    -0.744277922748    15.994914619570
         O           -2.955767177764    -0.880140561146     0.744722077252    15.994914619570
         O           -0.556285177764    -3.294645561146     0.783637077252    15.994914619570
         O           -0.556204177764     3.302998438854    -0.783027922748    15.994914619570
         O           -1.542623177764    -2.671008561146    -1.095650922748    15.994914619570
         O           -1.542638177764     2.679297438854     1.096189077252    15.994914619570
         O            3.953511822236    -1.094425561146    -0.051747922748    15.994914619570
         O            3.953523822236     1.102693438854     0.052257077252    15.994914619570
         N           -0.828481177764    -2.468046561146    -0.104501922748    14.003074004430
         N           -0.828452177764     2.476366438854     0.105064077252    14.003074004430
         N            3.372037822236     0.004137438854     0.000257077252    14.003074004430
         C           -0.914370177764     0.004159438854     0.000270077252    12.000000000000
         C           -0.200197577764    -1.255698261146    -0.027182322748    12.000000000000
         C           -0.154246177764     1.175368438854     0.022073077252    12.000000000000
         C            1.907070822236     0.004144438854     0.000265077252    12.000000000000
         C            1.235351822236    -1.214032561146    -0.006782922748    12.000000000000
         C            1.235363822236     1.222329438854     0.007318077252    12.000000000000
         C           -2.472840177764     0.004169438854     0.000238077252    12.000000000000
         H            1.772893822236    -2.155528561146    -0.004576922748     1.007825032230
         H            1.772916822236     2.163819438854     0.005112077252     1.007825032230

  Basis Set: AUG-CC-PVTZ
    Blend: AUG-CC-PVTZ
  Basis Set: (AUG-CC-PVTZ AUX)
    Blend: AUG-CC-PVTZ-JKFIT
	 Reference Energy          =   -1028.5156988413484669 [Eh]
	 Singles Energy            =      -0.0000000000000000 [Eh]
	 Same-Spin Energy          =      -1.0576651249663598 [Eh]
	 Opposite-Spin Energy      =      -2.9540741558872283 [Eh]
	 Correlation Energy        =      -4.0117392808535879 [Eh]
	 Total Energy              =   -1032.5274381222020565 [Eh]

	 ================> DF-SCS-MP2 Energies <==================
	-----------------------------------------------------------
	 SCS Same-Spin Scale       =       0.3333333333333333 [-]
	 SCS Opposite-Spin Scale   =       1.2000000000000000 [-]
	 SCS Same-Spin Energy      =      -0.3525550416554533 [Eh]
	 SCS Opposite-Spin Energy  =      -3.5448889870646738 [Eh]
	 SCS Correlation Energy    =      -3.8974440287201269 [Eh]
	 SCS Total Energy          =   -1032.4131428700686683 [Eh]
	-----------------------------------------------------------

  Dipole Moment: [D]
     X:     8.7528      Y:    -0.1118      Z:    -0.0097     Total:     8.7535

*** Psi4 exiting successfully. Buy a developer a beer!
