                               Psi4 1.4a3.dev225

  ==> Input File <==

--------------------------------------------------------------------------
#psi4
#
memory 32 gb

molecule  {
-1 1
  O       -2.9714190     0.8843310    -0.7445430
  O       -2.9714760    -0.8842960     0.7444570
  O       -0.5719940    -3.2988010     0.7833720
  O       -0.5719130     3.2988430    -0.7832930
  O       -1.5583320    -2.6751640    -1.0959160
  O       -1.5583470     2.6751420     1.0959240
  O        3.9378030    -1.0985810    -0.0520130
  O        3.9378150     1.0985380     0.0519920
  N       -0.8441900    -2.4722020    -0.1047670
  N       -0.8003716     2.6051697    -0.0380452
  N        3.3563290    -0.0000180    -0.0000080
  C       -0.9300790     0.0000040     0.0000050
  C       -0.1699680    -1.1712100    -0.0217940
  C       -0.1699550     1.1712130     0.0218080
  C        1.8913620    -0.0000110     0.0000000
  C        1.2196430    -1.2181880    -0.0070480
  C        1.2196550     1.2181740     0.0070530
  C       -2.4885490     0.0000140    -0.0000270
  H        1.7571850    -2.1596840    -0.0048420
  H        1.7572080     2.1596640     0.0048470
units angstrom
no_reorient  #important for SAPT in psi4, default
symmetry c1  #important for SAPT in psi4, default
}

set PROPERTIES_ORIGIN ["COM"]
properties('MP2/aug-cc-pvtz', properties = ['dipole'])
--------------------------------------------------------------------------

    Molecular point group: c1
  Charge       = -1
  Multiplicity = 1
  Basis Set: AUG-CC-PVTZ
    Blend: AUG-CC-PVTZ
  Basis Set: (AUG-CC-PVTZ AUX)
    Blend: AUG-CC-PVTZ-JKFIT

    Orbital Energies [Eh]
    ---------------------

    Doubly Occupied:

       1A    -20.583529     2A    -20.539784     3A    -20.539637
       4A    -20.513130     5A    -20.510373     6A    -20.453839
       7A    -20.363762     8A    -20.363690     9A    -15.791343
      10A    -15.759746    11A    -15.758569    12A    -11.244784
      13A    -11.237126    14A    -11.236966    15A    -11.223077
      16A    -11.217636    17A    -11.216573    18A    -11.205791
      19A     -1.659131    20A     -1.523151    21A     -1.493662
      22A     -1.321131    23A     -1.293441    24A     -1.250488
      25A     -1.237662    26A     -1.146762    27A     -1.142320
      28A     -1.043796    29A     -1.025419    30A     -0.905694
      31A     -0.891748    32A     -0.875156    33A     -0.775351
      34A     -0.752993    35A     -0.724602    36A     -0.694521
      37A     -0.681833    38A     -0.669767    39A     -0.663892
      40A     -0.661310    41A     -0.644779    42A     -0.639959
      43A     -0.628674    44A     -0.619473    45A     -0.571865
      46A     -0.554976    47A     -0.520082    48A     -0.499781
      49A     -0.484843    50A     -0.460646    51A     -0.438911
      52A     -0.430805    53A     -0.423040    54A     -0.410009
      55A     -0.400244    56A     -0.390172    57A     -0.389482
      58A     -0.357971    59A     -0.353951    60A     -0.347067
      61A     -0.310678    62A     -0.299149    63A     -0.275648
      64A     -0.272785    65A     -0.257501

  @DF-RHF Final Energy: -1028.46516533053091

   => Energetics <=

    Nuclear Repulsion Energy =           1322.5888213197188179
    One-Electron Energy =               -4055.7566204552904310
    Two-Electron Energy =                1704.7026338050409322
    Total Energy =                      -1028.4651653305309082
  Basis Set: (AUG-CC-PVTZ AUX)
    Blend: AUG-CC-PVTZ-RI
    Molecular point group: c1

    Geometry (in Angstrom), charge = -1, multiplicity = 1:

       Center              X                  Y                   Z               Mass
    ------------   -----------------  -----------------  -----------------  -----------------
         O           -2.960259079839     0.877057784113    -0.736728952200    15.994914619570
         O           -2.960316079839    -0.891569215887     0.752271047800    15.994914619570
         O           -0.560834079839    -3.306074215887     0.791186047800    15.994914619570
         O           -0.560753079839     3.291569784113    -0.775478952200    15.994914619570
         O           -1.547172079839    -2.682437215887    -1.088101952200    15.994914619570
         O           -1.547187079839     2.667868784113     1.103738047800    15.994914619570
         O            3.948962920161    -1.105854215887    -0.044198952200    15.994914619570
         O            3.948974920161     1.091264784113     0.059806047800    15.994914619570
         N           -0.833030079839    -2.479475215887    -0.096952952200    14.003074004430
         N           -0.789211679839     2.597896484113    -0.030231152200    14.003074004430
         N            3.367488920161    -0.007291215887     0.007806047800    14.003074004430
         C           -0.918919079839    -0.007269215887     0.007819047800    12.000000000000
         C           -0.158808079839    -1.178483215887    -0.013979952200    12.000000000000
         C           -0.158795079839     1.163939784113     0.029622047800    12.000000000000
         C            1.902521920161    -0.007284215887     0.007814047800    12.000000000000
         C            1.230802920161    -1.225461215887     0.000766047800    12.000000000000
         C            1.230814920161     1.210900784113     0.014867047800    12.000000000000
         C           -2.477389079839    -0.007259215887     0.007787047800    12.000000000000
         H            1.768344920161    -2.166957215887     0.002972047800     1.007825032230
         H            1.768367920161     2.152390784113     0.012661047800     1.007825032230

  Basis Set: AUG-CC-PVTZ
    Blend: AUG-CC-PVTZ
  Basis Set: (AUG-CC-PVTZ AUX)
    Blend: AUG-CC-PVTZ-JKFIT
	 Reference Energy          =   -1028.4651653305309082 [Eh]
	 Singles Energy            =      -0.0000000000000000 [Eh]
	 Same-Spin Energy          =      -1.0513218298873472 [Eh]
	 Opposite-Spin Energy      =      -2.9401336302973418 [Eh]
	 Correlation Energy        =      -3.9914554601846888 [Eh]
	 Total Energy              =   -1032.4566207907155331 [Eh]

	 ================> DF-SCS-MP2 Energies <==================
	-----------------------------------------------------------
	 SCS Same-Spin Scale       =       0.3333333333333333 [-]
	 SCS Opposite-Spin Scale   =       1.2000000000000000 [-]
	 SCS Same-Spin Energy      =      -0.3504406099624491 [Eh]
	 SCS Opposite-Spin Energy  =      -3.5281603563568100 [Eh]
	 SCS Correlation Energy    =      -3.8786009663192589 [Eh]
	 SCS Total Energy          =   -1032.3437662968501627 [Eh]
	-----------------------------------------------------------

  Dipole Moment: [D]
     X:     9.1123      Y:     0.9242      Z:    -1.2674     Total:     9.2463

*** Psi4 exiting successfully. Buy a developer a beer!
