                               Psi4 1.4a3.dev225

  ==> Input File <==

--------------------------------------------------------------------------
#psi4
#
memory 32 gb

molecule  {
-1 1
  O       -2.9714190     0.8843310    -0.7445430
  O       -2.9714760    -0.8842960     0.7444570
  O       -0.5719940    -3.2988010     0.7833720
  O       -0.5719130     3.2988430    -0.7832930
  O       -1.5583320    -2.6751640    -1.0959160
  O       -1.5583470     2.6751420     1.0959240
  O        3.9378030    -1.0985810    -0.0520130
  O        3.9378150     1.0985380     0.0519920
  N       -0.8441900    -2.4722020    -0.1047670
  N       -0.8441610     2.4722110     0.1047990
  N        3.3563290    -0.0000180    -0.0000080
  C       -0.9300790     0.0000040     0.0000050
  C       -0.1699680    -1.1712100    -0.0217940
  C       -0.1699550     1.1712130     0.0218080
  C        1.8913620    -0.0000110     0.0000000
  C        1.2437861    -1.1744039    -0.0067947
  C        1.2196550     1.2181740     0.0070530
  C       -2.4885490     0.0000140    -0.0000270
  H        1.7571850    -2.1596840    -0.0048420
  H        1.7572080     2.1596640     0.0048470
units angstrom
no_reorient  #important for SAPT in psi4, default
symmetry c1  #important for SAPT in psi4, default
}

set PROPERTIES_ORIGIN ["COM"]
properties('MP2/aug-cc-pvtz', properties = ['dipole'])
--------------------------------------------------------------------------

    Molecular point group: c1
  Charge       = -1
  Multiplicity = 1
  Basis Set: AUG-CC-PVTZ
    Blend: AUG-CC-PVTZ
  Basis Set: (AUG-CC-PVTZ AUX)
    Blend: AUG-CC-PVTZ-JKFIT

    Orbital Energies [Eh]
    ---------------------

    Doubly Occupied:

       1A    -20.543816     2A    -20.543258     3A    -20.516609
       4A    -20.516112     5A    -20.513770     6A    -20.513352
       7A    -20.368989     8A    -20.368730     9A    -15.794796
      10A    -15.763874    11A    -15.762813    12A    -11.245011
      13A    -11.241124    14A    -11.241101    15A    -11.227981
      16A    -11.222126    17A    -11.221609    18A    -11.209031
      19A     -1.526872    20A     -1.496975    21A     -1.496628
      22A     -1.324698    23A     -1.296754    24A     -1.296414
      25A     -1.245567    26A     -1.152865    27A     -1.152227
      28A     -1.053304    29A     -1.038994    30A     -0.914040
      31A     -0.895635    32A     -0.893224    33A     -0.761415
      34A     -0.741975    35A     -0.713704    36A     -0.675627
      37A     -0.673232    38A     -0.661729    39A     -0.651007
      40A     -0.648823    41A     -0.634122    42A     -0.629622
      43A     -0.628022    44A     -0.603318    45A     -0.563197
      46A     -0.554368    47A     -0.518958    48A     -0.502307
      49A     -0.490080    50A     -0.465359    51A     -0.442216
      52A     -0.434526    53A     -0.428087    54A     -0.416519
      55A     -0.408080    56A     -0.404342    57A     -0.394722
      58A     -0.392341    59A     -0.358046    60A     -0.353665
      61A     -0.320179    62A     -0.304283    63A     -0.281144
      64A     -0.280161    65A     -0.263244

  @DF-RHF Final Energy: -1028.52525914882062

   => Energetics <=

    Nuclear Repulsion Energy =           1323.9219761559054405
    One-Electron Energy =               -4058.5010384968973085
    Two-Electron Energy =                1706.0538031921714719
    Total Energy =                      -1028.5252591488206235
  Basis Set: (AUG-CC-PVTZ AUX)
    Blend: AUG-CC-PVTZ-RI
    Molecular point group: c1

    Geometry (in Angstrom), charge = -1, multiplicity = 1:

       Center              X                  Y                   Z               Mass
    ------------   -----------------  -----------------  -----------------  -----------------
         O           -2.958995450980     0.882278502317    -0.744554816412    15.994914619570
         O           -2.959052450980    -0.886348497683     0.744445183588    15.994914619570
         O           -0.559570450980    -3.300853497683     0.783360183588    15.994914619570
         O           -0.559489450980     3.296790502317    -0.783304816412    15.994914619570
         O           -1.545908450980    -2.677216497683    -1.095927816412    15.994914619570
         O           -1.545923450980     2.673089502317     1.095912183588    15.994914619570
         O            3.950226549020    -1.100633497683    -0.052024816412    15.994914619570
         O            3.950238549020     1.096485502317     0.051980183588    15.994914619570
         N           -0.831766450980    -2.474254497683    -0.104778816412    14.003074004430
         N           -0.831737450980     2.470158502317     0.104787183588    14.003074004430
         N            3.368752549020    -0.002070497683    -0.000019816412    14.003074004430
         C           -0.917655450980    -0.002048497683    -0.000006816412    12.000000000000
         C           -0.157544450980    -1.173262497683    -0.021805816412    12.000000000000
         C           -0.157531450980     1.169160502317     0.021796183588    12.000000000000
         C            1.903785549020    -0.002063497683    -0.000011816412    12.000000000000
         C            1.256209649020    -1.176456397683    -0.006806516412    12.000000000000
         C            1.232078549020     1.216121502317     0.007041183588    12.000000000000
         C           -2.476125450980    -0.002038497683    -0.000038816412    12.000000000000
         H            1.769608549020    -2.161736497683    -0.004853816412     1.007825032230
         H            1.769631549020     2.157611502317     0.004835183588     1.007825032230

  Basis Set: AUG-CC-PVTZ
    Blend: AUG-CC-PVTZ
  Basis Set: (AUG-CC-PVTZ AUX)
    Blend: AUG-CC-PVTZ-JKFIT
	 Reference Energy          =   -1028.5252591488206235 [Eh]
	 Singles Energy            =      -0.0000000000000000 [Eh]
	 Same-Spin Energy          =      -1.0570098342943379 [Eh]
	 Opposite-Spin Energy      =      -2.9532834289364231 [Eh]
	 Correlation Energy        =      -4.0102932632307606 [Eh]
	 Total Energy              =   -1032.5355524120514019 [Eh]

	 ================> DF-SCS-MP2 Energies <==================
	-----------------------------------------------------------
	 SCS Same-Spin Scale       =       0.3333333333333333 [-]
	 SCS Opposite-Spin Scale   =       1.2000000000000000 [-]
	 SCS Same-Spin Energy      =      -0.3523366114314460 [Eh]
	 SCS Opposite-Spin Energy  =      -3.5439401147237075 [Eh]
	 SCS Correlation Energy    =      -3.8962767261551536 [Eh]
	 SCS Total Energy          =   -1032.4215358749756888 [Eh]
	-----------------------------------------------------------

  Dipole Moment: [D]
     X:     8.8635      Y:    -0.0350      Z:    -0.0065     Total:     8.8636

*** Psi4 exiting successfully. Buy a developer a beer!
