                               Psi4 1.4a3.dev225

  ==> Input File <==

--------------------------------------------------------------------------
#psi4
#
memory 32 gb

molecule  {
-1 1
  O       -2.9714190     0.8843310    -0.7445430
  O       -2.9714760    -0.8842960     0.7444570
  O       -0.5719940    -3.2988010     0.7833720
  O       -0.5719130     3.2988430    -0.7832930
  O       -1.5583320    -2.6751640    -1.0959160
  O       -1.5583470     2.6751420     1.0959240
  O        3.9378030    -1.0985810    -0.0520130
  O        3.9378150     1.0985380     0.0519920
  N       -0.8441900    -2.4722020    -0.1047670
  N       -0.8441610     2.4722110     0.1047990
  N        3.3563290    -0.0000180    -0.0000080
  C       -0.9300790     0.0000040     0.0000050
  C       -0.2788337    -1.0034647    -0.0186719
  C       -0.1699550     1.1712130     0.0218080
  C        1.8913620    -0.0000110     0.0000000
  C        1.2196430    -1.2181880    -0.0070480
  C        1.2196550     1.2181740     0.0070530
  C       -2.4885490     0.0000140    -0.0000270
  H        1.7571850    -2.1596840    -0.0048420
  H        1.7572080     2.1596640     0.0048470
units angstrom
no_reorient  #important for SAPT in psi4, default
symmetry c1  #important for SAPT in psi4, default
}

set PROPERTIES_ORIGIN ["COM"]
properties('MP2/aug-cc-pvtz', properties = ['dipole'])
--------------------------------------------------------------------------

    Molecular point group: c1
  Charge       = -1
  Multiplicity = 1
  Basis Set: AUG-CC-PVTZ
    Blend: AUG-CC-PVTZ
  Basis Set: (AUG-CC-PVTZ AUX)
    Blend: AUG-CC-PVTZ-JKFIT

    Orbital Energies [Eh]
    ---------------------

    Doubly Occupied:

       1A    -20.547859     2A    -20.545629     3A    -20.516558
       4A    -20.514031     5A    -20.510062     6A    -20.509311
       7A    -20.368692     8A    -20.367907     9A    -15.796825
      10A    -15.763471    11A    -15.753439    12A    -11.253976
      13A    -11.247851    14A    -11.239377    15A    -11.235669
      16A    -11.228555    17A    -11.217138    18A    -11.173949
      19A     -1.529510    20A     -1.497290    21A     -1.483735
      22A     -1.327419    23A     -1.296946    24A     -1.288692
      25A     -1.246410    26A     -1.159646    27A     -1.151870
      28A     -1.066236    29A     -1.028572    30A     -0.917639
      31A     -0.901965    32A     -0.871421    33A     -0.759881
      34A     -0.745315    35A     -0.709924    36A     -0.683351
      37A     -0.675098    38A     -0.656212    39A     -0.652966
      40A     -0.650366    41A     -0.631079    42A     -0.623564
      43A     -0.618634    44A     -0.600146    45A     -0.564859
      46A     -0.553789    47A     -0.527473    48A     -0.503357
      49A     -0.499556    50A     -0.465331    51A     -0.443723
      52A     -0.436920    53A     -0.427432    54A     -0.413588
      55A     -0.404647    56A     -0.400357    57A     -0.394518
      58A     -0.379003    59A     -0.357039    60A     -0.351152
      61A     -0.341879    62A     -0.294624    63A     -0.286264
      64A     -0.278925    65A     -0.262896

  @DF-RHF Final Energy: -1028.46659709381743

   => Energetics <=

    Nuclear Repulsion Energy =           1325.2317402595210751
    One-Electron Energy =               -4061.0936424498991073
    Two-Electron Energy =                1707.3953050965603779
    Total Energy =                      -1028.4665970938174269
  Basis Set: (AUG-CC-PVTZ AUX)
    Blend: AUG-CC-PVTZ-RI
    Molecular point group: c1

    Geometry (in Angstrom), charge = -1, multiplicity = 1:

       Center              X                  Y                   Z               Mass
    ------------   -----------------  -----------------  -----------------  -----------------
         O           -2.952760278386     0.876467462168    -0.744689299718    15.994914619570
         O           -2.952817278386    -0.892159537832     0.744310700282    15.994914619570
         O           -0.553335278386    -3.306664537832     0.783225700282    15.994914619570
         O           -0.553254278386     3.290979462168    -0.783439299718    15.994914619570
         O           -1.539673278386    -2.683027537832    -1.096062299718    15.994914619570
         O           -1.539688278386     2.667278462168     1.095777700282    15.994914619570
         O            3.956461721614    -1.106444537832    -0.052159299718    15.994914619570
         O            3.956473721614     1.090674462168     0.051845700282    15.994914619570
         N           -0.825531278386    -2.480065537832    -0.104913299718    14.003074004430
         N           -0.825502278386     2.464347462168     0.104652700282    14.003074004430
         N            3.374987721614    -0.007881537832    -0.000154299718    14.003074004430
         C           -0.911420278386    -0.007859537832    -0.000141299718    12.000000000000
         C           -0.260174978386    -1.011328237832    -0.018818199718    12.000000000000
         C           -0.151296278386     1.163349462168     0.021661700282    12.000000000000
         C            1.910020721614    -0.007874537832    -0.000146299718    12.000000000000
         C            1.238301721614    -1.226051537832    -0.007194299718    12.000000000000
         C            1.238313721614     1.210310462168     0.006906700282    12.000000000000
         C           -2.469890278386    -0.007849537832    -0.000173299718    12.000000000000
         H            1.775843721614    -2.167547537832    -0.004988299718     1.007825032230
         H            1.775866721614     2.151800462168     0.004700700282     1.007825032230

  Basis Set: AUG-CC-PVTZ
    Blend: AUG-CC-PVTZ
  Basis Set: (AUG-CC-PVTZ AUX)
    Blend: AUG-CC-PVTZ-JKFIT
	 Reference Energy          =   -1028.4665970938174269 [Eh]
	 Singles Energy            =      -0.0000000000000000 [Eh]
	 Same-Spin Energy          =      -1.0569697141263643 [Eh]
	 Opposite-Spin Energy      =      -2.9561137624549487 [Eh]
	 Correlation Energy        =      -4.0130834765813130 [Eh]
	 Total Energy              =   -1032.4796805703988412 [Eh]

	 ================> DF-SCS-MP2 Energies <==================
	-----------------------------------------------------------
	 SCS Same-Spin Scale       =       0.3333333333333333 [-]
	 SCS Opposite-Spin Scale   =       1.2000000000000000 [-]
	 SCS Same-Spin Energy      =      -0.3523232380421214 [Eh]
	 SCS Opposite-Spin Energy  =      -3.5473365149459384 [Eh]
	 SCS Correlation Energy    =      -3.8996597529880597 [Eh]
	 SCS Total Energy          =   -1032.3662568468055269 [Eh]
	-----------------------------------------------------------

  Dipole Moment: [D]
     X:     8.8826      Y:     0.3495      Z:     0.0571     Total:     8.8897

*** Psi4 exiting successfully. Buy a developer a beer!
