                               Psi4 1.4a3.dev225

  ==> Input File <==

--------------------------------------------------------------------------
#psi4
#
memory 32 gb

molecule  {
-1 1
  O       -2.9714190     0.8843310    -0.7445430
  O       -2.9714760    -0.8842960     0.7444570
  O       -0.5719940    -3.2988010     0.7833720
  O       -0.5719130     3.2988430    -0.7832930
  O       -1.5583320    -2.6751640    -1.0959160
  O       -1.5583470     2.6751420     1.0959240
  O        3.9378030    -1.0985810    -0.0520130
  O        3.9378150     1.0985380     0.0519920
  N       -0.8441900    -2.4722020    -0.1047670
  N       -0.8485399     2.4589151     0.1190834
  N        3.3563290    -0.0000180    -0.0000080
  C       -0.9300790     0.0000040     0.0000050
  C       -0.1699680    -1.1712100    -0.0217940
  C       -0.1699550     1.1712130     0.0218080
  C        1.8913620    -0.0000110     0.0000000
  C        1.2196430    -1.2181880    -0.0070480
  C        1.2196550     1.2181740     0.0070530
  C       -2.4885490     0.0000140    -0.0000270
  H        1.7571850    -2.1596840    -0.0048420
  H        1.7572080     2.1596640     0.0048470
units angstrom
no_reorient  #important for SAPT in psi4, default
symmetry c1  #important for SAPT in psi4, default
}

set PROPERTIES_ORIGIN ["COM"]
properties('MP2/aug-cc-pvtz', properties = ['dipole'])
--------------------------------------------------------------------------

    Molecular point group: c1
  Charge       = -1
  Multiplicity = 1
  Basis Set: AUG-CC-PVTZ
    Blend: AUG-CC-PVTZ
  Basis Set: (AUG-CC-PVTZ AUX)
    Blend: AUG-CC-PVTZ-JKFIT

    Orbital Energies [Eh]
    ---------------------

    Doubly Occupied:

       1A    -20.542399     2A    -20.542349     3A    -20.523004
       4A    -20.516579     5A    -20.513771     6A    -20.506471
       7A    -20.370349     8A    -20.370302     9A    -15.794290
      10A    -15.763179    11A    -15.762403    12A    -11.249011
      13A    -11.241001    14A    -11.240689    15A    -11.229637
      16A    -11.223856    17A    -11.223741    18A    -11.211266
      19A     -1.525812    20A     -1.497153    21A     -1.495679
      22A     -1.323691    23A     -1.296874    24A     -1.291318
      25A     -1.247094    26A     -1.153691    27A     -1.150219
      28A     -1.050471    29A     -1.043972    30A     -0.913092
      31A     -0.897599    32A     -0.893838    33A     -0.761116
      34A     -0.741483    35A     -0.712554    36A     -0.676202
      37A     -0.673035    38A     -0.660622    39A     -0.651645
      40A     -0.647630    41A     -0.634768    42A     -0.629342
      43A     -0.627680    44A     -0.604193    45A     -0.561570
      46A     -0.557487    47A     -0.521747    48A     -0.505561
      49A     -0.489296    50A     -0.466092    51A     -0.441325
      52A     -0.434135    53A     -0.428402    54A     -0.415493
      55A     -0.409294    56A     -0.402877    57A     -0.394848
      58A     -0.391726    59A     -0.357686    60A     -0.353248
      61A     -0.317965    62A     -0.307631    63A     -0.282772
      64A     -0.280420    65A     -0.264608

  @DF-RHF Final Energy: -1028.52717165395484

   => Energetics <=

    Nuclear Repulsion Energy =           1323.6634587778551122
    One-Electron Energy =               -4057.9627540741744269
    Two-Electron Energy =                1705.7721236423647042
    Total Energy =                      -1028.5271716539548379
  Basis Set: (AUG-CC-PVTZ AUX)
    Blend: AUG-CC-PVTZ-RI
    Molecular point group: c1

    Geometry (in Angstrom), charge = -1, multiplicity = 1:

       Center              X                  Y                   Z               Mass
    ------------   -----------------  -----------------  -----------------  -----------------
         O           -2.957624134798     0.885058332878    -0.745324340151    15.994914619570
         O           -2.957681134798    -0.883568667122     0.743675659849    15.994914619570
         O           -0.558199134798    -3.298073667122     0.782590659849    15.994914619570
         O           -0.558118134798     3.299570332878    -0.784074340151    15.994914619570
         O           -1.544537134798    -2.674436667122    -1.096697340151    15.994914619570
         O           -1.544552134798     2.675869332878     1.095142659849    15.994914619570
         O            3.951597865202    -1.097853667122    -0.052794340151    15.994914619570
         O            3.951609865202     1.099265332878     0.051210659849    15.994914619570
         N           -0.830395134798    -2.471474667122    -0.105548340151    14.003074004430
         N           -0.834745034798     2.459642432878     0.118302059849    14.003074004430
         N            3.370123865202     0.000709332878    -0.000789340151    14.003074004430
         C           -0.916284134798     0.000731332878    -0.000776340151    12.000000000000
         C           -0.156173134798    -1.170482667122    -0.022575340151    12.000000000000
         C           -0.156160134798     1.171940332878     0.021026659849    12.000000000000
         C            1.905156865202     0.000716332878    -0.000781340151    12.000000000000
         C            1.233437865202    -1.217460667122    -0.007829340151    12.000000000000
         C            1.233449865202     1.218901332878     0.006271659849    12.000000000000
         C           -2.474754134798     0.000741332878    -0.000808340151    12.000000000000
         H            1.770979865202    -2.158956667122    -0.005623340151     1.007825032230
         H            1.771002865202     2.160391332878     0.004065659849     1.007825032230

  Basis Set: AUG-CC-PVTZ
    Blend: AUG-CC-PVTZ
  Basis Set: (AUG-CC-PVTZ AUX)
    Blend: AUG-CC-PVTZ-JKFIT
	 Reference Energy          =   -1028.5271716539548379 [Eh]
	 Singles Energy            =      -0.0000000000000000 [Eh]
	 Same-Spin Energy          =      -1.0570770559166731 [Eh]
	 Opposite-Spin Energy      =      -2.9534210444933704 [Eh]
	 Correlation Energy        =      -4.0104981004100431 [Eh]
	 Total Energy              =   -1032.5376697543649698 [Eh]

	 ================> DF-SCS-MP2 Energies <==================
	-----------------------------------------------------------
	 SCS Same-Spin Scale       =       0.3333333333333333 [-]
	 SCS Opposite-Spin Scale   =       1.2000000000000000 [-]
	 SCS Same-Spin Energy      =      -0.3523590186388910 [Eh]
	 SCS Opposite-Spin Energy  =      -3.5441052533920443 [Eh]
	 SCS Correlation Energy    =      -3.8964642720309355 [Eh]
	 SCS Total Energy          =   -1032.4236359259857636 [Eh]
	-----------------------------------------------------------

  Dipole Moment: [D]
     X:     8.8093      Y:    -0.0752      Z:     0.0710     Total:     8.8099

*** Psi4 exiting successfully. Buy a developer a beer!
