                               Psi4 1.4a3.dev225

  ==> Input File <==

--------------------------------------------------------------------------
#psi4
#
memory 32 gb

molecule  {
-1 1
  O       -2.9714190     0.8843310    -0.7445430
  O       -2.9714760    -0.8842960     0.7444570
  O       -0.5719940    -3.2988010     0.7833720
  O       -0.5719130     3.2988430    -0.7832930
  O       -1.5583320    -2.6751640    -1.0959160
  O       -1.5583470     2.6751420     1.0959240
  O        3.9378030    -1.0985810    -0.0520130
  O        3.9378150     1.0985380     0.0519920
  N       -0.8441900    -2.4722020    -0.1047670
  N       -0.8441610     2.4722110     0.1047990
  N        3.3563290    -0.0000180    -0.0000080
  C       -0.9300790     0.0000040     0.0000050
  C       -0.1699680    -1.1712100    -0.0217940
  C       -0.1427382     1.2131491     0.0225887
  C        1.8913620    -0.0000110     0.0000000
  C        1.2196430    -1.2181880    -0.0070480
  C        1.2196550     1.2181740     0.0070530
  C       -2.4885490     0.0000140    -0.0000270
  H        1.7571850    -2.1596840    -0.0048420
  H        1.7572080     2.1596640     0.0048470
units angstrom
no_reorient  #important for SAPT in psi4, default
symmetry c1  #important for SAPT in psi4, default
}

set PROPERTIES_ORIGIN ["COM"]
properties('MP2/aug-cc-pvtz', properties = ['dipole'])
--------------------------------------------------------------------------

    Molecular point group: c1
  Charge       = -1
  Multiplicity = 1
  Basis Set: AUG-CC-PVTZ
    Blend: AUG-CC-PVTZ
  Basis Set: (AUG-CC-PVTZ AUX)
    Blend: AUG-CC-PVTZ-JKFIT

    Orbital Energies [Eh]
    ---------------------

    Doubly Occupied:

       1A    -20.541069     2A    -20.540533     3A    -20.517630
       4A    -20.516301     5A    -20.514391     6A    -20.513454
       7A    -20.370565     8A    -20.370460     9A    -15.793188
      10A    -15.764333    11A    -15.762859    12A    -11.247293
      13A    -11.240805    14A    -11.239173    15A    -11.229800
      16A    -11.225182    17A    -11.218766    18A    -11.218121
      19A     -1.524443    20A     -1.500108    21A     -1.496828
      22A     -1.322320    23A     -1.298432    24A     -1.296592
      25A     -1.246925    26A     -1.153726    27A     -1.148534
      28A     -1.048026    29A     -1.046330    30A     -0.913698
      31A     -0.897521    32A     -0.892023    33A     -0.762047
      34A     -0.739808    35A     -0.713019    36A     -0.674474
      37A     -0.673053    38A     -0.662147    39A     -0.651488
      40A     -0.646550    41A     -0.635877    42A     -0.631258
      43A     -0.628807    44A     -0.605429    45A     -0.560814
      46A     -0.557191    47A     -0.518299    48A     -0.504877
      49A     -0.487796    50A     -0.465808    51A     -0.440199
      52A     -0.433493    53A     -0.427874    54A     -0.417924
      55A     -0.409361    56A     -0.404378    57A     -0.395365
      58A     -0.390713    59A     -0.358753    60A     -0.354206
      61A     -0.315617    62A     -0.310238    63A     -0.282926
      64A     -0.277721    65A     -0.264573

  @DF-RHF Final Energy: -1028.52605620951840

   => Energetics <=

    Nuclear Repulsion Energy =           1323.1745793713012063
    One-Electron Energy =               -4056.9782414589781183
    Two-Electron Energy =                1705.2776058781585107
    Total Energy =                      -1028.5260562095184014
  Basis Set: (AUG-CC-PVTZ AUX)
    Blend: AUG-CC-PVTZ-RI
    Molecular point group: c1

    Geometry (in Angstrom), charge = -1, multiplicity = 1:

       Center              X                  Y                   Z               Mass
    ------------   -----------------  -----------------  -----------------  -----------------
         O           -2.959139539567     0.882365132668    -0.744579539814    15.994914619570
         O           -2.959196539567    -0.886261867332     0.744420460186    15.994914619570
         O           -0.559714539567    -3.300766867332     0.783335460186    15.994914619570
         O           -0.559633539567     3.296877132668    -0.783329539814    15.994914619570
         O           -1.546052539567    -2.677129867332    -1.095952539814    15.994914619570
         O           -1.546067539567     2.673176132668     1.095887460186    15.994914619570
         O            3.950082460433    -1.100546867332    -0.052049539814    15.994914619570
         O            3.950094460433     1.096572132668     0.051955460186    15.994914619570
         N           -0.831910539567    -2.474167867332    -0.104803539814    14.003074004430
         N           -0.831881539567     2.470245132668     0.104762460186    14.003074004430
         N            3.368608460433    -0.001983867332    -0.000044539814    14.003074004430
         C           -0.917799539567    -0.001961867332    -0.000031539814    12.000000000000
         C           -0.157688539567    -1.173175867332    -0.021830539814    12.000000000000
         C           -0.130458739567     1.211183232668     0.022552160186    12.000000000000
         C            1.903641460433    -0.001976867332    -0.000036539814    12.000000000000
         C            1.231922460433    -1.220153867332    -0.007084539814    12.000000000000
         C            1.231934460433     1.216208132668     0.007016460186    12.000000000000
         C           -2.476269539567    -0.001951867332    -0.000063539814    12.000000000000
         H            1.769464460433    -2.161649867332    -0.004878539814     1.007825032230
         H            1.769487460433     2.157698132668     0.004810460186     1.007825032230

  Basis Set: AUG-CC-PVTZ
    Blend: AUG-CC-PVTZ
  Basis Set: (AUG-CC-PVTZ AUX)
    Blend: AUG-CC-PVTZ-JKFIT
	 Reference Energy          =   -1028.5260562095184014 [Eh]
	 Singles Energy            =      -0.0000000000000000 [Eh]
	 Same-Spin Energy          =      -1.0567217594769907 [Eh]
	 Opposite-Spin Energy      =      -2.9527832792866819 [Eh]
	 Correlation Energy        =      -4.0095050387636721 [Eh]
	 Total Energy              =   -1032.5355612482819652 [Eh]

	 ================> DF-SCS-MP2 Energies <==================
	-----------------------------------------------------------
	 SCS Same-Spin Scale       =       0.3333333333333333 [-]
	 SCS Opposite-Spin Scale   =       1.2000000000000000 [-]
	 SCS Same-Spin Energy      =      -0.3522405864923302 [Eh]
	 SCS Opposite-Spin Energy  =      -3.5433399351440182 [Eh]
	 SCS Correlation Energy    =      -3.8955805216363486 [Eh]
	 SCS Total Energy          =   -1032.4216367311546492 [Eh]
	-----------------------------------------------------------

  Dipole Moment: [D]
     X:     8.7853      Y:     0.0684      Z:     0.0151     Total:     8.7856

*** Psi4 exiting successfully. Buy a developer a beer!
