                               Psi4 1.4a3.dev225

  ==> Input File <==

--------------------------------------------------------------------------
#psi4
#
memory 32 gb

molecule  {
-1 1
  O       -2.9714190     0.8843310    -0.7445430
  O       -2.9714760    -0.8842960     0.7444570
  O       -0.5719940    -3.2988010     0.7833720
  O       -0.5719130     3.2988430    -0.7832930
  O       -1.5583320    -2.6751640    -1.0959160
  O       -1.5583470     2.6751420     1.0959240
  O        3.9378030    -1.0985810    -0.0520130
  O        3.9378150     1.0985380     0.0519920
  N       -0.8441900    -2.4722020    -0.1047670
  N       -0.8441610     2.4722110     0.1047990
  N        3.3563290    -0.0000180    -0.0000080
  C       -0.9300790     0.0000040     0.0000050
  C       -0.1699680    -1.1712100    -0.0217940
  C       -0.0780803     0.9939247     0.0104987
  C        1.8913620    -0.0000110     0.0000000
  C        1.2196430    -1.2181880    -0.0070480
  C        1.2196550     1.2181740     0.0070530
  C       -2.4885490     0.0000140    -0.0000270
  H        1.7571850    -2.1596840    -0.0048420
  H        1.7572080     2.1596640     0.0048470
units angstrom
no_reorient  #important for SAPT in psi4, default
symmetry c1  #important for SAPT in psi4, default
}

set PROPERTIES_ORIGIN ["COM"]
properties('MP2/aug-cc-pvtz', properties = ['dipole'])
--------------------------------------------------------------------------

    Molecular point group: c1
  Charge       = -1
  Multiplicity = 1
  Basis Set: AUG-CC-PVTZ
    Blend: AUG-CC-PVTZ
  Basis Set: (AUG-CC-PVTZ AUX)
    Blend: AUG-CC-PVTZ-JKFIT

    Orbital Energies [Eh]
    ---------------------

    Doubly Occupied:

       1A    -20.545842     2A    -20.545415     3A    -20.518632
       4A    -20.515724     5A    -20.502907     6A    -20.500429
       7A    -20.373611     8A    -20.372206     9A    -15.796130
      10A    -15.764414    11A    -15.740123    12A    -11.253776
      13A    -11.247081    14A    -11.242474    15A    -11.235438
      16A    -11.221968    17A    -11.219168    18A    -11.203461
      19A     -1.528667    20A     -1.499096    21A     -1.471309
      22A     -1.326586    23A     -1.298782    24A     -1.279082
      25A     -1.249502    26A     -1.171651    27A     -1.155737
      28A     -1.058926    29A     -1.036222    30A     -0.925922
      31A     -0.905258    32A     -0.851956    33A     -0.764058
      34A     -0.740978    35A     -0.710614    36A     -0.687537
      37A     -0.675855    38A     -0.655346    39A     -0.650444
      40A     -0.641739    41A     -0.631362    42A     -0.624115
      43A     -0.610757    44A     -0.602086    45A     -0.576250
      46A     -0.560906    47A     -0.528103    48A     -0.511309
      49A     -0.505876    50A     -0.470218    51A     -0.443923
      52A     -0.436890    53A     -0.431708    54A     -0.415154
      55A     -0.405517    56A     -0.394706    57A     -0.393649
      58A     -0.359183    59A     -0.357898    60A     -0.345112
      61A     -0.326047    62A     -0.316212    63A     -0.287988
      64A     -0.285172    65A     -0.265913

  @DF-RHF Final Energy: -1028.48988302132761

   => Energetics <=

    Nuclear Repulsion Energy =           1324.6598506699226618
    One-Electron Energy =               -4059.9592382472596910
    Two-Electron Energy =                1706.8095045560096423
    Total Energy =                      -1028.4898830213276142
  Basis Set: (AUG-CC-PVTZ AUX)
    Blend: AUG-CC-PVTZ-RI
    Molecular point group: c1

    Geometry (in Angstrom), charge = -1, multiplicity = 1:

       Center              X                  Y                   Z               Mass
    ------------   -----------------  -----------------  -----------------  -----------------
         O           -2.962170565830     0.892641911128    -0.744012786060    15.994914619570
         O           -2.962227565830    -0.875985088872     0.744987213940    15.994914619570
         O           -0.562745565830    -3.290490088872     0.783902213940    15.994914619570
         O           -0.562664565830     3.307153911128    -0.782762786060    15.994914619570
         O           -1.549083565830    -2.666853088872    -1.095385786060    15.994914619570
         O           -1.549098565830     2.683452911128     1.096454213940    15.994914619570
         O            3.947051434170    -1.090270088872    -0.051482786060    15.994914619570
         O            3.947063434170     1.106848911128     0.052522213940    15.994914619570
         N           -0.834941565830    -2.463891088872    -0.104236786060    14.003074004430
         N           -0.834912565830     2.480521911128     0.105329213940    14.003074004430
         N            3.365577434170     0.008292911128     0.000522213940    14.003074004430
         C           -0.920830565830     0.008314911128     0.000535213940    12.000000000000
         C           -0.160719565830    -1.162899088872    -0.021263786060    12.000000000000
         C           -0.068831865830     1.002235611128     0.011028913940    12.000000000000
         C            1.900610434170     0.008299911128     0.000530213940    12.000000000000
         C            1.228891434170    -1.209877088872    -0.006517786060    12.000000000000
         C            1.228903434170     1.226484911128     0.007583213940    12.000000000000
         C           -2.479300565830     0.008324911128     0.000503213940    12.000000000000
         H            1.766433434170    -2.151373088872    -0.004311786060     1.007825032230
         H            1.766456434170     2.167974911128     0.005377213940     1.007825032230

  Basis Set: AUG-CC-PVTZ
    Blend: AUG-CC-PVTZ
  Basis Set: (AUG-CC-PVTZ AUX)
    Blend: AUG-CC-PVTZ-JKFIT
	 Reference Energy          =   -1028.4898830213276142 [Eh]
	 Singles Energy            =      -0.0000000000000000 [Eh]
	 Same-Spin Energy          =      -1.0591673295987940 [Eh]
	 Opposite-Spin Energy      =      -2.9563062974096055 [Eh]
	 Correlation Energy        =      -4.0154736270083990 [Eh]
	 Total Energy              =   -1032.5053566483359191 [Eh]

	 ================> DF-SCS-MP2 Energies <==================
	-----------------------------------------------------------
	 SCS Same-Spin Scale       =       0.3333333333333333 [-]
	 SCS Opposite-Spin Scale   =       1.2000000000000000 [-]
	 SCS Same-Spin Energy      =      -0.3530557765329313 [Eh]
	 SCS Opposite-Spin Energy  =      -3.5475675568915266 [Eh]
	 SCS Correlation Energy    =      -3.9006233334244578 [Eh]
	 SCS Total Energy          =   -1032.3905063547520058 [Eh]
	-----------------------------------------------------------

  Dipole Moment: [D]
     X:     8.9190      Y:    -0.3886      Z:    -0.0244     Total:     8.9275

*** Psi4 exiting successfully. Buy a developer a beer!
