                               Psi4 1.4a3.dev225

  ==> Input File <==

--------------------------------------------------------------------------
#psi4
#
memory 32 gb

molecule  {
-1 1
  O       -2.9714190     0.8843310    -0.7445430
  O       -2.9714760    -0.8842960     0.7444570
  O       -0.5719940    -3.2988010     0.7833720
  O       -0.5719130     3.2988430    -0.7832930
  O       -1.5583320    -2.6751640    -1.0959160
  O       -1.5583470     2.6751420     1.0959240
  O        3.9378030    -1.0985810    -0.0520130
  O        3.9378150     1.0985380     0.0519920
  N       -0.8441900    -2.4722020    -0.1047670
  N       -0.8441610     2.4722110     0.1047990
  N        3.3563290    -0.0000180    -0.0000080
  C       -0.9300790     0.0000040     0.0000050
  C       -0.1699680    -1.1712100    -0.0217940
  C       -0.1699550     1.1712130     0.0218080
  C        1.8913620    -0.0000110     0.0000000
  C        1.2196430    -1.2181880    -0.0070480
  C        1.1996675     1.2174985     0.0072652
  C       -2.4885490     0.0000140    -0.0000270
  H        1.7571850    -2.1596840    -0.0048420
  H        1.7572080     2.1596640     0.0048470
units angstrom
no_reorient  #important for SAPT in psi4, default
symmetry c1  #important for SAPT in psi4, default
}

set PROPERTIES_ORIGIN ["COM"]
properties('MP2/aug-cc-pvtz', properties = ['dipole'])
--------------------------------------------------------------------------

    Molecular point group: c1
  Charge       = -1
  Multiplicity = 1
  Basis Set: AUG-CC-PVTZ
    Blend: AUG-CC-PVTZ
  Basis Set: (AUG-CC-PVTZ AUX)
    Blend: AUG-CC-PVTZ-JKFIT

    Orbital Energies [Eh]
    ---------------------

    Doubly Occupied:

       1A    -20.542148     2A    -20.541881     3A    -20.516511
       4A    -20.516244     5A    -20.513716     6A    -20.513429
       7A    -20.370150     8A    -20.369977     9A    -15.794332
      10A    -15.763005    11A    -15.762838    12A    -11.248723
      13A    -11.240100    14A    -11.239111    15A    -11.229388
      16A    -11.223662    17A    -11.222423    18A    -11.211658
      19A     -1.525440    20A     -1.497169    21A     -1.496743
      22A     -1.323330    23A     -1.296828    24A     -1.296532
      25A     -1.246747    26A     -1.153379    27A     -1.150415
      28A     -1.049000    29A     -1.044120    30A     -0.912485
      31A     -0.897027    32A     -0.891810    33A     -0.761512
      34A     -0.741462    35A     -0.712397    36A     -0.676061
      37A     -0.672800    38A     -0.659571    39A     -0.651903
      40A     -0.647280    41A     -0.635397    42A     -0.629706
      43A     -0.628373    44A     -0.603760    45A     -0.562815
      46A     -0.558505    47A     -0.518023    48A     -0.505544
      49A     -0.489781    50A     -0.465978    51A     -0.441089
      52A     -0.433805    53A     -0.428061    54A     -0.417048
      55A     -0.407763    56A     -0.403812    57A     -0.394345
      58A     -0.391502    59A     -0.358262    60A     -0.353802
      61A     -0.316928    62A     -0.309684    63A     -0.282571
      64A     -0.279632    65A     -0.264244

  @DF-RHF Final Energy: -1028.52843643716233

   => Energetics <=

    Nuclear Repulsion Energy =           1323.7487762612875031
    One-Electron Energy =               -4058.1469513379233831
    Two-Electron Energy =                1705.8697386394737805
    Total Energy =                      -1028.5284364371623269
  Basis Set: (AUG-CC-PVTZ AUX)
    Blend: AUG-CC-PVTZ-RI
    Molecular point group: c1

    Geometry (in Angstrom), charge = -1, multiplicity = 1:

       Center              X                  Y                   Z               Mass
    ------------   -----------------  -----------------  -----------------  -----------------
         O           -2.956926701336     0.884362674789    -0.744552889730    15.994914619570
         O           -2.956983701336    -0.884264325211     0.744447110270    15.994914619570
         O           -0.557501701336    -3.298769325211     0.783362110270    15.994914619570
         O           -0.557420701336     3.298874674789    -0.783302889730    15.994914619570
         O           -1.543839701336    -2.675132325211    -1.095925889730    15.994914619570
         O           -1.543854701336     2.675173674789     1.095914110270    15.994914619570
         O            3.952295298664    -1.098549325211    -0.052022889730    15.994914619570
         O            3.952307298664     1.098569674789     0.051982110270    15.994914619570
         N           -0.829697701336    -2.472170325211    -0.104776889730    14.003074004430
         N           -0.829668701336     2.472242674789     0.104789110270    14.003074004430
         N            3.370821298664     0.000013674789    -0.000017889730    14.003074004430
         C           -0.915586701336     0.000035674789    -0.000004889730    12.000000000000
         C           -0.155475701336    -1.171178325211    -0.021803889730    12.000000000000
         C           -0.155462701336     1.171244674789     0.021798110270    12.000000000000
         C            1.905854298664     0.000020674789    -0.000009889730    12.000000000000
         C            1.234135298664    -1.218156325211    -0.007057889730    12.000000000000
         C            1.214159798664     1.217530174789     0.007255310270    12.000000000000
         C           -2.474056701336     0.000045674789    -0.000036889730    12.000000000000
         H            1.771677298664    -2.159652325211    -0.004851889730     1.007825032230
         H            1.771700298664     2.159695674789     0.004837110270     1.007825032230

  Basis Set: AUG-CC-PVTZ
    Blend: AUG-CC-PVTZ
  Basis Set: (AUG-CC-PVTZ AUX)
    Blend: AUG-CC-PVTZ-JKFIT
	 Reference Energy          =   -1028.5284364371623269 [Eh]
	 Singles Energy            =      -0.0000000000000000 [Eh]
	 Same-Spin Energy          =      -1.0568498195443190 [Eh]
	 Opposite-Spin Energy      =      -2.9528700374240806 [Eh]
	 Correlation Energy        =      -4.0097198569683998 [Eh]
	 Total Energy              =   -1032.5381562941306584 [Eh]

	 ================> DF-SCS-MP2 Energies <==================
	-----------------------------------------------------------
	 SCS Same-Spin Scale       =       0.3333333333333333 [-]
	 SCS Opposite-Spin Scale   =       1.2000000000000000 [-]
	 SCS Same-Spin Energy      =      -0.3522832731814396 [Eh]
	 SCS Opposite-Spin Energy  =      -3.5434440449088966 [Eh]
	 SCS Correlation Energy    =      -3.8957273180903362 [Eh]
	 SCS Total Energy          =   -1032.4241637552527209 [Eh]
	-----------------------------------------------------------

  Dipole Moment: [D]
     X:     8.8095      Y:    -0.0026      Z:    -0.0015     Total:     8.8095

*** Psi4 exiting successfully. Buy a developer a beer!
