                               Psi4 1.4a3.dev225

  ==> Input File <==

--------------------------------------------------------------------------
#psi4
#
memory 32 gb

molecule  {
-1 1
  O       -2.9714190     0.8843310    -0.7445430
  O       -2.9714760    -0.8842960     0.7444570
  O       -0.5719940    -3.2988010     0.7833720
  O       -0.5719130     3.2988430    -0.7832930
  O       -1.5583320    -2.6751640    -1.0959160
  O       -1.5583470     2.6751420     1.0959240
  O        3.9378030    -1.0985810    -0.0520130
  O        3.9378150     1.0985380     0.0519920
  N       -0.8441900    -2.4722020    -0.1047670
  N       -0.8222663     2.5386904     0.0333769
  N        3.3563290    -0.0000180    -0.0000080
  C       -0.9300790     0.0000040     0.0000050
  C       -0.1699680    -1.1712100    -0.0217940
  C       -0.1699550     1.1712130     0.0218080
  C        1.8913620    -0.0000110     0.0000000
  C        1.2196430    -1.2181880    -0.0070480
  C        1.2196550     1.2181740     0.0070530
  C       -2.4885490     0.0000140    -0.0000270
  H        1.7571850    -2.1596840    -0.0048420
  H        1.7572080     2.1596640     0.0048470
units angstrom
no_reorient  #important for SAPT in psi4, default
symmetry c1  #important for SAPT in psi4, default
}

set PROPERTIES_ORIGIN ["COM"]
properties('MP2/aug-cc-pvtz', properties = ['dipole'])
--------------------------------------------------------------------------

    Molecular point group: c1
  Charge       = -1
  Multiplicity = 1
  Basis Set: AUG-CC-PVTZ
    Blend: AUG-CC-PVTZ
  Basis Set: (AUG-CC-PVTZ AUX)
    Blend: AUG-CC-PVTZ-JKFIT

    Orbital Energies [Eh]
    ---------------------

    Doubly Occupied:

       1A    -20.548961     2A    -20.541279     3A    -20.541199
       4A    -20.515007     5A    -20.512222     6A    -20.483169
       7A    -20.366877     8A    -20.366773     9A    -15.793028
      10A    -15.762692    11A    -15.761652    12A    -11.247132
      13A    -11.240402    14A    -11.239291    15A    -11.226273
      16A    -11.220963    17A    -11.220484    18A    -11.209014
      19A     -1.550235    20A     -1.524681    21A     -1.495553
      22A     -1.322610    23A     -1.295306    24A     -1.289045
      25A     -1.242991    26A     -1.150007    27A     -1.146498
      28A     -1.046497    29A     -1.034204    30A     -0.908822
      31A     -0.893969    32A     -0.883454    33A     -0.760295
      34A     -0.746446    35A     -0.717175    36A     -0.673914
      37A     -0.672295    38A     -0.665228    39A     -0.656231
      40A     -0.646749    41A     -0.641146    42A     -0.635194
      43A     -0.628554    44A     -0.612247    45A     -0.568625
      46A     -0.557022    47A     -0.521212    48A     -0.502661
      49A     -0.487769    50A     -0.463315    51A     -0.440414
      52A     -0.432580    53A     -0.425686    54A     -0.418258
      55A     -0.405269    56A     -0.399463    57A     -0.390925
      58A     -0.380959    59A     -0.358621    60A     -0.352748
      61A     -0.314309    62A     -0.305119    63A     -0.279114
      64A     -0.276893    65A     -0.260821

  @DF-RHF Final Energy: -1028.51847648533817

   => Energetics <=

    Nuclear Repulsion Energy =           1322.8480568440868410
    One-Electron Energy =               -4056.3779702328833991
    Two-Electron Energy =                1705.0114369034583888
    Total Energy =                      -1028.5184764853381694
  Basis Set: (AUG-CC-PVTZ AUX)
    Blend: AUG-CC-PVTZ-RI
    Molecular point group: c1

    Geometry (in Angstrom), charge = -1, multiplicity = 1:

       Center              X                  Y                   Z               Mass
    ------------   -----------------  -----------------  -----------------  -----------------
         O           -2.959061376553     0.880694393707    -0.740635947221    15.994914619570
         O           -2.959118376553    -0.887932606293     0.748364052779    15.994914619570
         O           -0.559636376553    -3.302437606293     0.787279052779    15.994914619570
         O           -0.559555376553     3.295206393707    -0.779385947221    15.994914619570
         O           -1.545974376553    -2.678800606293    -1.092008947221    15.994914619570
         O           -1.545989376553     2.671505393707     1.099831052779    15.994914619570
         O            3.950160623447    -1.102217606293    -0.048105947221    15.994914619570
         O            3.950172623447     1.094901393707     0.055899052779    15.994914619570
         N           -0.831832376553    -2.475838606293    -0.100859947221    14.003074004430
         N           -0.809908676553     2.535053793707     0.037283952779    14.003074004430
         N            3.368686623447    -0.003654606293     0.003899052779    14.003074004430
         C           -0.917721376553    -0.003632606293     0.003912052779    12.000000000000
         C           -0.157610376553    -1.174846606293    -0.017886947221    12.000000000000
         C           -0.157597376553     1.167576393707     0.025715052779    12.000000000000
         C            1.903719623447    -0.003647606293     0.003907052779    12.000000000000
         C            1.232000623447    -1.221824606293    -0.003140947221    12.000000000000
         C            1.232012623447     1.214537393707     0.010960052779    12.000000000000
         C           -2.476191376553    -0.003622606293     0.003880052779    12.000000000000
         H            1.769542623447    -2.163320606293    -0.000934947221     1.007825032230
         H            1.769565623447     2.156027393707     0.008754052779     1.007825032230

  Basis Set: AUG-CC-PVTZ
    Blend: AUG-CC-PVTZ
  Basis Set: (AUG-CC-PVTZ AUX)
    Blend: AUG-CC-PVTZ-JKFIT
	 Reference Energy          =   -1028.5184764853381694 [Eh]
	 Singles Energy            =      -0.0000000000000000 [Eh]
	 Same-Spin Energy          =      -1.0548152296476265 [Eh]
	 Opposite-Spin Energy      =      -2.9480080792118946 [Eh]
	 Correlation Energy        =      -4.0028233088595213 [Eh]
	 Total Energy              =   -1032.5212997941976028 [Eh]

	 ================> DF-SCS-MP2 Energies <==================
	-----------------------------------------------------------
	 SCS Same-Spin Scale       =       0.3333333333333333 [-]
	 SCS Opposite-Spin Scale   =       1.2000000000000000 [-]
	 SCS Same-Spin Energy      =      -0.3516050765492088 [Eh]
	 SCS Opposite-Spin Energy  =      -3.5376096950542735 [Eh]
	 SCS Correlation Energy    =      -3.8892147716034824 [Eh]
	 SCS Total Energy          =   -1032.4076912569416891 [Eh]
	-----------------------------------------------------------

  Dipole Moment: [D]
     X:     8.8978      Y:     0.3930      Z:    -0.4645     Total:     8.9186

*** Psi4 exiting successfully. Buy a developer a beer!
