                               Psi4 1.4a3.dev225

  ==> Input File <==

--------------------------------------------------------------------------
#psi4
#
memory 32 gb

molecule  {
-1 1
  O       -2.9714190     0.8843310    -0.7445430
  O       -2.9714760    -0.8842960     0.7444570
  O       -0.5719940    -3.2988010     0.7833720
  O       -0.5719130     3.2988430    -0.7832930
  O       -1.5583320    -2.6751640    -1.0959160
  O       -1.5583470     2.6751420     1.0959240
  O        3.9378030    -1.0985810    -0.0520130
  O        3.9378150     1.0985380     0.0519920
  N       -0.7042431    -2.5355382    -0.1066385
  N       -0.8441610     2.4722110     0.1047990
  N        3.3563290    -0.0000180    -0.0000080
  C       -0.9300790     0.0000040     0.0000050
  C       -0.1699680    -1.1712100    -0.0217940
  C       -0.1699550     1.1712130     0.0218080
  C        1.8913620    -0.0000110     0.0000000
  C        1.2196430    -1.2181880    -0.0070480
  C        1.2196550     1.2181740     0.0070530
  C       -2.4885490     0.0000140    -0.0000270
  H        1.7571850    -2.1596840    -0.0048420
  H        1.7572080     2.1596640     0.0048470
units angstrom
no_reorient  #important for SAPT in psi4, default
symmetry c1  #important for SAPT in psi4, default
}

set PROPERTIES_ORIGIN ["COM"]
properties('MP2/aug-cc-pvtz', properties = ['dipole'])
--------------------------------------------------------------------------

    Molecular point group: c1
  Charge       = -1
  Multiplicity = 1
  Basis Set: AUG-CC-PVTZ
    Blend: AUG-CC-PVTZ
  Basis Set: (AUG-CC-PVTZ AUX)
    Blend: AUG-CC-PVTZ-JKFIT

    Orbital Energies [Eh]
    ---------------------

    Doubly Occupied:

       1A    -20.545058     2A    -20.542328     3A    -20.542233
       4A    -20.516322     5A    -20.513519     6A    -20.489714
       7A    -20.366628     8A    -20.365750     9A    -15.793917
      10A    -15.763194    11A    -15.760245    12A    -11.247961
      13A    -11.242006    14A    -11.241507    15A    -11.226003
      16A    -11.223739    17A    -11.221466    18A    -11.213387
      19A     -1.525704    20A     -1.519807    21A     -1.496875
      22A     -1.323638    23A     -1.296578    24A     -1.274605
      25A     -1.242293    26A     -1.150041    27A     -1.149158
      28A     -1.048439    29A     -1.045718    30A     -0.910247
      31A     -0.903565    32A     -0.888803    33A     -0.760000
      34A     -0.745691    35A     -0.715532    36A     -0.675302
      37A     -0.672540    38A     -0.663223    39A     -0.655755
      40A     -0.647581    41A     -0.634962    42A     -0.631916
      43A     -0.628733    44A     -0.605611    45A     -0.564495
      46A     -0.557749    47A     -0.523094    48A     -0.502451
      49A     -0.488022    50A     -0.462782    51A     -0.441462
      52A     -0.433438    53A     -0.425512    54A     -0.417068
      55A     -0.406547    56A     -0.399910    57A     -0.391926
      58A     -0.388713    59A     -0.356759    60A     -0.349290
      61A     -0.315634    62A     -0.307993    63A     -0.279084
      64A     -0.277177    65A     -0.259853

  @DF-RHF Final Energy: -1028.50895130243885

   => Energetics <=

    Nuclear Repulsion Energy =           1322.6254183645642115
    One-Electron Energy =               -4055.9162351557870352
    Two-Electron Energy =                1704.7818654887839784
    Total Energy =                      -1028.5089513024388452
  Basis Set: (AUG-CC-PVTZ AUX)
    Blend: AUG-CC-PVTZ-RI
    Molecular point group: c1

    Geometry (in Angstrom), charge = -1, multiplicity = 1:

       Center              X                  Y                   Z               Mass
    ------------   -----------------  -----------------  -----------------  -----------------
         O           -2.965519172635     0.887795681722    -0.744440565789    15.994914619570
         O           -2.965576172635    -0.880831318278     0.744559434211    15.994914619570
         O           -0.566094172635    -3.295336318278     0.783474434211    15.994914619570
         O           -0.566013172635     3.302307681722    -0.783190565789    15.994914619570
         O           -1.552432172635    -2.671699318278    -1.095813565789    15.994914619570
         O           -1.552447172635     2.678606681722     1.096026434211    15.994914619570
         O            3.943702827365    -1.095116318278    -0.051910565789    15.994914619570
         O            3.943714827365     1.102002681722     0.052094434211    15.994914619570
         N           -0.698343272635    -2.532073518278    -0.106536065789    14.003074004430
         N           -0.838261172635     2.475675681722     0.104901434211    14.003074004430
         N            3.362228827365     0.003446681722     0.000094434211    14.003074004430
         C           -0.924179172635     0.003468681722     0.000107434211    12.000000000000
         C           -0.164068172635    -1.167745318278    -0.021691565789    12.000000000000
         C           -0.164055172635     1.174677681722     0.021910434211    12.000000000000
         C            1.897261827365     0.003453681722     0.000102434211    12.000000000000
         C            1.225542827365    -1.214723318278    -0.006945565789    12.000000000000
         C            1.225554827365     1.221638681722     0.007155434211    12.000000000000
         C           -2.482649172635     0.003478681722     0.000075434211    12.000000000000
         H            1.763084827365    -2.156219318278    -0.004739565789     1.007825032230
         H            1.763107827365     2.163128681722     0.004949434211     1.007825032230

  Basis Set: AUG-CC-PVTZ
    Blend: AUG-CC-PVTZ
  Basis Set: (AUG-CC-PVTZ AUX)
    Blend: AUG-CC-PVTZ-JKFIT
	 Reference Energy          =   -1028.5089513024388452 [Eh]
	 Singles Energy            =      -0.0000000000000000 [Eh]
	 Same-Spin Energy          =      -1.0571030292028629 [Eh]
	 Opposite-Spin Energy      =      -2.9539812013013913 [Eh]
	 Correlation Energy        =      -4.0110842305042542 [Eh]
	 Total Energy              =   -1032.5200355329432114 [Eh]

	 ================> DF-SCS-MP2 Energies <==================
	-----------------------------------------------------------
	 SCS Same-Spin Scale       =       0.3333333333333333 [-]
	 SCS Opposite-Spin Scale   =       1.2000000000000000 [-]
	 SCS Same-Spin Energy      =      -0.3523676764009543 [Eh]
	 SCS Opposite-Spin Energy  =      -3.5447774415616693 [Eh]
	 SCS Correlation Energy    =      -3.8971451179626238 [Eh]
	 SCS Total Energy          =   -1032.4060964204015818 [Eh]
	-----------------------------------------------------------

  Dipole Moment: [D]
     X:     9.0415      Y:    -0.1239      Z:     0.2702     Total:     9.0464

*** Psi4 exiting successfully. Buy a developer a beer!
