                               Psi4 1.4a3.dev225

  ==> Input File <==

--------------------------------------------------------------------------
#psi4
#
memory 32 gb

molecule  {
-1 1
  O       -2.9714190     0.8843310    -0.7445430
  O       -2.9714760    -0.8842960     0.7444570
  O       -0.5719940    -3.2988010     0.7833720
  O       -0.5719130     3.2988430    -0.7832930
  O       -1.5583320    -2.6751640    -1.0959160
  O       -1.5583470     2.6751420     1.0959240
  O        3.9378030    -1.0985810    -0.0520130
  O        3.9378150     1.0985380     0.0519920
  N       -0.8441900    -2.4722020    -0.1047670
  N       -0.9333701     2.4218679     0.1060499
  N        3.3563290    -0.0000180    -0.0000080
  C       -0.9300790     0.0000040     0.0000050
  C       -0.1699680    -1.1712100    -0.0217940
  C       -0.1699550     1.1712130     0.0218080
  C        1.8913620    -0.0000110     0.0000000
  C        1.2196430    -1.2181880    -0.0070480
  C        1.2196550     1.2181740     0.0070530
  C       -2.4885490     0.0000140    -0.0000270
  H        1.7571850    -2.1596840    -0.0048420
  H        1.7572080     2.1596640     0.0048470
units angstrom
no_reorient  #important for SAPT in psi4, default
symmetry c1  #important for SAPT in psi4, default
}

set PROPERTIES_ORIGIN ["COM"]
properties('MP2/aug-cc-pvtz', properties = ['dipole'])
--------------------------------------------------------------------------

    Molecular point group: c1
  Charge       = -1
  Multiplicity = 1
  Basis Set: AUG-CC-PVTZ
    Blend: AUG-CC-PVTZ
  Basis Set: (AUG-CC-PVTZ AUX)
    Blend: AUG-CC-PVTZ-JKFIT

    Orbital Energies [Eh]
    ---------------------

    Doubly Occupied:

       1A    -20.542269     2A    -20.542201     3A    -20.535426
       4A    -20.516527     5A    -20.513726     6A    -20.491610
       7A    -20.373433     8A    -20.372428     9A    -15.794286
      10A    -15.762953    11A    -15.760814    12A    -11.249281
      13A    -11.241278    14A    -11.240411    15A    -11.231724
      16A    -11.224679    17A    -11.223174    18A    -11.209525
      19A     -1.525679    20A     -1.504401    21A     -1.497086
      22A     -1.323532    23A     -1.296851    24A     -1.277833
      25A     -1.249801    26A     -1.156450    27A     -1.149324
      28A     -1.050389    29A     -1.040994    30A     -0.914343
      31A     -0.895177    32A     -0.892490    33A     -0.761907
      34A     -0.741654    35A     -0.713119    36A     -0.677059
      37A     -0.672680    38A     -0.661098    39A     -0.650496
      40A     -0.647489    41A     -0.634902    42A     -0.629150
      43A     -0.627333    44A     -0.605205    45A     -0.562123
      46A     -0.558275    47A     -0.520893    48A     -0.507367
      49A     -0.489710    50A     -0.468007    51A     -0.441197
      52A     -0.434521    53A     -0.429364    54A     -0.413236
      55A     -0.409942    56A     -0.400410    57A     -0.391555
      58A     -0.389374    59A     -0.357067    60A     -0.351498
      61A     -0.318915    62A     -0.306905    63A     -0.284827
      64A     -0.281943    65A     -0.267412

  @DF-RHF Final Energy: -1028.51891422236667

   => Energetics <=

    Nuclear Repulsion Energy =           1323.9817766669575576
    One-Electron Energy =               -4058.5879287847460546
    Two-Electron Energy =                1706.0872378954218220
    Total Energy =                      -1028.5189142223666749
  Basis Set: (AUG-CC-PVTZ AUX)
    Blend: AUG-CC-PVTZ-RI
    Molecular point group: c1

    Geometry (in Angstrom), charge = -1, multiplicity = 1:

       Center              X                  Y                   Z               Mass
    ------------   -----------------  -----------------  -----------------  -----------------
         O           -2.952983678007     0.887084921649    -0.744611370082    15.994914619570
         O           -2.953040678007    -0.881542078351     0.744388629918    15.994914619570
         O           -0.553558678007    -3.296047078351     0.783303629918    15.994914619570
         O           -0.553477678007     3.301596921649    -0.783361370082    15.994914619570
         O           -1.539896678007    -2.672410078351    -1.095984370082    15.994914619570
         O           -1.539911678007     2.677895921649     1.095855629918    15.994914619570
         O            3.956238321993    -1.095827078351    -0.052081370082    15.994914619570
         O            3.956250321993     1.101291921649     0.051923629918    15.994914619570
         N           -0.825754678007    -2.469448078351    -0.104835370082    14.003074004430
         N           -0.914934778007     2.424621821649     0.105981529918    14.003074004430
         N            3.374764321993     0.002735921649    -0.000076370082    14.003074004430
         C           -0.911643678007     0.002757921649    -0.000063370082    12.000000000000
         C           -0.151532678007    -1.168456078351    -0.021862370082    12.000000000000
         C           -0.151519678007     1.173966921649     0.021739629918    12.000000000000
         C            1.909797321993     0.002742921649    -0.000068370082    12.000000000000
         C            1.238078321993    -1.215434078351    -0.007116370082    12.000000000000
         C            1.238090321993     1.220927921649     0.006984629918    12.000000000000
         C           -2.470113678007     0.002767921649    -0.000095370082    12.000000000000
         H            1.775620321993    -2.156930078351    -0.004910370082     1.007825032230
         H            1.775643321993     2.162417921649     0.004778629918     1.007825032230

  Basis Set: AUG-CC-PVTZ
    Blend: AUG-CC-PVTZ
  Basis Set: (AUG-CC-PVTZ AUX)
    Blend: AUG-CC-PVTZ-JKFIT
	 Reference Energy          =   -1028.5189142223666749 [Eh]
	 Singles Energy            =      -0.0000000000000000 [Eh]
	 Same-Spin Energy          =      -1.0569374184974714 [Eh]
	 Opposite-Spin Energy      =      -2.9533930088668416 [Eh]
	 Correlation Energy        =      -4.0103304273643126 [Eh]
	 Total Energy              =   -1032.5292446497310266 [Eh]

	 ================> DF-SCS-MP2 Energies <==================
	-----------------------------------------------------------
	 SCS Same-Spin Scale       =       0.3333333333333333 [-]
	 SCS Opposite-Spin Scale   =       1.2000000000000000 [-]
	 SCS Same-Spin Energy      =      -0.3523124728324905 [Eh]
	 SCS Opposite-Spin Energy  =      -3.5440716106402097 [Eh]
	 SCS Correlation Energy    =      -3.8963840834727002 [Eh]
	 SCS Total Energy          =   -1032.4152983058393147 [Eh]
	-----------------------------------------------------------

  Dipole Moment: [D]
     X:     8.6557      Y:    -0.2092      Z:     0.1930     Total:     8.6604

*** Psi4 exiting successfully. Buy a developer a beer!
