                               Psi4 1.4a3.dev225

  ==> Input File <==

--------------------------------------------------------------------------
#psi4
#
memory 32 gb

molecule  {
-1 1
  O       -2.9714190     0.8843310    -0.7445430
  O       -2.9714760    -0.8842960     0.7444570
  O       -0.5719940    -3.2988010     0.7833720
  O       -0.5719130     3.2988430    -0.7832930
  O       -1.5583320    -2.6751640    -1.0959160
  O       -1.5583470     2.6751420     1.0959240
  O        3.9378030    -1.0985810    -0.0520130
  O        3.9378150     1.0985380     0.0519920
  N       -0.8213380    -2.4837686    -0.1051427
  N       -0.8441610     2.4722110     0.1047990
  N        3.3563290    -0.0000180    -0.0000080
  C       -0.9300790     0.0000040     0.0000050
  C       -0.1699680    -1.1712100    -0.0217940
  C       -0.1699550     1.1712130     0.0218080
  C        1.8913620    -0.0000110     0.0000000
  C        1.2196430    -1.2181880    -0.0070480
  C        1.2196550     1.2181740     0.0070530
  C       -2.4885490     0.0000140    -0.0000270
  H        1.7571850    -2.1596840    -0.0048420
  H        1.7572080     2.1596640     0.0048470
units angstrom
no_reorient  #important for SAPT in psi4, default
symmetry c1  #important for SAPT in psi4, default
}

set PROPERTIES_ORIGIN ["COM"]
properties('MP2/aug-cc-pvtz', properties = ['dipole'])
--------------------------------------------------------------------------

    Molecular point group: c1
  Charge       = -1
  Multiplicity = 1
  Basis Set: AUG-CC-PVTZ
    Blend: AUG-CC-PVTZ
  Basis Set: (AUG-CC-PVTZ AUX)
    Blend: AUG-CC-PVTZ-JKFIT

    Orbital Energies [Eh]
    ---------------------

    Doubly Occupied:

       1A    -20.542239     2A    -20.542189     3A    -20.518886
       4A    -20.516324     5A    -20.513520     6A    -20.511747
       7A    -20.369167     8A    -20.368976     9A    -15.794070
      10A    -15.762985    11A    -15.762982    12A    -11.248596
      13A    -11.240870    14A    -11.240794    15A    -11.228521
      16A    -11.223397    17A    -11.223011    18A    -11.211357
      19A     -1.525651    20A     -1.498202    21A     -1.496867
      22A     -1.323546    23A     -1.296938    24A     -1.296594
      25A     -1.245699    26A     -1.152352    27A     -1.149756
      28A     -1.049288    29A     -1.043137    30A     -0.911802
      31A     -0.897688    32A     -0.892075    33A     -0.760571
      34A     -0.741899    35A     -0.712781    36A     -0.675571
      37A     -0.672749    38A     -0.660744    39A     -0.652074
      40A     -0.647475    41A     -0.634988    42A     -0.629853
      43A     -0.628227    44A     -0.604515    45A     -0.562351
      46A     -0.557535    47A     -0.521844    48A     -0.504586
      49A     -0.489024    50A     -0.465114    51A     -0.441138
      52A     -0.433775    53A     -0.427541    54A     -0.417671
      55A     -0.407059    56A     -0.403773    57A     -0.394653
      58A     -0.391657    59A     -0.358245    60A     -0.353653
      61A     -0.317127    62A     -0.307606    63A     -0.281602
      64A     -0.279422    65A     -0.263229

  @DF-RHF Final Energy: -1028.52818266735471

   => Energetics <=

    Nuclear Repulsion Energy =           1323.3667602280709161
    One-Electron Energy =               -4057.3913224403022468
    Two-Electron Energy =                1705.4963795448763904
    Total Energy =                      -1028.5281826673547130
  Basis Set: (AUG-CC-PVTZ AUX)
    Blend: AUG-CC-PVTZ-RI
    Molecular point group: c1

    Geometry (in Angstrom), charge = -1, multiplicity = 1:

       Center              X                  Y                   Z               Mass
    ------------   -----------------  -----------------  -----------------  -----------------
         O           -2.959113743626     0.884963735176    -0.744522390367    15.994914619570
         O           -2.959170743626    -0.883663264824     0.744477609633    15.994914619570
         O           -0.559688743626    -3.298168264824     0.783392609633    15.994914619570
         O           -0.559607743626     3.299475735176    -0.783272390367    15.994914619570
         O           -1.546026743626    -2.674531264824    -1.095895390367    15.994914619570
         O           -1.546041743626     2.675774735176     1.095944609633    15.994914619570
         O            3.950108256374    -1.097948264824    -0.051992390367    15.994914619570
         O            3.950120256374     1.099170735176     0.052012609633    15.994914619570
         N           -0.809032743626    -2.483135864824    -0.105122090367    14.003074004430
         N           -0.831855743626     2.472843735176     0.104819609633    14.003074004430
         N            3.368634256374     0.000614735176     0.000012609633    14.003074004430
         C           -0.917773743626     0.000636735176     0.000025609633    12.000000000000
         C           -0.157662743626    -1.170577264824    -0.021773390367    12.000000000000
         C           -0.157649743626     1.171845735176     0.021828609633    12.000000000000
         C            1.903667256374     0.000621735176     0.000020609633    12.000000000000
         C            1.231948256374    -1.217555264824    -0.007027390367    12.000000000000
         C            1.231960256374     1.218806735176     0.007073609633    12.000000000000
         C           -2.476243743626     0.000646735176    -0.000006390367    12.000000000000
         H            1.769490256374    -2.159051264824    -0.004821390367     1.007825032230
         H            1.769513256374     2.160296735176     0.004867609633     1.007825032230

  Basis Set: AUG-CC-PVTZ
    Blend: AUG-CC-PVTZ
  Basis Set: (AUG-CC-PVTZ AUX)
    Blend: AUG-CC-PVTZ-JKFIT
	 Reference Energy          =   -1028.5281826673547130 [Eh]
	 Singles Energy            =      -0.0000000000000000 [Eh]
	 Same-Spin Energy          =      -1.0569280717762664 [Eh]
	 Opposite-Spin Energy      =      -2.9530305027298751 [Eh]
	 Correlation Energy        =      -4.0099585745061415 [Eh]
	 Total Energy              =   -1032.5381412418607852 [Eh]

	 ================> DF-SCS-MP2 Energies <==================
	-----------------------------------------------------------
	 SCS Same-Spin Scale       =       0.3333333333333333 [-]
	 SCS Opposite-Spin Scale   =       1.2000000000000000 [-]
	 SCS Same-Spin Energy      =      -0.3523093572587555 [Eh]
	 SCS Opposite-Spin Energy  =      -3.5436366032758500 [Eh]
	 SCS Correlation Energy    =      -3.8959459605346054 [Eh]
	 SCS Total Energy          =   -1032.4241286278893313 [Eh]
	-----------------------------------------------------------

  Dipole Moment: [D]
     X:     8.8531      Y:    -0.0348      Z:     0.0437     Total:     8.8533

*** Psi4 exiting successfully. Buy a developer a beer!
