                               Psi4 1.4a3.dev225

  ==> Input File <==

--------------------------------------------------------------------------
#psi4
#
memory 32 gb

molecule  {
-1 1
  O       -2.9714190     0.8843310    -0.7445430
  O       -2.9714760    -0.8842960     0.7444570
  O       -0.5719940    -3.2988010     0.7833720
  O       -0.5719130     3.2988430    -0.7832930
  O       -1.5583320    -2.6751640    -1.0959160
  O       -1.5583470     2.6751420     1.0959240
  O        3.9378030    -1.0985810    -0.0520130
  O        3.9378150     1.0985380     0.0519920
  N       -0.8441900    -2.4722020    -0.1047670
  N       -0.9018322     2.4885979     0.1848334
  N        3.3563290    -0.0000180    -0.0000080
  C       -0.9300790     0.0000040     0.0000050
  C       -0.1699680    -1.1712100    -0.0217940
  C       -0.1699550     1.1712130     0.0218080
  C        1.8913620    -0.0000110     0.0000000
  C        1.2196430    -1.2181880    -0.0070480
  C        1.2196550     1.2181740     0.0070530
  C       -2.4885490     0.0000140    -0.0000270
  H        1.7571850    -2.1596840    -0.0048420
  H        1.7572080     2.1596640     0.0048470
units angstrom
no_reorient  #important for SAPT in psi4, default
symmetry c1  #important for SAPT in psi4, default
}

set PROPERTIES_ORIGIN ["COM"]
properties('MP2/aug-cc-pvtz', properties = ['dipole'])
--------------------------------------------------------------------------

    Molecular point group: c1
  Charge       = -1
  Multiplicity = 1
  Basis Set: AUG-CC-PVTZ
    Blend: AUG-CC-PVTZ
  Basis Set: (AUG-CC-PVTZ AUX)
    Blend: AUG-CC-PVTZ-JKFIT

    Orbital Energies [Eh]
    ---------------------

    Doubly Occupied:

       1A    -20.550366     2A    -20.540772     3A    -20.540722
       4A    -20.515466     5A    -20.512681     6A    -20.481499
       7A    -20.371668     8A    -20.371000     9A    -15.792629
      10A    -15.761946    11A    -15.761493    12A    -11.247077
      13A    -11.239560    14A    -11.239198    15A    -11.230069
      16A    -11.220708    17A    -11.220615    18A    -11.207890
      19A     -1.552482    20A     -1.524172    21A     -1.496025
      22A     -1.322058    23A     -1.295800    24A     -1.287369
      25A     -1.248152    26A     -1.154769    27A     -1.146026
      28A     -1.046912    29A     -1.032634    30A     -0.909855
      31A     -0.892130    32A     -0.883581    33A     -0.760526
      34A     -0.745925    35A     -0.716081    36A     -0.675545
      37A     -0.672280    38A     -0.665273    39A     -0.654722
      40A     -0.646079    41A     -0.642181    42A     -0.634806
      43A     -0.629139    44A     -0.613967    45A     -0.568897
      46A     -0.557594    47A     -0.520367    48A     -0.505705
      49A     -0.488565    50A     -0.466793    51A     -0.440297
      52A     -0.433168    53A     -0.427724    54A     -0.413283
      55A     -0.408720    56A     -0.400634    57A     -0.390185
      58A     -0.379790    59A     -0.359176    60A     -0.354755
      61A     -0.317302    62A     -0.303472    63A     -0.283320
      64A     -0.280046    65A     -0.266243

  @DF-RHF Final Energy: -1028.52057169657041

   => Energetics <=

    Nuclear Repulsion Energy =           1323.3351502953266845
    One-Electron Energy =               -4057.2716794719817699
    Two-Electron Energy =                1705.4159574800848986
    Total Energy =                      -1028.5205716965704141
  Basis Set: (AUG-CC-PVTZ AUX)
    Blend: AUG-CC-PVTZ-RI
    Molecular point group: c1

    Geometry (in Angstrom), charge = -1, multiplicity = 1:

       Center              X                  Y                   Z               Mass
    ------------   -----------------  -----------------  -----------------  -----------------
         O           -2.954708892167     0.883434598042    -0.748921054930    15.994914619570
         O           -2.954765892167    -0.885192401958     0.740078945070    15.994914619570
         O           -0.555283892167    -3.299697401958     0.778993945070    15.994914619570
         O           -0.555202892167     3.297946598042    -0.787671054930    15.994914619570
         O           -1.541621892167    -2.676060401958    -1.100294054930    15.994914619570
         O           -1.541636892167     2.674245598042     1.091545945070    15.994914619570
         O            3.954513107833    -1.099477401958    -0.056391054930    15.994914619570
         O            3.954525107833     1.097641598042     0.047613945070    15.994914619570
         N           -0.827479892167    -2.473098401958    -0.109145054930    14.003074004430
         N           -0.885122092167     2.487701498042     0.180455345070    14.003074004430
         N            3.373039107833    -0.000914401958    -0.004386054930    14.003074004430
         C           -0.913368892167    -0.000892401958    -0.004373054930    12.000000000000
         C           -0.153257892167    -1.172106401958    -0.026172054930    12.000000000000
         C           -0.153244892167     1.170316598042     0.017429945070    12.000000000000
         C            1.908072107833    -0.000907401958    -0.004378054930    12.000000000000
         C            1.236353107833    -1.219084401958    -0.011426054930    12.000000000000
         C            1.236365107833     1.217277598042     0.002674945070    12.000000000000
         C           -2.471838892167    -0.000882401958    -0.004405054930    12.000000000000
         H            1.773895107833    -2.160580401958    -0.009220054930     1.007825032230
         H            1.773918107833     2.158767598042     0.000468945070     1.007825032230

  Basis Set: AUG-CC-PVTZ
    Blend: AUG-CC-PVTZ
  Basis Set: (AUG-CC-PVTZ AUX)
    Blend: AUG-CC-PVTZ-JKFIT
	 Reference Energy          =   -1028.5205716965704141 [Eh]
	 Singles Energy            =      -0.0000000000000000 [Eh]
	 Same-Spin Energy          =      -1.0541201876389856 [Eh]
	 Opposite-Spin Energy      =      -2.9467238977860628 [Eh]
	 Correlation Energy        =      -4.0008440854250482 [Eh]
	 Total Energy              =   -1032.5214157819955290 [Eh]

	 ================> DF-SCS-MP2 Energies <==================
	-----------------------------------------------------------
	 SCS Same-Spin Scale       =       0.3333333333333333 [-]
	 SCS Opposite-Spin Scale   =       1.2000000000000000 [-]
	 SCS Same-Spin Energy      =      -0.3513733958796619 [Eh]
	 SCS Opposite-Spin Energy  =      -3.5360686773432755 [Eh]
	 SCS Correlation Energy    =      -3.8874420732229371 [Eh]
	 SCS Total Energy          =   -1032.4080137697933424 [Eh]
	-----------------------------------------------------------

  Dipole Moment: [D]
     X:     8.5055      Y:     0.0371      Z:     0.5125     Total:     8.5210

*** Psi4 exiting successfully. Buy a developer a beer!
