                               Psi4 1.4a3.dev225

  ==> Input File <==

--------------------------------------------------------------------------
#psi4
#
memory 32 gb

molecule  {
-1 1
  O       -2.9714190     0.8843310    -0.7445430
  O       -2.9714760    -0.8842960     0.7444570
  O       -0.5719940    -3.2988010     0.7833720
  O       -0.5719130     3.2988430    -0.7832930
  O       -1.5583320    -2.6751640    -1.0959160
  O       -1.5583470     2.6751420     1.0959240
  O        3.9378030    -1.0985810    -0.0520130
  O        3.9378150     1.0985380     0.0519920
  N       -0.8441900    -2.4722020    -0.1047670
  N       -0.8441610     2.4722110     0.1047990
  N        3.3563290    -0.0000180    -0.0000080
  C       -0.9300790     0.0000040     0.0000050
  C       -0.1699680    -1.1712100    -0.0217940
  C       -0.1699550     1.1712130     0.0218080
  C        1.9913620    -0.0000115    -0.0000005
  C        1.2196430    -1.2181880    -0.0070480
  C        1.2196550     1.2181740     0.0070530
  C       -2.4885490     0.0000140    -0.0000270
  H        1.7571850    -2.1596840    -0.0048420
  H        1.7572080     2.1596640     0.0048470
units angstrom
no_reorient  #important for SAPT in psi4, default
symmetry c1  #important for SAPT in psi4, default
}

set PROPERTIES_ORIGIN ["COM"]
properties('MP2/aug-cc-pvtz', properties = ['dipole'])
--------------------------------------------------------------------------

    Molecular point group: c1
  Charge       = -1
  Multiplicity = 1
  Basis Set: AUG-CC-PVTZ
    Blend: AUG-CC-PVTZ
  Basis Set: (AUG-CC-PVTZ AUX)
    Blend: AUG-CC-PVTZ-JKFIT

    Orbital Energies [Eh]
    ---------------------

    Doubly Occupied:

       1A    -20.534900     2A    -20.534853     3A    -20.517456
       4A    -20.517456     5A    -20.514728     6A    -20.514728
       7A    -20.373445     8A    -20.373412     9A    -15.790533
      10A    -15.764565    11A    -15.764564    12A    -11.246492
      13A    -11.241577    14A    -11.241550    15A    -11.232881
      16A    -11.232834    17A    -11.232779    18A    -11.219193
      19A     -1.530241    20A     -1.498269    21A     -1.497988
      22A     -1.321382    23A     -1.297902    24A     -1.297767
      25A     -1.249942    26A     -1.156546    27A     -1.144702
      28A     -1.066452    29A     -1.042195    30A     -0.924081
      31A     -0.898857    32A     -0.885220    33A     -0.758880
      34A     -0.742321    35A     -0.712197    36A     -0.682935
      37A     -0.673755    38A     -0.658450    39A     -0.654645
      40A     -0.652206    41A     -0.634211    42A     -0.630796
      43A     -0.627501    44A     -0.604683    45A     -0.561779
      46A     -0.561285    47A     -0.508581    48A     -0.502177
      49A     -0.485942    50A     -0.466222    51A     -0.444688
      52A     -0.431447    53A     -0.425374    54A     -0.418087
      55A     -0.410504    56A     -0.403620    57A     -0.395223
      58A     -0.389617    59A     -0.359256    60A     -0.354785
      61A     -0.316459    62A     -0.307968    63A     -0.285770
      64A     -0.281377    65A     -0.266968

  @DF-RHF Final Energy: -1028.51785688602672

   => Energetics <=

    Nuclear Repulsion Energy =           1322.7939864659492741
    One-Electron Energy =               -4056.0852835878267797
    Two-Electron Energy =                1704.7734402358507850
    Total Energy =                      -1028.5178568860267205
  Basis Set: (AUG-CC-PVTZ AUX)
    Blend: AUG-CC-PVTZ-RI
    Molecular point group: c1

    Geometry (in Angstrom), charge = -1, multiplicity = 1:

       Center              X                  Y                   Z               Mass
    ------------   -----------------  -----------------  -----------------  -----------------
         O           -2.962551462792     0.884331032210    -0.744542918802    15.994914619570
         O           -2.962608462792    -0.884295967790     0.744457081198    15.994914619570
         O           -0.563126462792    -3.298800967790     0.783372081198    15.994914619570
         O           -0.563045462792     3.298843032210    -0.783292918802    15.994914619570
         O           -1.549464462792    -2.675163967790    -1.095915918802    15.994914619570
         O           -1.549479462792     2.675142032210     1.095924081198    15.994914619570
         O            3.946670537208    -1.098580967790    -0.052012918802    15.994914619570
         O            3.946682537208     1.098538032210     0.051992081198    15.994914619570
         N           -0.835322462792    -2.472201967790    -0.104766918802    14.003074004430
         N           -0.835293462792     2.472211032210     0.104799081198    14.003074004430
         N            3.365196537208    -0.000017967790    -0.000007918802    14.003074004430
         C           -0.921211462792     0.000004032210     0.000005081198    12.000000000000
         C           -0.161100462792    -1.171209967790    -0.021793918802    12.000000000000
         C           -0.161087462792     1.171213032210     0.021808081198    12.000000000000
         C            2.000229537208    -0.000011467790    -0.000000418802    12.000000000000
         C            1.228510537208    -1.218187967790    -0.007047918802    12.000000000000
         C            1.228522537208     1.218174032210     0.007053081198    12.000000000000
         C           -2.479681462792     0.000014032210    -0.000026918802    12.000000000000
         H            1.766052537208    -2.159683967790    -0.004841918802     1.007825032230
         H            1.766075537208     2.159664032210     0.004847081198     1.007825032230

  Basis Set: AUG-CC-PVTZ
    Blend: AUG-CC-PVTZ
  Basis Set: (AUG-CC-PVTZ AUX)
    Blend: AUG-CC-PVTZ-JKFIT
	 Reference Energy          =   -1028.5178568860267205 [Eh]
	 Singles Energy            =      -0.0000000000000000 [Eh]
	 Same-Spin Energy          =      -1.0567859630620440 [Eh]
	 Opposite-Spin Energy      =      -2.9527024942175757 [Eh]
	 Correlation Energy        =      -4.0094884572796197 [Eh]
	 Total Energy              =   -1032.5273453433062514 [Eh]

	 ================> DF-SCS-MP2 Energies <==================
	-----------------------------------------------------------
	 SCS Same-Spin Scale       =       0.3333333333333333 [-]
	 SCS Opposite-Spin Scale   =       1.2000000000000000 [-]
	 SCS Same-Spin Energy      =      -0.3522619876873480 [Eh]
	 SCS Opposite-Spin Energy  =      -3.5432429930610909 [Eh]
	 SCS Correlation Energy    =      -3.8955049807484388 [Eh]
	 SCS Total Energy          =   -1032.4133618667751762 [Eh]
	-----------------------------------------------------------

  Dipole Moment: [D]
     X:     8.5044      Y:    -0.0001      Z:     0.0001     Total:     8.5044

*** Psi4 exiting successfully. Buy a developer a beer!
