                               Psi4 1.4a3.dev225

  ==> Input File <==

--------------------------------------------------------------------------
#psi4
#
memory 32 gb

molecule  {
-1 1
  O       -2.9714190     0.8843310    -0.7445430
  O       -2.9714760    -0.8842960     0.7444570
  O       -0.5719940    -3.2988010     0.7833720
  O       -0.5719130     3.2988430    -0.7832930
  O       -1.5583320    -2.6751640    -1.0959160
  O       -1.5583470     2.6751420     1.0959240
  O        3.9378030    -1.0985810    -0.0520130
  O        3.9378150     1.0985380     0.0519920
  N       -0.8441900    -2.4722020    -0.1047670
  N       -0.8441610     2.4722110     0.1047990
  N        3.3563290    -0.0000180    -0.0000080
  C       -0.9300790     0.0000040     0.0000050
  C       -0.1699680    -1.1712100    -0.0217940
  C       -0.1699550     1.1712130     0.0218080
  C        1.8913620    -0.0000110     0.0000000
  C        1.2196430    -1.2181880    -0.0070480
  C        1.2196550     1.2181740     0.0070530
  C       -2.5270972    -0.0705733     0.0593992
  H        1.7571850    -2.1596840    -0.0048420
  H        1.7572080     2.1596640     0.0048470
units angstrom
no_reorient  #important for SAPT in psi4, default
symmetry c1  #important for SAPT in psi4, default
}

set PROPERTIES_ORIGIN ["COM"]
properties('MP2/aug-cc-pvtz', properties = ['dipole'])
--------------------------------------------------------------------------

    Molecular point group: c1
  Charge       = -1
  Multiplicity = 1
  Basis Set: AUG-CC-PVTZ
    Blend: AUG-CC-PVTZ
  Basis Set: (AUG-CC-PVTZ AUX)
    Blend: AUG-CC-PVTZ-JKFIT

    Orbital Energies [Eh]
    ---------------------

    Doubly Occupied:

       1A    -20.540007     2A    -20.539882     3A    -20.518943
       4A    -20.516069     5A    -20.511437     6A    -20.508888
       7A    -20.395739     8A    -20.351605     9A    -15.791911
      10A    -15.764518    11A    -15.758321    12A    -11.245438
      13A    -11.237101    14A    -11.236684    15A    -11.229862
      16A    -11.221134    17A    -11.220358    18A    -11.204857
      19A     -1.523453    20A     -1.499607    21A     -1.491876
      22A     -1.321372    23A     -1.301223    24A     -1.297050
      25A     -1.291579    26A     -1.149396    27A     -1.130863
      28A     -1.046164    29A     -1.039632    30A     -0.909318
      31A     -0.891957    32A     -0.890021    33A     -0.757387
      34A     -0.739654    35A     -0.710696    36A     -0.671642
      37A     -0.666439    38A     -0.658396    39A     -0.648834
      40A     -0.645328    41A     -0.634109    42A     -0.629804
      43A     -0.624590    44A     -0.603929    45A     -0.562207
      46A     -0.559122    47A     -0.520838    48A     -0.518615
      49A     -0.489103    50A     -0.470956    51A     -0.448895
      52A     -0.439032    53A     -0.429347    54A     -0.416419
      55A     -0.407655    56A     -0.402383    57A     -0.393483
      58A     -0.389728    59A     -0.359181    60A     -0.352263
      61A     -0.316708    62A     -0.304827    63A     -0.290653
      64A     -0.267028    65A     -0.258934

  @DF-RHF Final Energy: -1028.51472985193527

   => Energetics <=

    Nuclear Repulsion Energy =           1323.1898107551248813
    One-Electron Energy =               -4057.0801864438353732
    Two-Electron Energy =                1705.3756458367749929
    Total Energy =                      -1028.5147298519352717
  Basis Set: (AUG-CC-PVTZ AUX)
    Blend: AUG-CC-PVTZ-RI
    Molecular point group: c1

    Geometry (in Angstrom), charge = -1, multiplicity = 1:

       Center              X                  Y                   Z               Mass
    ------------   -----------------  -----------------  -----------------  -----------------
         O           -2.956056614785     0.887639992826    -0.747328717420    15.994914619570
         O           -2.956113614785    -0.880987007174     0.741671282580    15.994914619570
         O           -0.556631614785    -3.295492007174     0.780586282580    15.994914619570
         O           -0.556550614785     3.302151992826    -0.786078717420    15.994914619570
         O           -1.542969614785    -2.671855007174    -1.098701717420    15.994914619570
         O           -1.542984614785     2.678450992826     1.093138282580    15.994914619570
         O            3.953165385215    -1.095272007174    -0.054798717420    15.994914619570
         O            3.953177385215     1.101846992826     0.049206282580    15.994914619570
         N           -0.828827614785    -2.468893007174    -0.107552717420    14.003074004430
         N           -0.828798614785     2.475519992826     0.102013282580    14.003074004430
         N            3.371691385215     0.003290992826    -0.002793717420    14.003074004430
         C           -0.914716614785     0.003312992826    -0.002780717420    12.000000000000
         C           -0.154605614785    -1.167901007174    -0.024579717420    12.000000000000
         C           -0.154592614785     1.174521992826     0.019022282580    12.000000000000
         C            1.906724385215     0.003297992826    -0.002785717420    12.000000000000
         C            1.235005385215    -1.214879007174    -0.009833717420    12.000000000000
         C            1.235017385215     1.221482992826     0.004267282580    12.000000000000
         C           -2.511734814785    -0.067264307174     0.056613482580    12.000000000000
         H            1.772547385215    -2.156375007174    -0.007627717420     1.007825032230
         H            1.772570385215     2.162972992826     0.002061282580     1.007825032230

  Basis Set: AUG-CC-PVTZ
    Blend: AUG-CC-PVTZ
  Basis Set: (AUG-CC-PVTZ AUX)
    Blend: AUG-CC-PVTZ-JKFIT
	 Reference Energy          =   -1028.5147298519352717 [Eh]
	 Singles Energy            =      -0.0000000000000000 [Eh]
	 Same-Spin Energy          =      -1.0559267185601091 [Eh]
	 Opposite-Spin Energy      =      -2.9506188535089635 [Eh]
	 Correlation Energy        =      -4.0065455720690721 [Eh]
	 Total Energy              =   -1032.5212754240044433 [Eh]

	 ================> DF-SCS-MP2 Energies <==================
	-----------------------------------------------------------
	 SCS Same-Spin Scale       =       0.3333333333333333 [-]
	 SCS Opposite-Spin Scale   =       1.2000000000000000 [-]
	 SCS Same-Spin Energy      =      -0.3519755728533697 [Eh]
	 SCS Opposite-Spin Energy  =      -3.5407426242107563 [Eh]
	 SCS Correlation Energy    =      -3.8927181970641258 [Eh]
	 SCS Total Energy          =   -1032.4074480489994130 [Eh]
	-----------------------------------------------------------

  Dipole Moment: [D]
     X:     8.4310      Y:    -0.6189      Z:     0.5822     Total:     8.4737

*** Psi4 exiting successfully. Buy a developer a beer!
