                               Psi4 1.4a3.dev225

  ==> Input File <==

--------------------------------------------------------------------------
#psi4
#
memory 32 gb

molecule  {
-1 1
  O       -2.9714190     0.8843310    -0.7445430
  O       -2.9714760    -0.8842960     0.7444570
  O       -0.5719940    -3.2988010     0.7833720
  O       -0.5719130     3.2988430    -0.7832930
  O       -1.5583320    -2.6751640    -1.0959160
  O       -1.5583470     2.6751420     1.0959240
  O        3.9378030    -1.0985810    -0.0520130
  O        3.9378150     1.0985380     0.0519920
  N       -0.8441900    -2.4722020    -0.1047670
  N       -0.8441610     2.4722110     0.1047990
  N        3.3563290    -0.0000180    -0.0000080
  C       -1.0099333     0.0558416     0.0023795
  C       -0.1699680    -1.1712100    -0.0217940
  C       -0.1699550     1.1712130     0.0218080
  C        1.8913620    -0.0000110     0.0000000
  C        1.2196430    -1.2181880    -0.0070480
  C        1.2196550     1.2181740     0.0070530
  C       -2.4885490     0.0000140    -0.0000270
  H        1.7571850    -2.1596840    -0.0048420
  H        1.7572080     2.1596640     0.0048470
units angstrom
no_reorient  #important for SAPT in psi4, default
symmetry c1  #important for SAPT in psi4, default
}

set PROPERTIES_ORIGIN ["COM"]
properties('MP2/aug-cc-pvtz', properties = ['dipole'])
--------------------------------------------------------------------------

    Molecular point group: c1
  Charge       = -1
  Multiplicity = 1
  Basis Set: AUG-CC-PVTZ
    Blend: AUG-CC-PVTZ
  Basis Set: (AUG-CC-PVTZ AUX)
    Blend: AUG-CC-PVTZ-JKFIT

    Orbital Energies [Eh]
    ---------------------

    Doubly Occupied:

       1A    -20.542489     2A    -20.541763     3A    -20.515610
       4A    -20.515270     5A    -20.512743     6A    -20.512739
       7A    -20.371109     8A    -20.370231     9A    -15.794012
      10A    -15.762339    11A    -15.760737    12A    -11.249341
      13A    -11.249165    14A    -11.242068    15A    -11.226518
      16A    -11.225763    17A    -11.224293    18A    -11.221850
      19A     -1.525593    20A     -1.496466    21A     -1.495988
      22A     -1.323485    23A     -1.296117    24A     -1.295809
      25A     -1.251634    26A     -1.155553    27A     -1.145168
      28A     -1.049667    29A     -1.038576    30A     -0.914584
      31A     -0.895711    32A     -0.891494    33A     -0.764304
      34A     -0.736955    35A     -0.712126    36A     -0.693613
      37A     -0.671858    38A     -0.659952    39A     -0.647510
      40A     -0.644120    41A     -0.633118    42A     -0.629093
      43A     -0.627552    44A     -0.605370    45A     -0.564236
      46A     -0.553989    47A     -0.520717    48A     -0.511143
      49A     -0.489232    50A     -0.464803    51A     -0.441010
      52A     -0.435129    53A     -0.428713    54A     -0.416213
      55A     -0.406895    56A     -0.403322    57A     -0.391649
      58A     -0.390363    59A     -0.357857    60A     -0.353479
      61A     -0.318201    62A     -0.306889    63A     -0.287589
      64A     -0.275414    65A     -0.264490

  @DF-RHF Final Energy: -1028.51598131873925

   => Energetics <=

    Nuclear Repulsion Energy =           1323.1136820775902834
    One-Electron Energy =               -4056.8177468839439825
    Two-Electron Energy =                1705.1880834876146764
    Total Energy =                      -1028.5159813187392501
  Basis Set: (AUG-CC-PVTZ AUX)
    Blend: AUG-CC-PVTZ-RI
    Molecular point group: c1

    Geometry (in Angstrom), charge = -1, multiplicity = 1:

       Center              X                  Y                   Z               Mass
    ------------   -----------------  -----------------  -----------------  -----------------
         O           -2.954120271756     0.881713459607    -0.744654253803    15.994914619570
         O           -2.954177271756    -0.886913540393     0.744345746197    15.994914619570
         O           -0.554695271756    -3.301418540393     0.783260746197    15.994914619570
         O           -0.554614271756     3.296225459607    -0.783404253803    15.994914619570
         O           -1.541033271756    -2.677781540393    -1.096027253803    15.994914619570
         O           -1.541048271756     2.672524459607     1.095812746197    15.994914619570
         O            3.955101728244    -1.101198540393    -0.052124253803    15.994914619570
         O            3.955113728244     1.095920459607     0.051880746197    15.994914619570
         N           -0.826891271756    -2.474819540393    -0.104878253803    14.003074004430
         N           -0.826862271756     2.469593459607     0.104687746197    14.003074004430
         N            3.373627728244    -0.002635540393    -0.000119253803    14.003074004430
         C           -0.992634571756     0.053224059607     0.002268246197    12.000000000000
         C           -0.152669271756    -1.173827540393    -0.021905253803    12.000000000000
         C           -0.152656271756     1.168595459607     0.021696746197    12.000000000000
         C            1.908660728244    -0.002628540393    -0.000111253803    12.000000000000
         C            1.236941728244    -1.220805540393    -0.007159253803    12.000000000000
         C            1.236953728244     1.215556459607     0.006941746197    12.000000000000
         C           -2.471250271756    -0.002603540393    -0.000138253803    12.000000000000
         H            1.774483728244    -2.162301540393    -0.004953253803     1.007825032230
         H            1.774506728244     2.157046459607     0.004735746197     1.007825032230

  Basis Set: AUG-CC-PVTZ
    Blend: AUG-CC-PVTZ
  Basis Set: (AUG-CC-PVTZ AUX)
    Blend: AUG-CC-PVTZ-JKFIT
	 Reference Energy          =   -1028.5159813187392501 [Eh]
	 Singles Energy            =      -0.0000000000000000 [Eh]
	 Same-Spin Energy          =      -1.0579410100061493 [Eh]
	 Opposite-Spin Energy      =      -2.9552572750700135 [Eh]
	 Correlation Energy        =      -4.0131982850761627 [Eh]
	 Total Energy              =   -1032.5291796038154644 [Eh]

	 ================> DF-SCS-MP2 Energies <==================
	-----------------------------------------------------------
	 SCS Same-Spin Scale       =       0.3333333333333333 [-]
	 SCS Opposite-Spin Scale   =       1.2000000000000000 [-]
	 SCS Same-Spin Energy      =      -0.3526470033353831 [Eh]
	 SCS Opposite-Spin Energy  =      -3.5463087300840161 [Eh]
	 SCS Correlation Energy    =      -3.8989557334193994 [Eh]
	 SCS Total Energy          =   -1032.4149370521586206 [Eh]
	-----------------------------------------------------------

  Dipole Moment: [D]
     X:     8.7594      Y:    -0.0047      Z:     0.0068     Total:     8.7594

*** Psi4 exiting successfully. Buy a developer a beer!
