                               Psi4 1.4a3.dev225

  ==> Input File <==

--------------------------------------------------------------------------
#psi4
#
memory 32 gb

molecule  {
-1 1
  O       -2.9714190     0.8843310    -0.7445430
  O       -2.9714760    -0.8842960     0.7444570
  O       -0.5719940    -3.2988010     0.7833720
  O       -0.5719130     3.2988430    -0.7832930
  O       -1.5583320    -2.6751640    -1.0959160
  O       -1.5583470     2.6751420     1.0959240
  O        3.9378030    -1.0985810    -0.0520130
  O        3.9378150     1.0985380     0.0519920
  N       -0.8441900    -2.4722020    -0.1047670
  N       -0.8441610     2.4722110     0.1047990
  N        3.3563290    -0.0000180    -0.0000080
  C       -0.9300790     0.0000040     0.0000050
  C       -0.1699680    -1.1712100    -0.0217940
  C       -0.1699550     1.1712130     0.0218080
  C        1.8913620    -0.0000110     0.0000000
  C        1.2196430    -1.2181880    -0.0070480
  C        1.1197177     1.2147967     0.0081141
  C       -2.4885490     0.0000140    -0.0000270
  H        1.7571850    -2.1596840    -0.0048420
  H        1.7572080     2.1596640     0.0048470
units angstrom
no_reorient  #important for SAPT in psi4, default
symmetry c1  #important for SAPT in psi4, default
}

set PROPERTIES_ORIGIN ["COM"]
properties('MP2/aug-cc-pvtz', properties = ['dipole'])
--------------------------------------------------------------------------

    Molecular point group: c1
  Charge       = -1
  Multiplicity = 1
  Basis Set: AUG-CC-PVTZ
    Blend: AUG-CC-PVTZ
  Basis Set: (AUG-CC-PVTZ AUX)
    Blend: AUG-CC-PVTZ-JKFIT

    Orbital Energies [Eh]
    ---------------------

    Doubly Occupied:

       1A    -20.541723     2A    -20.540501     3A    -20.517157
       4A    -20.515891     5A    -20.514348     6A    -20.513030
       7A    -20.371730     8A    -20.370885     9A    -15.795073
      10A    -15.763106    11A    -15.762420    12A    -11.248890
      13A    -11.237627    14A    -11.231450    15A    -11.230527
      16A    -11.224946    17A    -11.217933    18A    -11.214348
      19A     -1.524547    20A     -1.497945    21A     -1.496411
      22A     -1.322449    23A     -1.297462    24A     -1.296217
      25A     -1.247969    26A     -1.155006    27A     -1.154396
      28A     -1.055555    29A     -1.042071    30A     -0.913409
      31A     -0.898996    32A     -0.888807    33A     -0.764334
      34A     -0.740691    35A     -0.711944    36A     -0.677442
      37A     -0.673165    38A     -0.658496    39A     -0.652471
      40A     -0.646472    41A     -0.636119    42A     -0.630361
      43A     -0.628490    44A     -0.600811    45A     -0.568576
      46A     -0.558394    47A     -0.508263    48A     -0.500948
      49A     -0.492096    50A     -0.467345    51A     -0.440762
      52A     -0.433589    53A     -0.428455    54A     -0.417872
      55A     -0.407691    56A     -0.403674    57A     -0.393534
      58A     -0.391009    59A     -0.358510    60A     -0.353851
      61A     -0.321917    62A     -0.313238    63A     -0.284021
      64A     -0.277936    65A     -0.265252

  @DF-RHF Final Energy: -1028.51601920598614

   => Energetics <=

    Nuclear Repulsion Energy =           1324.8377999656077009
    One-Electron Energy =               -4060.2865317470559603
    Two-Electron Energy =                1706.9327125754621193
    Total Energy =                      -1028.5160192059861402
  Basis Set: (AUG-CC-PVTZ AUX)
    Blend: AUG-CC-PVTZ-RI
    Molecular point group: c1

    Geometry (in Angstrom), charge = -1, multiplicity = 1:

       Center              X                  Y                   Z               Mass
    ------------   -----------------  -----------------  -----------------  -----------------
         O           -2.953178822986     0.884489329486    -0.744592684376    15.994914619570
         O           -2.953235822986    -0.884137670514     0.744407315624    15.994914619570
         O           -0.553753822986    -3.298642670514     0.783322315624    15.994914619570
         O           -0.553672822986     3.299001329486    -0.783342684376    15.994914619570
         O           -1.540091822986    -2.675005670514    -1.095965684376    15.994914619570
         O           -1.540106822986     2.675300329486     1.095874315624    15.994914619570
         O            3.956043177014    -1.098422670514    -0.052062684376    15.994914619570
         O            3.956055177014     1.098696329486     0.051942315624    15.994914619570
         N           -0.825949822986    -2.472043670514    -0.104816684376    14.003074004430
         N           -0.825920822986     2.472369329486     0.104749315624    14.003074004430
         N            3.374569177014     0.000140329486    -0.000057684376    14.003074004430
         C           -0.911838822986     0.000162329486    -0.000044684376    12.000000000000
         C           -0.151727822986    -1.171051670514    -0.021843684376    12.000000000000
         C           -0.151714822986     1.171371329486     0.021758315624    12.000000000000
         C            1.909602177014     0.000147329486    -0.000049684376    12.000000000000
         C            1.237883177014    -1.218029670514    -0.007097684376    12.000000000000
         C            1.137957877014     1.214955029486     0.008064415624    12.000000000000
         C           -2.470308822986     0.000172329486    -0.000076684376    12.000000000000
         H            1.775425177014    -2.159525670514    -0.004891684376     1.007825032230
         H            1.775448177014     2.159822329486     0.004797315624     1.007825032230

  Basis Set: AUG-CC-PVTZ
    Blend: AUG-CC-PVTZ
  Basis Set: (AUG-CC-PVTZ AUX)
    Blend: AUG-CC-PVTZ-JKFIT
	 Reference Energy          =   -1028.5160192059861402 [Eh]
	 Singles Energy            =      -0.0000000000000000 [Eh]
	 Same-Spin Energy          =      -1.0564900967437596 [Eh]
	 Opposite-Spin Energy      =      -2.9527111341415857 [Eh]
	 Correlation Energy        =      -4.0092012308853455 [Eh]
	 Total Energy              =   -1032.5252204368714501 [Eh]

	 ================> DF-SCS-MP2 Energies <==================
	-----------------------------------------------------------
	 SCS Same-Spin Scale       =       0.3333333333333333 [-]
	 SCS Opposite-Spin Scale   =       1.2000000000000000 [-]
	 SCS Same-Spin Energy      =      -0.3521633655812532 [Eh]
	 SCS Opposite-Spin Energy  =      -3.5432533609699028 [Eh]
	 SCS Correlation Energy    =      -3.8954167265511561 [Eh]
	 SCS Total Energy          =   -1032.4114359325371879 [Eh]
	-----------------------------------------------------------

  Dipole Moment: [D]
     X:     8.7864      Y:    -0.0163      Z:    -0.0080     Total:     8.7864

*** Psi4 exiting successfully. Buy a developer a beer!
