                               Psi4 1.4a3.dev225

  ==> Input File <==

--------------------------------------------------------------------------
#psi4
#
memory 32 gb

molecule  {
-1 1
  O       -2.9714190     0.8843310    -0.7445430
  O       -2.9714760    -0.8842960     0.7444570
  O       -0.5719940    -3.2988010     0.7833720
  O       -0.5719130     3.2988430    -0.7832930
  O       -1.5583320    -2.6751640    -1.0959160
  O       -1.5583470     2.6751420     1.0959240
  O        3.9378030    -1.0985810    -0.0520130
  O        3.9378150     1.0985380     0.0519920
  N       -0.8441900    -2.4722020    -0.1047670
  N       -0.8441610     2.4722110     0.1047990
  N        3.3563290    -0.0000180    -0.0000080
  C       -0.9300790     0.0000040     0.0000050
  C       -0.1699680    -1.1712100    -0.0217940
  C       -0.1808417     1.1544386     0.0214957
  C        1.8913620    -0.0000110     0.0000000
  C        1.2196430    -1.2181880    -0.0070480
  C        1.2196550     1.2181740     0.0070530
  C       -2.4885490     0.0000140    -0.0000270
  H        1.7571850    -2.1596840    -0.0048420
  H        1.7572080     2.1596640     0.0048470
units angstrom
no_reorient  #important for SAPT in psi4, default
symmetry c1  #important for SAPT in psi4, default
}

set PROPERTIES_ORIGIN ["COM"]
properties('MP2/aug-cc-pvtz', properties = ['dipole'])
--------------------------------------------------------------------------

    Molecular point group: c1
  Charge       = -1
  Multiplicity = 1
  Basis Set: AUG-CC-PVTZ
    Blend: AUG-CC-PVTZ
  Basis Set: (AUG-CC-PVTZ AUX)
    Blend: AUG-CC-PVTZ-JKFIT

    Orbital Energies [Eh]
    ---------------------

    Doubly Occupied:

       1A    -20.542876     2A    -20.542649     3A    -20.516361
       4A    -20.515823     5A    -20.513577     6A    -20.513205
       7A    -20.369496     8A    -20.369435     9A    -15.794465
      10A    -15.762997    11A    -15.762341    12A    -11.249315
      13A    -11.241419    14A    -11.240639    15A    -11.228844
      16A    -11.225148    17A    -11.222611    18A    -11.207826
      19A     -1.526123    20A     -1.496946    21A     -1.495620
      22A     -1.324012    23A     -1.296665    24A     -1.295922
      25A     -1.246272    26A     -1.152848    27A     -1.150252
      28A     -1.050647    29A     -1.040875    30A     -0.912135
      31A     -0.897632    32A     -0.891124    33A     -0.760361
      34A     -0.742227    35A     -0.712391    36A     -0.676402
      37A     -0.672870    38A     -0.659795    39A     -0.651652
      40A     -0.647830    41A     -0.634335    42A     -0.629314
      43A     -0.627469    44A     -0.604098    45A     -0.562751
      46A     -0.557519    47A     -0.522748    48A     -0.504967
      49A     -0.489833    50A     -0.465568    51A     -0.441485
      52A     -0.434140    53A     -0.427894    54A     -0.416442
      55A     -0.407087    56A     -0.403620    57A     -0.393779
      58A     -0.391975    59A     -0.358029    60A     -0.353593
      61A     -0.318915    62A     -0.306068    63A     -0.281863
      64A     -0.280715    65A     -0.263773

  @DF-RHF Final Energy: -1028.52796265696952

   => Energetics <=

    Nuclear Repulsion Energy =           1323.6373494220090379
    One-Electron Energy =               -4057.9354064413778360
    Two-Electron Energy =                1705.7700943623990497
    Total Energy =                      -1028.5279626569695210
  Basis Set: (AUG-CC-PVTZ AUX)
    Blend: AUG-CC-PVTZ-RI
    Molecular point group: c1

    Geometry (in Angstrom), charge = -1, multiplicity = 1:

       Center              X                  Y                   Z               Mass
    ------------   -----------------  -----------------  -----------------  -----------------
         O           -2.957353327685     0.885117357337    -0.744528302274    15.994914619570
         O           -2.957410327685    -0.883509642663     0.744471697726    15.994914619570
         O           -0.557928327685    -3.298014642663     0.783386697726    15.994914619570
         O           -0.557847327685     3.299629357337    -0.783278302274    15.994914619570
         O           -1.544266327685    -2.674377642663    -1.095901302274    15.994914619570
         O           -1.544281327685     2.675928357337     1.095938697726    15.994914619570
         O            3.951868672315    -1.097794642663    -0.051998302274    15.994914619570
         O            3.951880672315     1.099324357337     0.052006697726    15.994914619570
         N           -0.830124327685    -2.471415642663    -0.104752302274    14.003074004430
         N           -0.830095327685     2.472997357337     0.104813697726    14.003074004430
         N            3.370394672315     0.000768357337     0.000006697726    14.003074004430
         C           -0.916013327685     0.000790357337     0.000019697726    12.000000000000
         C           -0.155902327685    -1.170423642663    -0.021779302274    12.000000000000
         C           -0.166776027685     1.155224957337     0.021510397726    12.000000000000
         C            1.905427672315     0.000775357337     0.000014697726    12.000000000000
         C            1.233708672315    -1.217401642663    -0.007033302274    12.000000000000
         C            1.233720672315     1.218960357337     0.007067697726    12.000000000000
         C           -2.474483327685     0.000800357337    -0.000012302274    12.000000000000
         H            1.771250672315    -2.158897642663    -0.004827302274     1.007825032230
         H            1.771273672315     2.160450357337     0.004861697726     1.007825032230

  Basis Set: AUG-CC-PVTZ
    Blend: AUG-CC-PVTZ
  Basis Set: (AUG-CC-PVTZ AUX)
    Blend: AUG-CC-PVTZ-JKFIT
	 Reference Energy          =   -1028.5279626569695210 [Eh]
	 Singles Energy            =      -0.0000000000000000 [Eh]
	 Same-Spin Energy          =      -1.0569844605900689 [Eh]
	 Opposite-Spin Energy      =      -2.9531813670311458 [Eh]
	 Correlation Energy        =      -4.0101658276212149 [Eh]
	 Total Energy              =   -1032.5381284845907430 [Eh]

	 ================> DF-SCS-MP2 Energies <==================
	-----------------------------------------------------------
	 SCS Same-Spin Scale       =       0.3333333333333333 [-]
	 SCS Opposite-Spin Scale   =       1.2000000000000000 [-]
	 SCS Same-Spin Energy      =      -0.3523281535300229 [Eh]
	 SCS Opposite-Spin Energy  =      -3.5438176404373749 [Eh]
	 SCS Correlation Energy    =      -3.8961457939673978 [Eh]
	 SCS Total Energy          =   -1032.4241084509369557 [Eh]
	-----------------------------------------------------------

  Dipole Moment: [D]
     X:     8.8269      Y:    -0.0293      Z:    -0.0059     Total:     8.8269

*** Psi4 exiting successfully. Buy a developer a beer!
