                               Psi4 1.4a3.dev225

  ==> Input File <==

--------------------------------------------------------------------------
#psi4
#
memory 32 gb

molecule  {
-1 1
  O       -2.9714190     0.8843310    -0.7445430
  O       -2.9714760    -0.8842960     0.7444570
  O       -0.5719940    -3.2988010     0.7833720
  O       -0.5719130     3.2988430    -0.7832930
  O       -1.5583320    -2.6751640    -1.0959160
  O       -1.5583470     2.6751420     1.0959240
  O        3.9378030    -1.0985810    -0.0520130
  O        3.9378150     1.0985380     0.0519920
  N       -0.8441900    -2.4722020    -0.1047670
  N       -0.8441610     2.4722110     0.1047990
  N        3.3563290    -0.0000180    -0.0000080
  C       -0.9300790     0.0000040     0.0000050
  C       -0.1699680    -1.1712100    -0.0217940
  C       -0.1699550     1.1712130     0.0218080
  C        1.8913620    -0.0000110     0.0000000
  C        1.2196430    -1.2181880    -0.0070480
  C        1.0197804     1.2114194     0.0091753
  C       -2.4885490     0.0000140    -0.0000270
  H        1.7571850    -2.1596840    -0.0048420
  H        1.7572080     2.1596640     0.0048470
units angstrom
no_reorient  #important for SAPT in psi4, default
symmetry c1  #important for SAPT in psi4, default
}

set PROPERTIES_ORIGIN ["COM"]
properties('MP2/aug-cc-pvtz', properties = ['dipole'])
--------------------------------------------------------------------------

    Molecular point group: c1
  Charge       = -1
  Multiplicity = 1
  Basis Set: AUG-CC-PVTZ
    Blend: AUG-CC-PVTZ
  Basis Set: (AUG-CC-PVTZ AUX)
    Blend: AUG-CC-PVTZ-JKFIT

    Orbital Energies [Eh]
    ---------------------

    Doubly Occupied:

       1A    -20.540949     2A    -20.538763     3A    -20.517956
       4A    -20.515604     5A    -20.515005     6A    -20.512685
       7A    -20.373635     8A    -20.372005     9A    -15.795732
      10A    -15.763076    11A    -15.762062    12A    -11.249480
      13A    -11.235035    14A    -11.231882    15A    -11.226491
      16A    -11.219968    17A    -11.217384    18A    -11.210243
      19A     -1.523399    20A     -1.498920    21A     -1.496105
      22A     -1.321309    23A     -1.298178    24A     -1.295953
      25A     -1.249480    26A     -1.164812    27A     -1.155887
      28A     -1.067388    29A     -1.036625    30A     -0.914327
      31A     -0.901969    32A     -0.886888    33A     -0.766457
      34A     -0.738790    35A     -0.711993    36A     -0.678774
      37A     -0.673976    38A     -0.660433    39A     -0.652456
      40A     -0.645476    41A     -0.634813    42A     -0.631555
      43A     -0.627757    44A     -0.597190    45A     -0.573786
      46A     -0.557819    47A     -0.509706    48A     -0.500414
      49A     -0.477127    50A     -0.468523    51A     -0.440124
      52A     -0.434008    53A     -0.428620    54A     -0.418995
      55A     -0.406671    56A     -0.403581    57A     -0.390807
      58A     -0.390383    59A     -0.358988    60A     -0.353894
      61A     -0.337183    62A     -0.311701    63A     -0.285481
      64A     -0.275169    65A     -0.266476

  @DF-RHF Final Energy: -1028.46683580205740

   => Energetics <=

    Nuclear Repulsion Energy =           1326.4260602720992210
    One-Electron Energy =               -4063.3491506099935577
    Two-Electron Energy =                1708.4562545358369334
    Total Energy =                      -1028.4668358020574033
  Basis Set: (AUG-CC-PVTZ AUX)
    Blend: AUG-CC-PVTZ-RI
    Molecular point group: c1

    Geometry (in Angstrom), charge = -1, multiplicity = 1:

       Center              X                  Y                   Z               Mass
    ------------   -----------------  -----------------  -----------------  -----------------
         O           -2.948493972705     0.884647650202    -0.744642431198    15.994914619570
         O           -2.948550972705    -0.883979349798     0.744357568802    15.994914619570
         O           -0.549068972705    -3.298484349798     0.783272568802    15.994914619570
         O           -0.548987972705     3.299159650202    -0.783392431198    15.994914619570
         O           -1.535406972705    -2.674847349798    -1.096015431198    15.994914619570
         O           -1.535421972705     2.675458650202     1.095824568802    15.994914619570
         O            3.960728027295    -1.098264349798    -0.052112431198    15.994914619570
         O            3.960740027295     1.098854650202     0.051892568802    15.994914619570
         N           -0.821264972705    -2.471885349798    -0.104866431198    14.003074004430
         N           -0.821235972705     2.472527650202     0.104699568802    14.003074004430
         N            3.379254027295     0.000298650202    -0.000107431198    14.003074004430
         C           -0.907153972705     0.000320650202    -0.000094431198    12.000000000000
         C           -0.147042972705    -1.170893349798    -0.021893431198    12.000000000000
         C           -0.147029972705     1.171529650202     0.021708568802    12.000000000000
         C            1.914287027295     0.000305650202    -0.000099431198    12.000000000000
         C            1.242568027295    -1.217871349798    -0.007147431198    12.000000000000
         C            1.042705427295     1.211736050202     0.009075868802    12.000000000000
         C           -2.465623972705     0.000330650202    -0.000126431198    12.000000000000
         H            1.780110027295    -2.159367349798    -0.004941431198     1.007825032230
         H            1.780133027295     2.159980650202     0.004747568802     1.007825032230

  Basis Set: AUG-CC-PVTZ
    Blend: AUG-CC-PVTZ
  Basis Set: (AUG-CC-PVTZ AUX)
    Blend: AUG-CC-PVTZ-JKFIT
	 Reference Energy          =   -1028.4668358020574033 [Eh]
	 Singles Energy            =      -0.0000000000000000 [Eh]
	 Same-Spin Energy          =      -1.0561003584723272 [Eh]
	 Opposite-Spin Energy      =      -2.9534568333857547 [Eh]
	 Correlation Energy        =      -4.0095571918580823 [Eh]
	 Total Energy              =   -1032.4763929939153968 [Eh]

	 ================> DF-SCS-MP2 Energies <==================
	-----------------------------------------------------------
	 SCS Same-Spin Scale       =       0.3333333333333333 [-]
	 SCS Opposite-Spin Scale   =       1.2000000000000000 [-]
	 SCS Same-Spin Energy      =      -0.3520334528241090 [Eh]
	 SCS Opposite-Spin Energy  =      -3.5441482000629057 [Eh]
	 SCS Correlation Energy    =      -3.8961816528870146 [Eh]
	 SCS Total Energy          =   -1032.3630174549443836 [Eh]
	-----------------------------------------------------------

  Dipole Moment: [D]
     X:     8.7471      Y:    -0.0403      Z:    -0.0163     Total:     8.7472

*** Psi4 exiting successfully. Buy a developer a beer!
