                               Psi4 1.4a3.dev225

  ==> Input File <==

--------------------------------------------------------------------------
#psi4
#
memory 32 gb

molecule  {
-1 1
  O       -2.9714190     0.8843310    -0.7445430
  O       -2.9714760    -0.8842960     0.7444570
  O       -0.5719940    -3.2988010     0.7833720
  O       -0.5719130     3.2988430    -0.7832930
  O       -1.5583320    -2.6751640    -1.0959160
  O       -1.5583470     2.6751420     1.0959240
  O        3.9378030    -1.0985810    -0.0520130
  O        3.9378150     1.0985380     0.0519920
  N       -0.8441900    -2.4722020    -0.1047670
  N       -0.8441610     2.4722110     0.1047990
  N        3.3563290    -0.0000180    -0.0000080
  C       -0.9300790     0.0000040     0.0000050
  C       -0.1672599    -1.3167284    -0.0223162
  C       -0.1699550     1.1712130     0.0218080
  C        1.8913620    -0.0000110     0.0000000
  C        1.2196430    -1.2181880    -0.0070480
  C        1.2196550     1.2181740     0.0070530
  C       -2.4885490     0.0000140    -0.0000270
  H        1.7571850    -2.1596840    -0.0048420
  H        1.7572080     2.1596640     0.0048470
units angstrom
no_reorient  #important for SAPT in psi4, default
symmetry c1  #important for SAPT in psi4, default
}

set PROPERTIES_ORIGIN ["COM"]
properties('MP2/aug-cc-pvtz', properties = ['dipole'])
--------------------------------------------------------------------------

    Molecular point group: c1
  Charge       = -1
  Multiplicity = 1
  Basis Set: AUG-CC-PVTZ
    Blend: AUG-CC-PVTZ
  Basis Set: (AUG-CC-PVTZ AUX)
    Blend: AUG-CC-PVTZ-JKFIT

    Orbital Energies [Eh]
    ---------------------

    Doubly Occupied:

       1A    -20.539989     2A    -20.539422     3A    -20.519545
       4A    -20.516347     5A    -20.516269     6A    -20.513530
       7A    -20.370371     8A    -20.370148     9A    -15.792945
      10A    -15.765571    11A    -15.763309    12A    -11.246489
      13A    -11.242402    14A    -11.237879    15A    -11.228581
      16A    -11.228229    17A    -11.226952    18A    -11.222625
      19A     -1.523597    20A     -1.513141    21A     -1.496913
      22A     -1.321424    23A     -1.303865    24A     -1.296675
      25A     -1.246502    26A     -1.153477    27A     -1.143069
      28A     -1.065092    29A     -1.044399    30A     -0.924588
      31A     -0.903285    32A     -0.884522    33A     -0.762063
      34A     -0.738517    35A     -0.713660    36A     -0.678319
      37A     -0.672299    38A     -0.665192    39A     -0.654409
      40A     -0.646176    41A     -0.640141    42A     -0.634612
      43A     -0.629299    44A     -0.608762    45A     -0.560288
      46A     -0.549005    47A     -0.513997    48A     -0.494603
      49A     -0.482856    50A     -0.462698    51A     -0.439501
      52A     -0.433288    53A     -0.427340    54A     -0.420799
      55A     -0.416038    56A     -0.404916    57A     -0.397784
      58A     -0.390020    59A     -0.360629    60A     -0.354934
      61A     -0.315422    62A     -0.304958    63A     -0.281116
      64A     -0.273795    65A     -0.264439

  @DF-RHF Final Energy: -1028.50371372989139

   => Energetics <=

    Nuclear Repulsion Energy =           1322.7550523791421710
    One-Electron Energy =               -4056.0114826550075122
    Two-Electron Energy =                1704.7527165459741809
    Total Energy =                      -1028.5037137298913876
  Basis Set: (AUG-CC-PVTZ AUX)
    Blend: AUG-CC-PVTZ-RI
    Molecular point group: c1

    Geometry (in Angstrom), charge = -1, multiplicity = 1:

       Center              X                  Y                   Z               Mass
    ------------   -----------------  -----------------  -----------------  -----------------
         O           -2.957990623295     0.891152605083    -0.744518462604    15.994914619570
         O           -2.958047623295    -0.877474394917     0.744481537396    15.994914619570
         O           -0.558565623295    -3.291979394917     0.783396537396    15.994914619570
         O           -0.558484623295     3.305664605083    -0.783268462604    15.994914619570
         O           -1.544903623295    -2.668342394917    -1.095891462604    15.994914619570
         O           -1.544918623295     2.681963605083     1.095948537396    15.994914619570
         O            3.951231376705    -1.091759394917    -0.051988462604    15.994914619570
         O            3.951243376705     1.105359605083     0.052016537396    15.994914619570
         N           -0.830761623295    -2.465380394917    -0.104742462604    14.003074004430
         N           -0.830732623295     2.479032605083     0.104823537396    14.003074004430
         N            3.369757376705     0.006803605083     0.000016537396    14.003074004430
         C           -0.916650623295     0.006825605083     0.000029537396    12.000000000000
         C           -0.153831523295    -1.309906794917    -0.022291662604    12.000000000000
         C           -0.156526623295     1.178034605083     0.021832537396    12.000000000000
         C            1.904790376705     0.006810605083     0.000024537396    12.000000000000
         C            1.233071376705    -1.211366394917    -0.007023462604    12.000000000000
         C            1.233083376705     1.224995605083     0.007077537396    12.000000000000
         C           -2.475120623295     0.006835605083    -0.000002462604    12.000000000000
         H            1.770613376705    -2.152862394917    -0.004817462604     1.007825032230
         H            1.770636376705     2.166485605083     0.004871537396     1.007825032230

  Basis Set: AUG-CC-PVTZ
    Blend: AUG-CC-PVTZ
  Basis Set: (AUG-CC-PVTZ AUX)
    Blend: AUG-CC-PVTZ-JKFIT
	 Reference Energy          =   -1028.5037137298913876 [Eh]
	 Singles Energy            =      -0.0000000000000000 [Eh]
	 Same-Spin Energy          =      -1.0577103359580802 [Eh]
	 Opposite-Spin Energy      =      -2.9543767582127760 [Eh]
	 Correlation Energy        =      -4.0120870941708562 [Eh]
	 Total Energy              =   -1032.5158008240623531 [Eh]

	 ================> DF-SCS-MP2 Energies <==================
	-----------------------------------------------------------
	 SCS Same-Spin Scale       =       0.3333333333333333 [-]
	 SCS Opposite-Spin Scale   =       1.2000000000000000 [-]
	 SCS Same-Spin Energy      =      -0.3525701119860267 [Eh]
	 SCS Opposite-Spin Energy  =      -3.5452521098553311 [Eh]
	 SCS Correlation Energy    =      -3.8978222218413578 [Eh]
	 SCS Total Energy          =   -1032.4015359517327397 [Eh]
	-----------------------------------------------------------

  Dipole Moment: [D]
     X:     8.7059      Y:    -0.1821      Z:    -0.0281     Total:     8.7079

*** Psi4 exiting successfully. Buy a developer a beer!
