                               Psi4 1.4a3.dev225

  ==> Input File <==

--------------------------------------------------------------------------
#psi4
#
memory 32 gb

molecule  {
-1 1
  O       -2.9714190     0.8843310    -0.7445430
  O       -2.9714760    -0.8842960     0.7444570
  O       -0.5719940    -3.2988010     0.7833720
  O       -0.5719130     3.2988430    -0.7832930
  O       -1.5583320    -2.6751640    -1.0959160
  O       -1.5583470     2.6751420     1.0959240
  O        3.9378030    -1.0985810    -0.0520130
  O        3.9378150     1.0985380     0.0519920
  N       -0.8441900    -2.4722020    -0.1047670
  N       -0.8441610     2.4722110     0.1047990
  N        3.3563290    -0.0000180    -0.0000080
  C       -0.9300790     0.0000040     0.0000050
  C       -0.2244009    -1.0873373    -0.0202329
  C       -0.1699550     1.1712130     0.0218080
  C        1.8913620    -0.0000110     0.0000000
  C        1.2196430    -1.2181880    -0.0070480
  C        1.2196550     1.2181740     0.0070530
  C       -2.4885490     0.0000140    -0.0000270
  H        1.7571850    -2.1596840    -0.0048420
  H        1.7572080     2.1596640     0.0048470
units angstrom
no_reorient  #important for SAPT in psi4, default
symmetry c1  #important for SAPT in psi4, default
}

set PROPERTIES_ORIGIN ["COM"]
properties('MP2/aug-cc-pvtz', properties = ['dipole'])
--------------------------------------------------------------------------

    Molecular point group: c1
  Charge       = -1
  Multiplicity = 1
  Basis Set: AUG-CC-PVTZ
    Blend: AUG-CC-PVTZ
  Basis Set: (AUG-CC-PVTZ AUX)
    Blend: AUG-CC-PVTZ-JKFIT

    Orbital Energies [Eh]
    ---------------------

    Doubly Occupied:

       1A    -20.545370     2A    -20.544234     3A    -20.516409
       4A    -20.513722     5A    -20.513572     6A    -20.511747
       7A    -20.368667     8A    -20.368350     9A    -15.795740
      10A    -15.763155    11A    -15.759272    12A    -11.251599
      13A    -11.244162    14A    -11.239366    15A    -11.232008
      16A    -11.228110    17A    -11.219835    18A    -11.193808
      19A     -1.527865    20A     -1.497040    21A     -1.490527
      22A     -1.325764    23A     -1.296732    24A     -1.292972
      25A     -1.245833    26A     -1.153389    27A     -1.151972
      28A     -1.056441    29A     -1.034336    30A     -0.913932
      31A     -0.901002    32A     -0.882986    33A     -0.759272
      34A     -0.744492    35A     -0.711422    36A     -0.679276
      37A     -0.673872    38A     -0.657555    39A     -0.652129
      40A     -0.649143    41A     -0.631983    42A     -0.627888
      43A     -0.623713    44A     -0.602637    45A     -0.564563
      46A     -0.556610    47A     -0.525894    48A     -0.504060
      49A     -0.493229    50A     -0.465223    51A     -0.442749
      52A     -0.435423    53A     -0.427531    54A     -0.414923
      55A     -0.405364    56A     -0.402488    57A     -0.393283
      58A     -0.389054    59A     -0.357425    60A     -0.352680
      61A     -0.327201    62A     -0.300417    63A     -0.283537
      64A     -0.280467    65A     -0.263044

  @DF-RHF Final Energy: -1028.51436414036857

   => Energetics <=

    Nuclear Repulsion Energy =           1324.2615541571544782
    One-Electron Energy =               -4059.1949153952155029
    Two-Electron Energy =                1706.4189970976924542
    Total Energy =                      -1028.5143641403685706
  Basis Set: (AUG-CC-PVTZ AUX)
    Blend: AUG-CC-PVTZ-RI
    Molecular point group: c1

    Geometry (in Angstrom), charge = -1, multiplicity = 1:

       Center              X                  Y                   Z               Mass
    ------------   -----------------  -----------------  -----------------  -----------------
         O           -2.955311973483     0.880399233126    -0.744616123323    15.994914619570
         O           -2.955368973483    -0.888227766874     0.744383876677    15.994914619570
         O           -0.555886973483    -3.302732766874     0.783298876677    15.994914619570
         O           -0.555805973483     3.294911233126    -0.783366123323    15.994914619570
         O           -1.542224973483    -2.679095766874    -1.095989123323    15.994914619570
         O           -1.542239973483     2.671210233126     1.095850876677    15.994914619570
         O            3.953910026517    -1.102512766874    -0.052086123323    15.994914619570
         O            3.953922026517     1.094606233126     0.051918876677    15.994914619570
         N           -0.828082973483    -2.476133766874    -0.104840123323    14.003074004430
         N           -0.828053973483     2.468279233126     0.104725876677    14.003074004430
         N            3.372436026517    -0.003949766874    -0.000081123323    14.003074004430
         C           -0.913971973483    -0.003927766874    -0.000068123323    12.000000000000
         C           -0.208293873483    -1.091269066874    -0.020306023323    12.000000000000
         C           -0.153847973483     1.167281233126     0.021734876677    12.000000000000
         C            1.907469026517    -0.003942766874    -0.000073123323    12.000000000000
         C            1.235750026517    -1.222119766874    -0.007121123323    12.000000000000
         C            1.235762026517     1.214242233126     0.006979876677    12.000000000000
         C           -2.472441973483    -0.003917766874    -0.000100123323    12.000000000000
         H            1.773292026517    -2.163615766874    -0.004915123323     1.007825032230
         H            1.773315026517     2.155732233126     0.004773876677     1.007825032230

  Basis Set: AUG-CC-PVTZ
    Blend: AUG-CC-PVTZ
  Basis Set: (AUG-CC-PVTZ AUX)
    Blend: AUG-CC-PVTZ-JKFIT
	 Reference Energy          =   -1028.5143641403685706 [Eh]
	 Singles Energy            =      -0.0000000000000000 [Eh]
	 Same-Spin Energy          =      -1.0570711686535859 [Eh]
	 Opposite-Spin Energy      =      -2.9541863011148735 [Eh]
	 Correlation Energy        =      -4.0112574697684593 [Eh]
	 Total Energy              =   -1032.5256216101370228 [Eh]

	 ================> DF-SCS-MP2 Energies <==================
	-----------------------------------------------------------
	 SCS Same-Spin Scale       =       0.3333333333333333 [-]
	 SCS Opposite-Spin Scale   =       1.2000000000000000 [-]
	 SCS Same-Spin Energy      =      -0.3523570562178620 [Eh]
	 SCS Opposite-Spin Energy  =      -3.5450235613378482 [Eh]
	 SCS Correlation Energy    =      -3.8973806175557102 [Eh]
	 SCS Total Energy          =   -1032.4117447579242253 [Eh]
	-----------------------------------------------------------

  Dipole Moment: [D]
     X:     8.8654      Y:     0.1576      Z:     0.0299     Total:     8.8668

*** Psi4 exiting successfully. Buy a developer a beer!
