                               Psi4 1.4a3.dev225

  ==> Input File <==

--------------------------------------------------------------------------
#psi4
#
memory 32 gb

molecule  {
-1 1
  O       -2.9714190     0.8843310    -0.7445430
  O       -2.9714760    -0.8842960     0.7444570
  O       -0.5719940    -3.2988010     0.7833720
  O       -0.5719130     3.2988430    -0.7832930
  O       -1.5583320    -2.6751640    -1.0959160
  O       -1.5583470     2.6751420     1.0959240
  O        3.9378030    -1.0985810    -0.0520130
  O        3.9378150     1.0985380     0.0519920
  N       -0.8441900    -2.4722020    -0.1047670
  N       -0.8441610     2.4722110     0.1047990
  N        3.3563290    -0.0000180    -0.0000080
  C       -0.9300790     0.0000040     0.0000050
  C       -0.1699680    -1.1712100    -0.0217940
  C       -0.1699550     1.1712130     0.0218080
  C        1.7913620    -0.0000105     0.0000005
  C        1.2196430    -1.2181880    -0.0070480
  C        1.2196550     1.2181740     0.0070530
  C       -2.4885490     0.0000140    -0.0000270
  H        1.7571850    -2.1596840    -0.0048420
  H        1.7572080     2.1596640     0.0048470
units angstrom
no_reorient  #important for SAPT in psi4, default
symmetry c1  #important for SAPT in psi4, default
}

set PROPERTIES_ORIGIN ["COM"]
properties('MP2/aug-cc-pvtz', properties = ['dipole'])
--------------------------------------------------------------------------

    Molecular point group: c1
  Charge       = -1
  Multiplicity = 1
  Basis Set: AUG-CC-PVTZ
    Blend: AUG-CC-PVTZ
  Basis Set: (AUG-CC-PVTZ AUX)
    Blend: AUG-CC-PVTZ-JKFIT

    Orbital Energies [Eh]
    ---------------------

    Doubly Occupied:

       1A    -20.542892     2A    -20.542842     3A    -20.516592
       4A    -20.516591     5A    -20.513703     6A    -20.513703
       7A    -20.367937     8A    -20.367904     9A    -15.788701
      10A    -15.762764    11A    -15.762763    12A    -11.251413
      13A    -11.242222    14A    -11.242204    15A    -11.227356
      16A    -11.216870    17A    -11.216819    18A    -11.205925
      19A     -1.518014    20A     -1.497193    21A     -1.496907
      22A     -1.320513    23A     -1.296845    24A     -1.296725
      25A     -1.244787    26A     -1.159161    27A     -1.151416
      28A     -1.046204    29A     -1.039474    30A     -0.903020
      31A     -0.899201    32A     -0.893030    33A     -0.759842
      34A     -0.741953    35A     -0.713187    36A     -0.671045
      37A     -0.669781    38A     -0.661894    39A     -0.652294
      40A     -0.638480    41A     -0.635103    42A     -0.629804
      43A     -0.628373    44A     -0.605146    45A     -0.567258
      46A     -0.555252    47A     -0.537692    48A     -0.503655
      49A     -0.496311    50A     -0.465995    51A     -0.433989
      52A     -0.431360    53A     -0.428209    54A     -0.416931
      55A     -0.404925    56A     -0.403749    57A     -0.394737
      58A     -0.389991    59A     -0.358410    60A     -0.354017
      61A     -0.319429    62A     -0.309411    63A     -0.280510
      64A     -0.279512    65A     -0.262643

  @DF-RHF Final Energy: -1028.51774148138384

   => Energetics <=

    Nuclear Repulsion Energy =           1324.4246360349739007
    One-Electron Energy =               -4059.5595938286410274
    Two-Electron Energy =                1706.6172163122832899
    Total Energy =                      -1028.5177414813838368
  Basis Set: (AUG-CC-PVTZ AUX)
    Blend: AUG-CC-PVTZ-RI
    Molecular point group: c1

    Geometry (in Angstrom), charge = -1, multiplicity = 1:

       Center              X                  Y                   Z               Mass
    ------------   -----------------  -----------------  -----------------  -----------------
         O           -2.953175883742     0.884330985332    -0.744542965680    15.994914619570
         O           -2.953232883742    -0.884296014668     0.744457034320    15.994914619570
         O           -0.553750883742    -3.298801014668     0.783372034320    15.994914619570
         O           -0.553669883742     3.298842985332    -0.783292965680    15.994914619570
         O           -1.540088883742    -2.675164014668    -1.095915965680    15.994914619570
         O           -1.540103883742     2.675141985332     1.095924034320    15.994914619570
         O            3.956046116258    -1.098581014668    -0.052012965680    15.994914619570
         O            3.956058116258     1.098537985332     0.051992034320    15.994914619570
         N           -0.825946883742    -2.472202014668    -0.104766965680    14.003074004430
         N           -0.825917883742     2.472210985332     0.104799034320    14.003074004430
         N            3.374572116258    -0.000018014668    -0.000007965680    14.003074004430
         C           -0.911835883742     0.000003985332     0.000005034320    12.000000000000
         C           -0.151724883742    -1.171210014668    -0.021793965680    12.000000000000
         C           -0.151711883742     1.171212985332     0.021808034320    12.000000000000
         C            1.809605116258    -0.000010514668     0.000000534320    12.000000000000
         C            1.237886116258    -1.218188014668    -0.007047965680    12.000000000000
         C            1.237898116258     1.218173985332     0.007053034320    12.000000000000
         C           -2.470305883742     0.000013985332    -0.000026965680    12.000000000000
         H            1.775428116258    -2.159684014668    -0.004841965680     1.007825032230
         H            1.775451116258     2.159663985332     0.004847034320     1.007825032230

  Basis Set: AUG-CC-PVTZ
    Blend: AUG-CC-PVTZ
  Basis Set: (AUG-CC-PVTZ AUX)
    Blend: AUG-CC-PVTZ-JKFIT
	 Reference Energy          =   -1028.5177414813838368 [Eh]
	 Singles Energy            =      -0.0000000000000000 [Eh]
	 Same-Spin Energy          =      -1.0576264007612750 [Eh]
	 Opposite-Spin Energy      =      -2.9541278074951398 [Eh]
	 Correlation Energy        =      -4.0117542082564146 [Eh]
	 Total Energy              =   -1032.5294956896402709 [Eh]

	 ================> DF-SCS-MP2 Energies <==================
	-----------------------------------------------------------
	 SCS Same-Spin Scale       =       0.3333333333333333 [-]
	 SCS Opposite-Spin Scale   =       1.2000000000000000 [-]
	 SCS Same-Spin Energy      =      -0.3525421335870916 [Eh]
	 SCS Opposite-Spin Energy  =      -3.5449533689941677 [Eh]
	 SCS Correlation Energy    =      -3.8974955025812594 [Eh]
	 SCS Total Energy          =   -1032.4152369839650873 [Eh]
	-----------------------------------------------------------

  Dipole Moment: [D]
     X:     8.9384      Y:    -0.0001      Z:     0.0001     Total:     8.9384

*** Psi4 exiting successfully. Buy a developer a beer!
