                               Psi4 1.3.2 release

  ==> Input File <==

--------------------------------------------------------------------------
#psi4
#
memory 32 gb

molecule  {
0 1
  O       -0.4387840     2.7607480     0.8353900
  O       -2.1331470    -1.1223190    -0.8372800
  N       -1.8213880     1.6463300    -0.5966440
  N       -1.3631050    -2.2953590     0.9499780
  C        0.3530890     0.6863100    -0.0267190
  C        0.1273570    -0.7062790    -0.0589400
  C        1.6757520     1.1521170    -0.0434370
  C        1.2227880    -1.5827320    -0.1454420
  C        2.7536970     0.2775120    -0.1531960
  C        2.5274700    -1.0985820    -0.2079210
  C       -0.6734889     1.7631157     0.3320101
  C       -1.2296110    -1.3487220    -0.0223170
  H        1.8350890     2.2234210     0.0367700
  H        1.0390000    -2.6541090    -0.1799310
  H        3.7675570     0.6687350    -0.1864300
  H        3.3600860    -1.7923230    -0.2949860
  H       -2.0668670     0.7647910    -1.0387640
  H       -2.5394600     2.3415160    -0.4355780
  H       -0.7232160    -2.3232030     1.7312060
  H       -2.2766340    -2.7186030     1.0611610
units angstrom
no_reorient  #important for SAPT in psi4, default
symmetry c1  #important for SAPT in psi4, default
}

set PROPERTIES_ORIGIN ["COM"]
properties('MP2/aug-cc-pvtz', properties = ['dipole'])
--------------------------------------------------------------------------

    Molecular point group: c1
  Charge       = 0
  Multiplicity = 1
  Basis Set: AUG-CC-PVTZ
    Blend: AUG-CC-PVTZ
  Basis Set: (AUG-CC-PVTZ AUX)
    Blend: AUG-CC-PVTZ-JKFIT

    Orbital Energies [Eh]
    ---------------------

    Doubly Occupied:

       1A    -20.542897     2A    -20.542893     3A    -15.606769
       4A    -15.548379     5A    -11.382871     6A    -11.359724
       7A    -11.279972     8A    -11.273606     9A    -11.265622
      10A    -11.262544    11A    -11.259380    12A    -11.256936
      13A     -1.443426    14A     -1.396990    15A     -1.234436
      16A     -1.181012    17A     -1.151429    18A     -1.054302
      19A     -1.046695    20A     -0.906265    21A     -0.865668
      22A     -0.819800    23A     -0.777270    24A     -0.755227
      25A     -0.714693    26A     -0.697582    27A     -0.674696
      28A     -0.664951    29A     -0.648871    30A     -0.641602
      31A     -0.616562    32A     -0.604031    33A     -0.583500
      34A     -0.579240    35A     -0.546649    36A     -0.526247
      37A     -0.517424    38A     -0.452662    39A     -0.438636
      40A     -0.429011    41A     -0.396608    42A     -0.362198
      43A     -0.357830

  @DF-RHF Final Energy:  -566.44392389636766

   => Energetics <=

    Nuclear Repulsion Energy =            669.6883003481754031
    One-Electron Energy =               -2100.9302333939167511
    Two-Electron Energy =                 864.7980091493737973
    Total Energy =                       -566.4439238963676644
  Basis Set: (AUG-CC-PVTZ AUX)
    Blend: AUG-CC-PVTZ-RI
    Molecular point group: c1

    Geometry (in Angstrom), charge = 0, multiplicity = 1:

       Center              X                  Y                   Z               Mass
    ------------   -----------------  -----------------  -----------------  -----------------
         O           -0.425181721857     2.740548357313     0.824998204335    15.994914619570
         O           -2.119544721857    -1.142518642687    -0.847671795665    15.994914619570
         N           -1.807785721857     1.626130357313    -0.607035795665    14.003074004430
         N           -1.349502721857    -2.315558642687     0.939586204335    14.003074004430
         C            0.366691278143     0.666110357313    -0.037110795665    12.000000000000
         C            0.140959278143    -0.726478642687    -0.069331795665    12.000000000000
         C            1.689354278143     1.131917357313    -0.053828795665    12.000000000000
         C            1.236390278143    -1.602931642687    -0.155833795665    12.000000000000
         C            2.767299278143     0.257312357313    -0.163587795665    12.000000000000
         C            2.541072278143    -1.118781642687    -0.218312795665    12.000000000000
         C           -0.659886621857     1.742916057313     0.321618304335    12.000000000000
         C           -1.216008721857    -1.368921642687    -0.032708795665    12.000000000000
         H            1.848691278143     2.203221357313     0.026378204335     1.007825032230
         H            1.052602278143    -2.674308642687    -0.190322795665     1.007825032230
         H            3.781159278143     0.648535357313    -0.196821795665     1.007825032230
         H            3.373688278143    -1.812522642687    -0.305377795665     1.007825032230
         H           -2.053264721857     0.744591357313    -1.049155795665     1.007825032230
         H           -2.525857721857     2.321316357313    -0.445969795665     1.007825032230
         H           -0.709613721857    -2.343402642687     1.720814204335     1.007825032230
         H           -2.263031721857    -2.738802642687     1.050769204335     1.007825032230

  Basis Set: AUG-CC-PVTZ
    Blend: AUG-CC-PVTZ
  Basis Set: (AUG-CC-PVTZ AUX)
    Blend: AUG-CC-PVTZ-JKFIT
	 Reference Energy          =    -566.4439238963676644 [Eh]
	 Singles Energy            =      -0.0000000000000000 [Eh]
	 Same-Spin Energy          =      -0.5959842419142014 [Eh]
	 Opposite-Spin Energy      =      -1.7893206402814417 [Eh]
	 Correlation Energy        =      -2.3853048821956433 [Eh]
	 Total Energy              =    -568.8292287785633334 [Eh]

	 ================> DF-SCS-MP2 Energies <==================
	-----------------------------------------------------------
	 SCS Same-Spin Scale       =       0.3333333333333333 [-]
	 SCS Opposite-Spin Scale   =       1.2000000000000000 [-]
	 SCS Same-Spin Energy      =      -0.1986614139714005 [Eh]
	 SCS Opposite-Spin Energy  =      -2.1471847683377301 [Eh]
	 SCS Correlation Energy    =      -2.3458461823091303 [Eh]
	 SCS Total Energy          =    -568.7897700786768382 [Eh]
	-----------------------------------------------------------

  Dipole Moment: [D]
     X:     1.5459      Y:    -3.6421      Z:     1.8065     Total:     4.3495

*** Psi4 exiting successfully. Buy a developer a beer!
