                               Psi4 1.3.2 release

  ==> Input File <==

--------------------------------------------------------------------------
#psi4
#
memory 32 gb

molecule  {
0 1
  O       -0.4387840     2.7607480     0.8353900
  O       -2.1331470    -1.1223190    -0.8372800
  N       -1.8213880     1.6463300    -0.5966440
  N       -1.3631050    -2.2953590     0.9499780
  C        0.3116424     0.6383466     0.0506224
  C        0.1273570    -0.7062790    -0.0589400
  C        1.6757520     1.1521170    -0.0434370
  C        1.2227880    -1.5827320    -0.1454420
  C        2.7536970     0.2775120    -0.1531960
  C        2.5274700    -1.0985820    -0.2079210
  C       -0.6853200     1.7746360     0.1326930
  C       -1.2296110    -1.3487220    -0.0223170
  H        1.8350890     2.2234210     0.0367700
  H        1.0390000    -2.6541090    -0.1799310
  H        3.7675570     0.6687350    -0.1864300
  H        3.3600860    -1.7923230    -0.2949860
  H       -2.0668670     0.7647910    -1.0387640
  H       -2.5394600     2.3415160    -0.4355780
  H       -0.7232160    -2.3232030     1.7312060
  H       -2.2766340    -2.7186030     1.0611610
units angstrom
no_reorient  #important for SAPT in psi4, default
symmetry c1  #important for SAPT in psi4, default
}

set PROPERTIES_ORIGIN ["COM"]
properties('MP2/aug-cc-pvtz', properties = ['dipole'])
--------------------------------------------------------------------------

    Molecular point group: c1
  Charge       = 0
  Multiplicity = 1
  Basis Set: AUG-CC-PVTZ
    Blend: AUG-CC-PVTZ
  Basis Set: (AUG-CC-PVTZ AUX)
    Blend: AUG-CC-PVTZ-JKFIT

    Orbital Energies [Eh]
    ---------------------

    Doubly Occupied:

       1A    -20.547681     2A    -20.515740     3A    -15.608998
       4A    -15.571962     5A    -11.385625     6A    -11.359132
       7A    -11.276729     8A    -11.273976     9A    -11.264340
      10A    -11.262621    11A    -11.262002    12A    -11.256760
      13A     -1.401955    14A     -1.370007    15A     -1.237226
      16A     -1.204154    17A     -1.175086    18A     -1.061533
      19A     -1.039052    20A     -0.906879    21A     -0.869143
      22A     -0.827752    23A     -0.785455    24A     -0.764102
      25A     -0.722789    26A     -0.703548    27A     -0.686171
      28A     -0.664951    29A     -0.649527    30A     -0.629859
      31A     -0.609032    32A     -0.591758    33A     -0.580196
      34A     -0.566987    35A     -0.532713    36A     -0.527882
      37A     -0.518136    38A     -0.454231    39A     -0.441326
      40A     -0.428632    41A     -0.402786    42A     -0.370327
      43A     -0.349666

  @DF-RHF Final Energy:  -566.46613327293994

   => Energetics <=

    Nuclear Repulsion Energy =            670.0755198844533425
    One-Electron Energy =               -2101.7664550224135382
    Two-Electron Energy =                 865.2248018650202539
    Total Energy =                       -566.4661332729399419
  Basis Set: (AUG-CC-PVTZ AUX)
    Blend: AUG-CC-PVTZ-RI
    Molecular point group: c1

    Geometry (in Angstrom), charge = 0, multiplicity = 1:

       Center              X                  Y                   Z               Mass
    ------------   -----------------  -----------------  -----------------  -----------------
         O           -0.421284745486     2.743213973501     0.833920068843    15.994914619570
         O           -2.115647745486    -1.139853026499    -0.838749931157    15.994914619570
         N           -1.803888745486     1.628795973501    -0.598113931157    14.003074004430
         N           -1.345605745486    -2.312893026499     0.948508068843    14.003074004430
         C            0.329141654514     0.620812573501     0.049152468843    12.000000000000
         C            0.144856254514    -0.723813026499    -0.060409931157    12.000000000000
         C            1.693251254514     1.134582973501    -0.044906931157    12.000000000000
         C            1.240287254514    -1.600266026499    -0.146911931157    12.000000000000
         C            2.771196254514     0.259977973501    -0.154665931157    12.000000000000
         C            2.544969254514    -1.116116026499    -0.209390931157    12.000000000000
         C           -0.667820745486     1.757101973501     0.131223068843    12.000000000000
         C           -1.212111745486    -1.366256026499    -0.023786931157    12.000000000000
         H            1.852588254514     2.205886973501     0.035300068843     1.007825032230
         H            1.056499254514    -2.671643026499    -0.181400931157     1.007825032230
         H            3.785056254514     0.651200973501    -0.187899931157     1.007825032230
         H            3.377585254514    -1.809857026499    -0.296455931157     1.007825032230
         H           -2.049367745486     0.747256973501    -1.040233931157     1.007825032230
         H           -2.521960745486     2.323981973501    -0.437047931157     1.007825032230
         H           -0.705716745486    -2.340737026499     1.729736068843     1.007825032230
         H           -2.259134745486    -2.736137026499     1.059691068843     1.007825032230

  Basis Set: AUG-CC-PVTZ
    Blend: AUG-CC-PVTZ
  Basis Set: (AUG-CC-PVTZ AUX)
    Blend: AUG-CC-PVTZ-JKFIT
	 Reference Energy          =    -566.4661332729399419 [Eh]
	 Singles Energy            =      -0.0000000000000000 [Eh]
	 Same-Spin Energy          =      -0.5966810122113644 [Eh]
	 Opposite-Spin Energy      =      -1.7899663410327671 [Eh]
	 Correlation Energy        =      -2.3866473532441317 [Eh]
	 Total Energy              =    -568.8527806261840851 [Eh]

	 ================> DF-SCS-MP2 Energies <==================
	-----------------------------------------------------------
	 SCS Same-Spin Scale       =       0.3333333333333333 [-]
	 SCS Opposite-Spin Scale   =       1.2000000000000000 [-]
	 SCS Same-Spin Energy      =      -0.1988936707371214 [Eh]
	 SCS Opposite-Spin Energy  =      -2.1479596092393205 [Eh]
	 SCS Correlation Energy    =      -2.3468532799764419 [Eh]
	 SCS Total Energy          =    -568.8129865529164135 [Eh]
	-----------------------------------------------------------

  Dipole Moment: [D]
     X:     0.9127      Y:    -4.0491      Z:     1.0218     Total:     4.2747

*** Psi4 exiting successfully. Buy a developer a beer!
