                               Psi4 1.3.2 release

  ==> Input File <==

--------------------------------------------------------------------------
#psi4
#
memory 32 gb

molecule  {
0 1
  O       -0.4387840     2.7607480     0.8353900
  O       -2.1331470    -1.1223190    -0.8372800
  N       -1.8213880     1.6463300    -0.5966440
  N       -1.3631050    -2.2953590     0.9499780
  C        0.3530890     0.6863100    -0.0267190
  C        0.1273570    -0.7062790    -0.0589400
  C        1.6757520     1.1521170    -0.0434370
  C        1.2227880    -1.5827320    -0.1454420
  C        2.7536970     0.2775120    -0.1531960
  C        2.5274700    -1.0985820    -0.2079210
  C       -0.6853200     1.7746360     0.1326930
  C       -1.2296110    -1.3487220    -0.0223170
  H        1.8350890     2.2234210     0.0367700
  H        1.0390000    -2.6541090    -0.1799310
  H        3.7675570     0.6687350    -0.1864300
  H        3.3600860    -1.7923230    -0.2949860
  H       -2.0668670     0.7647910    -1.0387640
  H       -2.5394600     2.3415160    -0.4355780
  H       -0.7232160    -2.3232030     1.7312060
  H       -2.2766340    -2.7186030     1.0611610
units angstrom
no_reorient  #important for SAPT in psi4, default
symmetry c1  #important for SAPT in psi4, default
}

set PROPERTIES_ORIGIN ["COM"]
properties('MP2/aug-cc-pvtz', properties = ['dipole'])
--------------------------------------------------------------------------

    Molecular point group: c1
  Charge       = 0
  Multiplicity = 1
  Basis Set: AUG-CC-PVTZ
    Blend: AUG-CC-PVTZ
  Basis Set: (AUG-CC-PVTZ AUX)
    Blend: AUG-CC-PVTZ-JKFIT

    Orbital Energies [Eh]
    ---------------------

    Doubly Occupied:

       1A    -20.547092     2A    -20.515318     3A    -15.608987
       4A    -15.571838     5A    -11.386286     6A    -11.357553
       7A    -11.280557     8A    -11.273271     9A    -11.265578
      10A    -11.262060    11A    -11.258439    12A    -11.255645
      13A     -1.401484    14A     -1.369566    15A     -1.236889
      16A     -1.203603    17A     -1.174968    18A     -1.055359
      19A     -1.046701    20A     -0.908364    21A     -0.869095
      22A     -0.822394    23A     -0.787480    24A     -0.763923
      25A     -0.724102    26A     -0.702711    27A     -0.686502
      28A     -0.659539    29A     -0.649119    30A     -0.631784
      31A     -0.610967    32A     -0.592821    33A     -0.581012
      34A     -0.566461    35A     -0.538922    36A     -0.523079
      37A     -0.517308    38A     -0.455860    39A     -0.440970
      40A     -0.429023    41A     -0.402504    42A     -0.362891
      43A     -0.356321

  @DF-RHF Final Energy:  -566.47184488640698

   => Energetics <=

    Nuclear Repulsion Energy =            669.8015618082135916
    One-Electron Energy =               -2101.2381214183519660
    Two-Electron Energy =                 864.9647147237313902
    Total Energy =                       -566.4718448864069842
  Basis Set: (AUG-CC-PVTZ AUX)
    Blend: AUG-CC-PVTZ-RI
    Molecular point group: c1

    Geometry (in Angstrom), charge = 0, multiplicity = 1:

       Center              X                  Y                   Z               Mass
    ------------   -----------------  -----------------  -----------------  -----------------
         O           -0.424316340710     2.739705709509     0.839577175068    15.994914619570
         O           -2.118679340710    -1.143361290491    -0.833092824932    15.994914619570
         N           -1.806920340710     1.625287709509    -0.592456824932    14.003074004430
         N           -1.348637340710    -2.316401290491     0.954165175068    14.003074004430
         C            0.367556659290     0.665267709509    -0.022531824932    12.000000000000
         C            0.141824659290    -0.727321290491    -0.054752824932    12.000000000000
         C            1.690219659290     1.131074709509    -0.039249824932    12.000000000000
         C            1.237255659290    -1.603774290491    -0.141254824932    12.000000000000
         C            2.768164659290     0.256469709509    -0.149008824932    12.000000000000
         C            2.541937659290    -1.119624290491    -0.203733824932    12.000000000000
         C           -0.670852340710     1.753593709509     0.136880175068    12.000000000000
         C           -1.215143340710    -1.369764290491    -0.018129824932    12.000000000000
         H            1.849556659290     2.202378709509     0.040957175068     1.007825032230
         H            1.053467659290    -2.675151290491    -0.175743824932     1.007825032230
         H            3.782024659290     0.647692709509    -0.182242824932     1.007825032230
         H            3.374553659290    -1.813365290491    -0.290798824932     1.007825032230
         H           -2.052399340710     0.743748709509    -1.034576824932     1.007825032230
         H           -2.524992340710     2.320473709509    -0.431390824932     1.007825032230
         H           -0.708748340710    -2.344245290491     1.735393175068     1.007825032230
         H           -2.262166340710    -2.739645290491     1.065348175068     1.007825032230

  Basis Set: AUG-CC-PVTZ
    Blend: AUG-CC-PVTZ
  Basis Set: (AUG-CC-PVTZ AUX)
    Blend: AUG-CC-PVTZ-JKFIT
	 Reference Energy          =    -566.4718448864069842 [Eh]
	 Singles Energy            =      -0.0000000000000000 [Eh]
	 Same-Spin Energy          =      -0.5968148596590752 [Eh]
	 Opposite-Spin Energy      =      -1.7897061852890683 [Eh]
	 Correlation Energy        =      -2.3865210449481435 [Eh]
	 Total Energy              =    -568.8583659313551379 [Eh]

	 ================> DF-SCS-MP2 Energies <==================
	-----------------------------------------------------------
	 SCS Same-Spin Scale       =       0.3333333333333333 [-]
	 SCS Opposite-Spin Scale   =       1.2000000000000000 [-]
	 SCS Same-Spin Energy      =      -0.1989382865530251 [Eh]
	 SCS Opposite-Spin Energy  =      -2.1476474223468820 [Eh]
	 SCS Correlation Energy    =      -2.3465857088999069 [Eh]
	 SCS Total Energy          =    -568.8184305953068360 [Eh]
	-----------------------------------------------------------

  Dipole Moment: [D]
     X:     0.9298      Y:    -4.0306      Z:     1.0142     Total:     4.2590

*** Psi4 exiting successfully. Buy a developer a beer!
