                               Psi4 1.3.2 release

  ==> Input File <==

--------------------------------------------------------------------------
#psi4
#
memory 32 gb

molecule  {
0 1
  O       -0.4387840     2.7607480     0.8353900
  O       -2.1331470    -1.1223190    -0.8372800
  N       -1.8213880     1.6463300    -0.5966440
  N       -1.3631050    -2.2953590     0.9499780
  C        0.3530890     0.6863100    -0.0267190
  C        0.1273570    -0.7062790    -0.0589400
  C        1.6757520     1.1521170    -0.0434370
  C        1.2227880    -1.5827320    -0.1454420
  C        2.7536970     0.2775120    -0.1531960
  C        2.5274700    -1.0985820    -0.2079210
  C       -0.6705311     1.7602356     0.3818394
  C       -1.2296110    -1.3487220    -0.0223170
  H        1.8350890     2.2234210     0.0367700
  H        1.0390000    -2.6541090    -0.1799310
  H        3.7675570     0.6687350    -0.1864300
  H        3.3600860    -1.7923230    -0.2949860
  H       -2.0668670     0.7647910    -1.0387640
  H       -2.5394600     2.3415160    -0.4355780
  H       -0.7232160    -2.3232030     1.7312060
  H       -2.2766340    -2.7186030     1.0611610
units angstrom
no_reorient  #important for SAPT in psi4, default
symmetry c1  #important for SAPT in psi4, default
}

set PROPERTIES_ORIGIN ["COM"]
properties('MP2/aug-cc-pvtz', properties = ['dipole'])
--------------------------------------------------------------------------

    Molecular point group: c1
  Charge       = 0
  Multiplicity = 1
  Basis Set: AUG-CC-PVTZ
    Blend: AUG-CC-PVTZ
  Basis Set: (AUG-CC-PVTZ AUX)
    Blend: AUG-CC-PVTZ-JKFIT

    Orbital Energies [Eh]
    ---------------------

    Doubly Occupied:

       1A    -20.549839     2A    -20.541862     3A    -15.606210
       4A    -15.542796     5A    -11.382015     6A    -11.360815
       7A    -11.279743     8A    -11.274573     9A    -11.265638
      10A    -11.262597    11A    -11.259604    12A    -11.257202
      13A     -1.461491    14A     -1.395938    15A     -1.233826
      16A     -1.180048    17A     -1.140759    18A     -1.053937
      19A     -1.046412    20A     -0.905536    21A     -0.864737
      22A     -0.819267    23A     -0.775850    24A     -0.753886
      25A     -0.714112    26A     -0.696626    27A     -0.673182
      28A     -0.667310    29A     -0.651246    30A     -0.640526
      31A     -0.617889    32A     -0.604560    33A     -0.588810
      34A     -0.578864    35A     -0.548615    36A     -0.526577
      37A     -0.517656    38A     -0.451739    39A     -0.437405
      40A     -0.425807    41A     -0.392877    42A     -0.361896
      43A     -0.357319

  @DF-RHF Final Energy:  -566.42768087965419

   => Energetics <=

    Nuclear Repulsion Energy =            669.5644703167621401
    One-Electron Energy =               -2100.6491129479936717
    Two-Electron Energy =                 864.6569617515772279
    Total Energy =                       -566.4276808796541900
  Basis Set: (AUG-CC-PVTZ AUX)
    Blend: AUG-CC-PVTZ-RI
    Molecular point group: c1

    Geometry (in Angstrom), charge = 0, multiplicity = 1:

       Center              X                  Y                   Z               Mass
    ------------   -----------------  -----------------  -----------------  -----------------
         O           -0.425398068973     2.740759021093     0.821353459823    15.994914619570
         O           -2.119761068973    -1.142307978907    -0.851316540177    15.994914619570
         N           -1.808002068973     1.626341021093    -0.610680540177    14.003074004430
         N           -1.349719068973    -2.315347978907     0.935941459823    14.003074004430
         C            0.366474931027     0.666321021093    -0.040755540177    12.000000000000
         C            0.140742931027    -0.726267978907    -0.072976540177    12.000000000000
         C            1.689137931027     1.132128021093    -0.057473540177    12.000000000000
         C            1.236173931027    -1.602720978907    -0.159478540177    12.000000000000
         C            2.767082931027     0.257523021093    -0.167232540177    12.000000000000
         C            2.540855931027    -1.118570978907    -0.221957540177    12.000000000000
         C           -0.657145168973     1.740246621093     0.367802859823    12.000000000000
         C           -1.216225068973    -1.368710978907    -0.036353540177    12.000000000000
         H            1.848474931027     2.203432021093     0.022733459823     1.007825032230
         H            1.052385931027    -2.674097978907    -0.193967540177     1.007825032230
         H            3.780942931027     0.648746021093    -0.200466540177     1.007825032230
         H            3.373471931027    -1.812311978907    -0.309022540177     1.007825032230
         H           -2.053481068973     0.744802021093    -1.052800540177     1.007825032230
         H           -2.526074068973     2.321527021093    -0.449614540177     1.007825032230
         H           -0.709830068973    -2.343191978907     1.717169459823     1.007825032230
         H           -2.263248068973    -2.738591978907     1.047124459823     1.007825032230

  Basis Set: AUG-CC-PVTZ
    Blend: AUG-CC-PVTZ
  Basis Set: (AUG-CC-PVTZ AUX)
    Blend: AUG-CC-PVTZ-JKFIT
	 Reference Energy          =    -566.4276808796541900 [Eh]
	 Singles Energy            =      -0.0000000000000000 [Eh]
	 Same-Spin Energy          =      -0.5960700650450376 [Eh]
	 Opposite-Spin Energy      =      -1.7899711431684200 [Eh]
	 Correlation Energy        =      -2.3860412082134577 [Eh]
	 Total Energy              =    -568.8137220878676317 [Eh]

	 ================> DF-SCS-MP2 Energies <==================
	-----------------------------------------------------------
	 SCS Same-Spin Scale       =       0.3333333333333333 [-]
	 SCS Opposite-Spin Scale   =       1.2000000000000000 [-]
	 SCS Same-Spin Energy      =      -0.1986900216816792 [Eh]
	 SCS Opposite-Spin Energy  =      -2.1479653718021039 [Eh]
	 SCS Correlation Energy    =      -2.3466553934837830 [Eh]
	 SCS Total Energy          =    -568.7743362731379193 [Eh]
	-----------------------------------------------------------

  Dipole Moment: [D]
     X:     1.6975      Y:    -3.5432      Z:     2.0121     Total:     4.4141

*** Psi4 exiting successfully. Buy a developer a beer!
