                               Psi4 1.3.2 release

  ==> Input File <==

--------------------------------------------------------------------------
#psi4
#
memory 32 gb

molecule  {
0 1
  O       -0.4387840     2.7607480     0.8353900
  O       -2.1331470    -1.1223190    -0.8372800
  N       -1.8213880     1.6463300    -0.5966440
  N       -1.3631050    -2.2953590     0.9499780
  C        0.2909191     0.6143649     0.0892931
  C        0.1273570    -0.7062790    -0.0589400
  C        1.6757520     1.1521170    -0.0434370
  C        1.2227880    -1.5827320    -0.1454420
  C        2.7536970     0.2775120    -0.1531960
  C        2.5274700    -1.0985820    -0.2079210
  C       -0.6853200     1.7746360     0.1326930
  C       -1.2296110    -1.3487220    -0.0223170
  H        1.8350890     2.2234210     0.0367700
  H        1.0390000    -2.6541090    -0.1799310
  H        3.7675570     0.6687350    -0.1864300
  H        3.3600860    -1.7923230    -0.2949860
  H       -2.0668670     0.7647910    -1.0387640
  H       -2.5394600     2.3415160    -0.4355780
  H       -0.7232160    -2.3232030     1.7312060
  H       -2.2766340    -2.7186030     1.0611610
units angstrom
no_reorient  #important for SAPT in psi4, default
symmetry c1  #important for SAPT in psi4, default
}

set PROPERTIES_ORIGIN ["COM"]
properties('MP2/aug-cc-pvtz', properties = ['dipole'])
--------------------------------------------------------------------------

    Molecular point group: c1
  Charge       = 0
  Multiplicity = 1
  Basis Set: AUG-CC-PVTZ
    Blend: AUG-CC-PVTZ
  Basis Set: (AUG-CC-PVTZ AUX)
    Blend: AUG-CC-PVTZ-JKFIT

    Orbital Energies [Eh]
    ---------------------

    Doubly Occupied:

       1A    -20.547896     2A    -20.516017     3A    -15.608953
       4A    -15.572009     5A    -11.385213     6A    -11.360194
       7A    -11.275346     8A    -11.273734     9A    -11.264854
      10A    -11.264009    11A    -11.262771    12A    -11.256059
      13A     -1.402130    14A     -1.370197    15A     -1.237368
      16A     -1.204393    17A     -1.175364    18A     -1.064592
      19A     -1.035339    20A     -0.905894    21A     -0.869049
      22A     -0.830116    23A     -0.784359    24A     -0.764030
      25A     -0.722110    26A     -0.704029    27A     -0.685936
      28A     -0.667122    29A     -0.649739    30A     -0.629003
      31A     -0.608279    32A     -0.591128    33A     -0.579510
      34A     -0.567135    35A     -0.531562    36A     -0.527248
      37A     -0.518359    38A     -0.453124    39A     -0.441449
      40A     -0.428054    41A     -0.402922    42A     -0.374217
      43A     -0.346657

  @DF-RHF Final Energy:  -566.45869606965175

   => Energetics <=

    Nuclear Repulsion Energy =            670.1621124984799280
    One-Electron Energy =               -2101.9266725870738810
    Two-Electron Energy =                 865.3058640189422022
    Total Energy =                       -566.4586960696517508
  Basis Set: (AUG-CC-PVTZ AUX)
    Blend: AUG-CC-PVTZ-RI
    Molecular point group: c1

    Geometry (in Angstrom), charge = 0, multiplicity = 1:

       Center              X                  Y                   Z               Mass
    ------------   -----------------  -----------------  -----------------  -----------------
         O           -0.419768947874     2.744968105497     0.831091515731    15.994914619570
         O           -2.114131947874    -1.138098894503    -0.841578484269    15.994914619570
         N           -1.802372947874     1.630550105497    -0.600942484269    14.003074004430
         N           -1.344089947874    -2.311138894503     0.945679515731    14.003074004430
         C            0.309934152126     0.598585005497     0.084994615731    12.000000000000
         C            0.146372052126    -0.722058894503    -0.063238484269    12.000000000000
         C            1.694767052126     1.136337105497    -0.047735484269    12.000000000000
         C            1.241803052126    -1.598511894503    -0.149740484269    12.000000000000
         C            2.772712052126     0.261732105497    -0.157494484269    12.000000000000
         C            2.546485052126    -1.114361894503    -0.212219484269    12.000000000000
         C           -0.666304947874     1.758856105497     0.128394515731    12.000000000000
         C           -1.210595947874    -1.364501894503    -0.026615484269    12.000000000000
         H            1.854104052126     2.207641105497     0.032471515731     1.007825032230
         H            1.058015052126    -2.669888894503    -0.184229484269     1.007825032230
         H            3.786572052126     0.652955105497    -0.190728484269     1.007825032230
         H            3.379101052126    -1.808102894503    -0.299284484269     1.007825032230
         H           -2.047851947874     0.749011105497    -1.043062484269     1.007825032230
         H           -2.520444947874     2.325736105497    -0.439876484269     1.007825032230
         H           -0.704200947874    -2.338982894503     1.726907515731     1.007825032230
         H           -2.257618947874    -2.734382894503     1.056862515731     1.007825032230

  Basis Set: AUG-CC-PVTZ
    Blend: AUG-CC-PVTZ
  Basis Set: (AUG-CC-PVTZ AUX)
    Blend: AUG-CC-PVTZ-JKFIT
	 Reference Energy          =    -566.4586960696517508 [Eh]
	 Singles Energy            =      -0.0000000000000000 [Eh]
	 Same-Spin Energy          =      -0.5966063275815181 [Eh]
	 Opposite-Spin Energy      =      -1.7903509820369901 [Eh]
	 Correlation Energy        =      -2.3869573096185084 [Eh]
	 Total Energy              =    -568.8456533792702885 [Eh]

	 ================> DF-SCS-MP2 Energies <==================
	-----------------------------------------------------------
	 SCS Same-Spin Scale       =       0.3333333333333333 [-]
	 SCS Opposite-Spin Scale   =       1.2000000000000000 [-]
	 SCS Same-Spin Energy      =      -0.1988687758605060 [Eh]
	 SCS Opposite-Spin Energy  =      -2.1484211784443881 [Eh]
	 SCS Correlation Energy    =      -2.3472899543048942 [Eh]
	 SCS Total Energy          =    -568.8059860239566206 [Eh]
	-----------------------------------------------------------

  Dipole Moment: [D]
     X:     0.9066      Y:    -4.0584      Z:     1.0254     Total:     4.2830

*** Psi4 exiting successfully. Buy a developer a beer!
