                               Psi4 1.3.2 release

  ==> Input File <==

--------------------------------------------------------------------------
#psi4
#
memory 32 gb

molecule  {
0 1
  O       -0.4387840     2.7607480     0.8353900
  O       -2.1331470    -1.1223190    -0.8372800
  N       -1.8213880     1.6463300    -0.5966440
  N       -1.3631050    -2.2953590     0.9499780
  C        0.3530890     0.6863100    -0.0267190
  C        0.1273570    -0.7062790    -0.0589400
  C        1.6757520     1.1521170    -0.0434370
  C        1.2227880    -1.5827320    -0.1454420
  C        2.7536970     0.2775120    -0.1531960
  C        2.5274700    -1.0985820    -0.2079210
  C       -0.6764467     1.7659958     0.2821808
  C       -1.2296110    -1.3487220    -0.0223170
  H        1.8350890     2.2234210     0.0367700
  H        1.0390000    -2.6541090    -0.1799310
  H        3.7675570     0.6687350    -0.1864300
  H        3.3600860    -1.7923230    -0.2949860
  H       -2.0668670     0.7647910    -1.0387640
  H       -2.5394600     2.3415160    -0.4355780
  H       -0.7232160    -2.3232030     1.7312060
  H       -2.2766340    -2.7186030     1.0611610
units angstrom
no_reorient  #important for SAPT in psi4, default
symmetry c1  #important for SAPT in psi4, default
}

set PROPERTIES_ORIGIN ["COM"]
properties('MP2/aug-cc-pvtz', properties = ['dipole'])
--------------------------------------------------------------------------

    Molecular point group: c1
  Charge       = 0
  Multiplicity = 1
  Basis Set: AUG-CC-PVTZ
    Blend: AUG-CC-PVTZ
  Basis Set: (AUG-CC-PVTZ AUX)
    Blend: AUG-CC-PVTZ-JKFIT

    Orbital Energies [Eh]
    ---------------------

    Doubly Occupied:

       1A    -20.543936     2A    -20.535958     3A    -15.607331
       4A    -15.554089     5A    -11.383733     6A    -11.358883
       7A    -11.280185     8A    -11.273004     9A    -11.265616
      10A    -11.262475    11A    -11.259159    12A    -11.256661
      13A     -1.424800    14A     -1.398024    15A     -1.235050
      16A     -1.182899    17A     -1.161436    18A     -1.054648
      19A     -1.046870    20A     -0.906927    21A     -0.866565
      22A     -0.820358    23A     -0.779076    24A     -0.757000
      25A     -0.716050    26A     -0.698775    27A     -0.677226
      28A     -0.662683    29A     -0.646713    30A     -0.641479
      31A     -0.614915    32A     -0.603324    33A     -0.580537
      34A     -0.577434    35A     -0.544397    36A     -0.525800
      37A     -0.517237    38A     -0.453536    39A     -0.439676
      40A     -0.430965    41A     -0.399618    42A     -0.362527
      43A     -0.357942

  @DF-RHF Final Energy:  -566.45677152036274

   => Energetics <=

    Nuclear Repulsion Energy =            669.7710946705033166
    One-Electron Energy =               -2101.1247018564959035
    Two-Electron Energy =                 864.8968356656298511
    Total Energy =                       -566.4567715203627358
  Basis Set: (AUG-CC-PVTZ AUX)
    Blend: AUG-CC-PVTZ-RI
    Molecular point group: c1

    Geometry (in Angstrom), charge = 0, multiplicity = 1:

       Center              X                  Y                   Z               Mass
    ------------   -----------------  -----------------  -----------------  -----------------
         O           -0.424965374742     2.740337693533     0.828642948847    15.994914619570
         O           -2.119328374742    -1.142729306467    -0.844027051153    15.994914619570
         N           -1.807569374742     1.625919693533    -0.603391051153    14.003074004430
         N           -1.349286374742    -2.315769306467     0.943230948847    14.003074004430
         C            0.366907625258     0.665899693533    -0.033466051153    12.000000000000
         C            0.141175625258    -0.726689306467    -0.065687051153    12.000000000000
         C            1.689570625258     1.131706693533    -0.050184051153    12.000000000000
         C            1.236606625258    -1.603142306467    -0.152189051153    12.000000000000
         C            2.767515625258     0.257101693533    -0.159943051153    12.000000000000
         C            2.541288625258    -1.118992306467    -0.214668051153    12.000000000000
         C           -0.662628074742     1.745585493533     0.275433748847    12.000000000000
         C           -1.215792374742    -1.369132306467    -0.029064051153    12.000000000000
         H            1.848907625258     2.203010693533     0.030022948847     1.007825032230
         H            1.052818625258    -2.674519306467    -0.186678051153     1.007825032230
         H            3.781375625258     0.648324693533    -0.193177051153     1.007825032230
         H            3.373904625258    -1.812733306467    -0.301733051153     1.007825032230
         H           -2.053048374742     0.744380693533    -1.045511051153     1.007825032230
         H           -2.525641374742     2.321105693533    -0.442325051153     1.007825032230
         H           -0.709397374742    -2.343613306467     1.724458948847     1.007825032230
         H           -2.262815374742    -2.739013306467     1.054413948847     1.007825032230

  Basis Set: AUG-CC-PVTZ
    Blend: AUG-CC-PVTZ
  Basis Set: (AUG-CC-PVTZ AUX)
    Blend: AUG-CC-PVTZ-JKFIT
	 Reference Energy          =    -566.4567715203627358 [Eh]
	 Singles Energy            =      -0.0000000000000000 [Eh]
	 Same-Spin Energy          =      -0.5960263200038725 [Eh]
	 Opposite-Spin Energy      =      -1.7889937130716418 [Eh]
	 Correlation Energy        =      -2.3850200330755142 [Eh]
	 Total Energy              =    -568.8417915534382701 [Eh]

	 ================> DF-SCS-MP2 Energies <==================
	-----------------------------------------------------------
	 SCS Same-Spin Scale       =       0.3333333333333333 [-]
	 SCS Opposite-Spin Scale   =       1.2000000000000000 [-]
	 SCS Same-Spin Energy      =      -0.1986754400012908 [Eh]
	 SCS Opposite-Spin Energy  =      -2.1467924556859699 [Eh]
	 SCS Correlation Energy    =      -2.3454678956872606 [Eh]
	 SCS Total Energy          =    -568.8022394160500426 [Eh]
	-----------------------------------------------------------

  Dipole Moment: [D]
     X:     1.3928      Y:    -3.7411      Z:     1.6019     Total:     4.3014

*** Psi4 exiting successfully. Buy a developer a beer!
