                               Psi4 1.3.2 release

  ==> Input File <==

--------------------------------------------------------------------------
#psi4
#
memory 32 gb

molecule  {
0 1
  O       -0.4387840     2.7607480     0.8353900
  O       -2.1331470    -1.1223190    -0.8372800
  N       -1.8213880     1.6463300    -0.5966440
  N       -1.3631050    -2.2953590     0.9499780
  C        0.2494725     0.5664015     0.1666345
  C        0.1273570    -0.7062790    -0.0589400
  C        1.6757520     1.1521170    -0.0434370
  C        1.2227880    -1.5827320    -0.1454420
  C        2.7536970     0.2775120    -0.1531960
  C        2.5274700    -1.0985820    -0.2079210
  C       -0.6853200     1.7746360     0.1326930
  C       -1.2296110    -1.3487220    -0.0223170
  H        1.8350890     2.2234210     0.0367700
  H        1.0390000    -2.6541090    -0.1799310
  H        3.7675570     0.6687350    -0.1864300
  H        3.3600860    -1.7923230    -0.2949860
  H       -2.0668670     0.7647910    -1.0387640
  H       -2.5394600     2.3415160    -0.4355780
  H       -0.7232160    -2.3232030     1.7312060
  H       -2.2766340    -2.7186030     1.0611610
units angstrom
no_reorient  #important for SAPT in psi4, default
symmetry c1  #important for SAPT in psi4, default
}

set PROPERTIES_ORIGIN ["COM"]
properties('MP2/aug-cc-pvtz', properties = ['dipole'])
--------------------------------------------------------------------------

    Molecular point group: c1
  Charge       = 0
  Multiplicity = 1
  Basis Set: AUG-CC-PVTZ
    Blend: AUG-CC-PVTZ
  Basis Set: (AUG-CC-PVTZ AUX)
    Blend: AUG-CC-PVTZ-JKFIT

    Orbital Energies [Eh]
    ---------------------

    Doubly Occupied:

       1A    -20.548195     2A    -20.516686     3A    -15.608794
       4A    -15.572099     5A    -11.384307     6A    -11.362859
       7A    -11.275286     8A    -11.270815     9A    -11.269959
      10A    -11.264862    11A    -11.261924    12A    -11.254682
      13A     -1.402401    14A     -1.370505    15A     -1.237643
      16A     -1.204812    17A     -1.176282    18A     -1.070529
      19A     -1.028296    20A     -0.903428    21A     -0.868847
      22A     -0.833667    23A     -0.782197    24A     -0.763613
      25A     -0.720857    26A     -0.705031    27A     -0.685327
      28A     -0.670429    29A     -0.650184    30A     -0.627544
      31A     -0.607281    32A     -0.589916    33A     -0.577689
      34A     -0.567194    35A     -0.534414    36A     -0.518980
      37A     -0.518393    38A     -0.450309    39A     -0.441605
      40A     -0.425880    41A     -0.403178    42A     -0.381940
      43A     -0.341389

  @DF-RHF Final Energy:  -566.43532001074141

   => Energetics <=

    Nuclear Repulsion Energy =            670.2312405019243897
    One-Electron Energy =               -2102.0326747313524720
    Two-Electron Energy =                 865.3661142186867892
    Total Energy =                       -566.4353200107414068
  Basis Set: (AUG-CC-PVTZ AUX)
    Blend: AUG-CC-PVTZ-RI
    Molecular point group: c1

    Geometry (in Angstrom), charge = 0, multiplicity = 1:

       Center              X                  Y                   Z               Mass
    ------------   -----------------  -----------------  -----------------  -----------------
         O           -0.416737352651     2.748476369489     0.825434409506    15.994914619570
         O           -2.111100352651    -1.134590630511    -0.847235590494    15.994914619570
         N           -1.799341352651     1.634058369489    -0.606599590494    14.003074004430
         N           -1.341058352651    -2.307630630511     0.940022409506    14.003074004430
         C            0.271519147349     0.554129869489     0.156678909506    12.000000000000
         C            0.149403647349    -0.718550630511    -0.068895590494    12.000000000000
         C            1.697798647349     1.139845369489    -0.053392590494    12.000000000000
         C            1.244834647349    -1.595003630511    -0.155397590494    12.000000000000
         C            2.775743647349     0.265240369489    -0.163151590494    12.000000000000
         C            2.549516647349    -1.110853630511    -0.217876590494    12.000000000000
         C           -0.663273352651     1.762364369489     0.122737409506    12.000000000000
         C           -1.207564352651    -1.360993630511    -0.032272590494    12.000000000000
         H            1.857135647349     2.211149369489     0.026814409506     1.007825032230
         H            1.061046647349    -2.666380630511    -0.189886590494     1.007825032230
         H            3.789603647349     0.656463369489    -0.196385590494     1.007825032230
         H            3.382132647349    -1.804594630511    -0.304941590494     1.007825032230
         H           -2.044820352651     0.752519369489    -1.048719590494     1.007825032230
         H           -2.517413352651     2.329244369489    -0.445533590494     1.007825032230
         H           -0.701169352651    -2.335474630511     1.721250409506     1.007825032230
         H           -2.254587352651    -2.730874630511     1.051205409506     1.007825032230

  Basis Set: AUG-CC-PVTZ
    Blend: AUG-CC-PVTZ
  Basis Set: (AUG-CC-PVTZ AUX)
    Blend: AUG-CC-PVTZ-JKFIT
	 Reference Energy          =    -566.4353200107414068 [Eh]
	 Singles Energy            =      -0.0000000000000000 [Eh]
	 Same-Spin Energy          =      -0.5965593215733261 [Eh]
	 Opposite-Spin Energy      =      -1.7918021313674461 [Eh]
	 Correlation Energy        =      -2.3883614529407722 [Eh]
	 Total Energy              =    -568.8236814636821919 [Eh]

	 ================> DF-SCS-MP2 Energies <==================
	-----------------------------------------------------------
	 SCS Same-Spin Scale       =       0.3333333333333333 [-]
	 SCS Opposite-Spin Scale   =       1.2000000000000000 [-]
	 SCS Same-Spin Energy      =      -0.1988531071911087 [Eh]
	 SCS Opposite-Spin Energy  =      -2.1501625576409351 [Eh]
	 SCS Correlation Energy    =      -2.3490156648320437 [Eh]
	 SCS Total Energy          =    -568.7843356755734021 [Eh]
	-----------------------------------------------------------

  Dipole Moment: [D]
     X:     0.8979      Y:    -4.0770      Z:     1.0313     Total:     4.3002

*** Psi4 exiting successfully. Buy a developer a beer!
