                               Psi4 1.3.2 release

  ==> Input File <==

--------------------------------------------------------------------------
#psi4
#
memory 32 gb

molecule  {
0 1
  O       -0.4387840     2.7607480     0.8353900
  O       -2.1331470    -1.1223190    -0.8372800
  N       -1.8213880     1.6463300    -0.5966440
  N       -1.3631050    -2.2953590     0.9499780
  C        0.3323657     0.6623283     0.0119517
  C        0.1273570    -0.7062790    -0.0589400
  C        1.6757520     1.1521170    -0.0434370
  C        1.2227880    -1.5827320    -0.1454420
  C        2.7536970     0.2775120    -0.1531960
  C        2.5274700    -1.0985820    -0.2079210
  C       -0.6853200     1.7746360     0.1326930
  C       -1.2296110    -1.3487220    -0.0223170
  H        1.8350890     2.2234210     0.0367700
  H        1.0390000    -2.6541090    -0.1799310
  H        3.7675570     0.6687350    -0.1864300
  H        3.3600860    -1.7923230    -0.2949860
  H       -2.0668670     0.7647910    -1.0387640
  H       -2.5394600     2.3415160    -0.4355780
  H       -0.7232160    -2.3232030     1.7312060
  H       -2.2766340    -2.7186030     1.0611610
units angstrom
no_reorient  #important for SAPT in psi4, default
symmetry c1  #important for SAPT in psi4, default
}

set PROPERTIES_ORIGIN ["COM"]
properties('MP2/aug-cc-pvtz', properties = ['dipole'])
--------------------------------------------------------------------------

    Molecular point group: c1
  Charge       = 0
  Multiplicity = 1
  Basis Set: AUG-CC-PVTZ
    Blend: AUG-CC-PVTZ
  Basis Set: (AUG-CC-PVTZ AUX)
    Blend: AUG-CC-PVTZ-JKFIT

    Orbital Energies [Eh]
    ---------------------

    Doubly Occupied:

       1A    -20.547414     2A    -20.515505     3A    -15.609011
       4A    -15.571906     5A    -11.385988     6A    -11.358251
       7A    -11.278609     8A    -11.273701     9A    -11.264932
      10A    -11.262311    11A    -11.259148    12A    -11.257331
      13A     -1.401742    14A     -1.369795    15A     -1.237070
      16A     -1.203891    17A     -1.174951    18A     -1.058446
      19A     -1.042850    20A     -0.907699    21A     -0.869175
      22A     -0.825136    23A     -0.786513    24A     -0.764069
      25A     -0.723464    26A     -0.703105    27A     -0.686360
      28A     -0.662421    29A     -0.649321    30A     -0.630791
      31A     -0.609943    32A     -0.592337    33A     -0.580695
      34A     -0.566759    35A     -0.535882    36A     -0.525758
      37A     -0.517812    38A     -0.455139    39A     -0.441167
      40A     -0.428944    41A     -0.402646    42A     -0.366517
      43A     -0.352911

  @DF-RHF Final Energy:  -566.47054604058076

   => Energetics <=

    Nuclear Repulsion Energy =            669.9551697634265111
    One-Electron Energy =               -2101.5365952197544175
    Two-Electron Energy =                 865.1108794157471493
    Total Energy =                       -566.4705460405807571
  Basis Set: (AUG-CC-PVTZ AUX)
    Blend: AUG-CC-PVTZ-RI
    Molecular point group: c1

    Geometry (in Angstrom), charge = 0, multiplicity = 1:

       Center              X                  Y                   Z               Mass
    ------------   -----------------  -----------------  -----------------  -----------------
         O           -0.422800543098     2.741459841505     0.836748621956    15.994914619570
         O           -2.117163543098    -1.141607158495    -0.835921378044    15.994914619570
         N           -1.805404543098     1.627041841505    -0.595285378044    14.003074004430
         N           -1.347121543098    -2.314647158495     0.951336621956    14.003074004430
         C            0.348349156902     0.643040141505     0.013310321956    12.000000000000
         C            0.143340456902    -0.725567158495    -0.057581378044    12.000000000000
         C            1.691735456902     1.132828841505    -0.042078378044    12.000000000000
         C            1.238771456902    -1.602020158495    -0.144083378044    12.000000000000
         C            2.769680456902     0.258223841505    -0.151837378044    12.000000000000
         C            2.543453456902    -1.117870158495    -0.206562378044    12.000000000000
         C           -0.669336543098     1.755347841505     0.134051621956    12.000000000000
         C           -1.213627543098    -1.368010158495    -0.020958378044    12.000000000000
         H            1.851072456902     2.204132841505     0.038128621956     1.007825032230
         H            1.054983456902    -2.673397158495    -0.178572378044     1.007825032230
         H            3.783540456902     0.649446841505    -0.185071378044     1.007825032230
         H            3.376069456902    -1.811611158495    -0.293627378044     1.007825032230
         H           -2.050883543098     0.745502841505    -1.037405378044     1.007825032230
         H           -2.523476543098     2.322227841505    -0.434219378044     1.007825032230
         H           -0.707232543098    -2.342491158495     1.732564621956     1.007825032230
         H           -2.260650543098    -2.737891158495     1.062519621956     1.007825032230

  Basis Set: AUG-CC-PVTZ
    Blend: AUG-CC-PVTZ
  Basis Set: (AUG-CC-PVTZ AUX)
    Blend: AUG-CC-PVTZ-JKFIT
	 Reference Energy          =    -566.4705460405807571 [Eh]
	 Singles Energy            =      -0.0000000000000000 [Eh]
	 Same-Spin Energy          =      -0.5967568387124961 [Eh]
	 Opposite-Spin Energy      =      -1.7897748769101209 [Eh]
	 Correlation Energy        =      -2.3865317156226169 [Eh]
	 Total Energy              =    -568.8570777562033527 [Eh]

	 ================> DF-SCS-MP2 Energies <==================
	-----------------------------------------------------------
	 SCS Same-Spin Scale       =       0.3333333333333333 [-]
	 SCS Opposite-Spin Scale   =       1.2000000000000000 [-]
	 SCS Same-Spin Energy      =      -0.1989189462374987 [Eh]
	 SCS Opposite-Spin Energy  =      -2.1477298522921449 [Eh]
	 SCS Correlation Energy    =      -2.3466487985296434 [Eh]
	 SCS Total Energy          =    -568.8171948391103570 [Eh]
	-----------------------------------------------------------

  Dipole Moment: [D]
     X:     0.9203      Y:    -4.0399      Z:     1.0180     Total:     4.2667

*** Psi4 exiting successfully. Buy a developer a beer!
