                               Psi4 1.3.2 release

  ==> Input File <==

--------------------------------------------------------------------------
#psi4
#
memory 32 gb

molecule  {
0 1
  O       -0.4387840     2.7607480     0.8353900
  O       -2.1331470    -1.1223190    -0.8372800
  N       -1.8213880     1.6463300    -0.5966440
  N       -1.3631050    -2.2953590     0.9499780
  C        0.3530890     0.6863100    -0.0267190
  C        0.1273570    -0.7062790    -0.0589400
  C        1.6757520     1.1521170    -0.0434370
  C        1.2227880    -1.5827320    -0.1454420
  C        2.7536970     0.2775120    -0.1531960
  C        2.5274700    -1.0985820    -0.2079210
  C       -0.6794044     1.7688759     0.2323516
  C       -1.2296110    -1.3487220    -0.0223170
  H        1.8350890     2.2234210     0.0367700
  H        1.0390000    -2.6541090    -0.1799310
  H        3.7675570     0.6687350    -0.1864300
  H        3.3600860    -1.7923230    -0.2949860
  H       -2.0668670     0.7647910    -1.0387640
  H       -2.5394600     2.3415160    -0.4355780
  H       -0.7232160    -2.3232030     1.7312060
  H       -2.2766340    -2.7186030     1.0611610
units angstrom
no_reorient  #important for SAPT in psi4, default
symmetry c1  #important for SAPT in psi4, default
}

set PROPERTIES_ORIGIN ["COM"]
properties('MP2/aug-cc-pvtz', properties = ['dipole'])
--------------------------------------------------------------------------

    Molecular point group: c1
  Charge       = 0
  Multiplicity = 1
  Basis Set: AUG-CC-PVTZ
    Blend: AUG-CC-PVTZ
  Basis Set: (AUG-CC-PVTZ AUX)
    Blend: AUG-CC-PVTZ-JKFIT

    Orbital Energies [Eh]
    ---------------------

    Doubly Occupied:

       1A    -20.544988     2A    -20.529034     3A    -15.607890
       4A    -15.559911     5A    -11.384595     6A    -11.358269
       7A    -11.280364     8A    -11.272758     9A    -11.265612
      10A    -11.262378    11A    -11.258933    12A    -11.256362
      13A     -1.406245    14A     -1.398797    15A     -1.235664
      16A     -1.187079    17A     -1.169173    18A     -1.054951
      19A     -1.046932    20A     -0.907504    21A     -0.867429
      22A     -0.820956    23A     -0.781335    24A     -0.759117
      25A     -0.718154    26A     -0.700068    27A     -0.680195
      28A     -0.661118    29A     -0.646782    30A     -0.638561
      31A     -0.613153    32A     -0.601649    33A     -0.580808
      34A     -0.573039    35A     -0.542140    36A     -0.525175
      37A     -0.517127    38A     -0.454353    39A     -0.440348
      40A     -0.431664    41A     -0.401738    42A     -0.362782
      43A     -0.357718

  @DF-RHF Final Energy:  -566.46586100994023

   => Energetics <=

    Nuclear Repulsion Energy =            669.8158958482633807
    One-Electron Energy =               -2101.2378175256799295
    Two-Electron Energy =                 864.9560606674763221
    Total Energy =                       -566.4658610099402267
  Basis Set: (AUG-CC-PVTZ AUX)
    Blend: AUG-CC-PVTZ-RI
    Molecular point group: c1

    Geometry (in Angstrom), charge = 0, multiplicity = 1:

       Center              X                  Y                   Z               Mass
    ------------   -----------------  -----------------  -----------------  -----------------
         O           -0.424749034941     2.740127029754     0.832287686044    15.994914619570
         O           -2.119112034941    -1.142939970246    -0.840382313956    15.994914619570
         N           -1.807353034941     1.625709029754    -0.599746313956    14.003074004430
         N           -1.349070034941    -2.315979970246     0.946875686044    14.003074004430
         C            0.367123965059     0.665689029754    -0.029821313956    12.000000000000
         C            0.141391965059    -0.726899970246    -0.062042313956    12.000000000000
         C            1.689786965059     1.131496029754    -0.046539313956    12.000000000000
         C            1.236822965059    -1.603352970246    -0.148544313956    12.000000000000
         C            2.767731965059     0.256891029754    -0.156298313956    12.000000000000
         C            2.541504965059    -1.119202970246    -0.211023313956    12.000000000000
         C           -0.665369434941     1.748254929754     0.229249286044    12.000000000000
         C           -1.215576034941    -1.369342970246    -0.025419313956    12.000000000000
         H            1.849123965059     2.202800029754     0.033667686044     1.007825032230
         H            1.053034965059    -2.674729970246    -0.183033313956     1.007825032230
         H            3.781591965059     0.648114029754    -0.189532313956     1.007825032230
         H            3.374120965059    -1.812943970246    -0.298088313956     1.007825032230
         H           -2.052832034941     0.744170029754    -1.041866313956     1.007825032230
         H           -2.525425034941     2.320895029754    -0.438680313956     1.007825032230
         H           -0.709181034941    -2.343823970246     1.728103686044     1.007825032230
         H           -2.262599034941    -2.739223970246     1.058058686044     1.007825032230

  Basis Set: AUG-CC-PVTZ
    Blend: AUG-CC-PVTZ
  Basis Set: (AUG-CC-PVTZ AUX)
    Blend: AUG-CC-PVTZ-JKFIT
	 Reference Energy          =    -566.4658610099402267 [Eh]
	 Singles Energy            =      -0.0000000000000000 [Eh]
	 Same-Spin Energy          =      -0.5961871815145581 [Eh]
	 Opposite-Spin Energy      =      -1.7889677702787889 [Eh]
	 Correlation Energy        =      -2.3851549517933472 [Eh]
	 Total Energy              =    -568.8510159617335376 [Eh]

	 ================> DF-SCS-MP2 Energies <==================
	-----------------------------------------------------------
	 SCS Same-Spin Scale       =       0.3333333333333333 [-]
	 SCS Opposite-Spin Scale   =       1.2000000000000000 [-]
	 SCS Same-Spin Energy      =      -0.1987290605048527 [Eh]
	 SCS Opposite-Spin Energy  =      -2.1467613243345465 [Eh]
	 SCS Correlation Energy    =      -2.3454903848393993 [Eh]
	 SCS Total Energy          =    -568.8113513947796491 [Eh]
	-----------------------------------------------------------

  Dipole Moment: [D]
     X:     1.2387      Y:    -3.8393      Z:     1.4006     Total:     4.2704

*** Psi4 exiting successfully. Buy a developer a beer!
