                               Psi4 1.3.2 release

  ==> Input File <==

--------------------------------------------------------------------------
#psi4
#
memory 32 gb

molecule  {
0 1
  O       -0.4387840     2.7607480     0.8353900
  O       -2.1331470    -1.1223190    -0.8372800
  N       -1.8213880     1.6463300    -0.5966440
  N       -1.3631050    -2.2953590     0.9499780
  C        0.3530890     0.6863100    -0.0267190
  C        0.1273570    -0.7062790    -0.0589400
  C        1.6757520     1.1521170    -0.0434370
  C        1.2227880    -1.5827320    -0.1454420
  C        2.7536970     0.2775120    -0.1531960
  C        2.5274700    -1.0985820    -0.2079210
  C       -0.6823622     1.7717559     0.1825223
  C       -1.2296110    -1.3487220    -0.0223170
  H        1.8350890     2.2234210     0.0367700
  H        1.0390000    -2.6541090    -0.1799310
  H        3.7675570     0.6687350    -0.1864300
  H        3.3600860    -1.7923230    -0.2949860
  H       -2.0668670     0.7647910    -1.0387640
  H       -2.5394600     2.3415160    -0.4355780
  H       -0.7232160    -2.3232030     1.7312060
  H       -2.2766340    -2.7186030     1.0611610
units angstrom
no_reorient  #important for SAPT in psi4, default
symmetry c1  #important for SAPT in psi4, default
}

set PROPERTIES_ORIGIN ["COM"]
properties('MP2/aug-cc-pvtz', properties = ['dipole'])
--------------------------------------------------------------------------

    Molecular point group: c1
  Charge       = 0
  Multiplicity = 1
  Basis Set: AUG-CC-PVTZ
    Blend: AUG-CC-PVTZ
  Basis Set: (AUG-CC-PVTZ AUX)
    Blend: AUG-CC-PVTZ-JKFIT

    Orbital Energies [Eh]
    ---------------------

    Doubly Occupied:

       1A    -20.546042     2A    -20.522144     3A    -15.608444
       4A    -15.565833     5A    -11.385449     6A    -11.357843
       7A    -11.280492     8A    -11.272853     9A    -11.265601
      10A    -11.262242    11A    -11.258695    12A    -11.256026
      13A     -1.400535    14A     -1.387029    15A     -1.236277
      16A     -1.194572    17A     -1.173272    18A     -1.055193
      19A     -1.046877    20A     -0.907986    21A     -0.868266
      22A     -0.821620    23A     -0.784123    24A     -0.761465
      25A     -0.720893    26A     -0.701380    27A     -0.683360
      28A     -0.660142    29A     -0.647890    30A     -0.634840
      31A     -0.611754    32A     -0.598127    33A     -0.581180
      34A     -0.569300    35A     -0.540231    36A     -0.524297
      37A     -0.517130    38A     -0.455122    39A     -0.440708
      40A     -0.431036    41A     -0.402761    42A     -0.362908
      43A     -0.357185

  @DF-RHF Final Energy:  -566.47093599443531

   => Energetics <=

    Nuclear Repulsion Energy =            669.8253366194024920
    One-Electron Energy =               -2101.2742962307684138
    Two-Electron Energy =                 864.9780236169304999
    Total Energy =                       -566.4709359944353082
  Basis Set: (AUG-CC-PVTZ AUX)
    Blend: AUG-CC-PVTZ-RI
    Molecular point group: c1

    Geometry (in Angstrom), charge = 0, multiplicity = 1:

       Center              X                  Y                   Z               Mass
    ------------   -----------------  -----------------  -----------------  -----------------
         O           -0.424532687826     2.739916373289     0.835932430556    15.994914619570
         O           -2.118895687826    -1.143150626711    -0.836737569444    15.994914619570
         N           -1.807136687826     1.625498373289    -0.596101569444    14.003074004430
         N           -1.348853687826    -2.316190626711     0.950520430556    14.003074004430
         C            0.367340312174     0.665478373289    -0.026176569444    12.000000000000
         C            0.141608312174    -0.727110626711    -0.058397569444    12.000000000000
         C            1.690003312174     1.131285373289    -0.042894569444    12.000000000000
         C            1.237039312174    -1.603563626711    -0.144899569444    12.000000000000
         C            2.767948312174     0.256680373289    -0.152653569444    12.000000000000
         C            2.541721312174    -1.119413626711    -0.207378569444    12.000000000000
         C           -0.668110887826     1.750924273289     0.183064730556    12.000000000000
         C           -1.215359687826    -1.369553626711    -0.021774569444    12.000000000000
         H            1.849340312174     2.202589373289     0.037312430556     1.007825032230
         H            1.053251312174    -2.674940626711    -0.179388569444     1.007825032230
         H            3.781808312174     0.647903373289    -0.185887569444     1.007825032230
         H            3.374337312174    -1.813154626711    -0.294443569444     1.007825032230
         H           -2.052615687826     0.743959373289    -1.038221569444     1.007825032230
         H           -2.525208687826     2.320684373289    -0.435035569444     1.007825032230
         H           -0.708964687826    -2.344034626711     1.731748430556     1.007825032230
         H           -2.262382687826    -2.739434626711     1.061703430556     1.007825032230

  Basis Set: AUG-CC-PVTZ
    Blend: AUG-CC-PVTZ
  Basis Set: (AUG-CC-PVTZ AUX)
    Blend: AUG-CC-PVTZ-JKFIT
	 Reference Energy          =    -566.4709359944353082 [Eh]
	 Singles Energy            =      -0.0000000000000000 [Eh]
	 Same-Spin Energy          =      -0.5964549399938484 [Eh]
	 Opposite-Spin Energy      =      -1.7892156069471579 [Eh]
	 Correlation Energy        =      -2.3856705469410064 [Eh]
	 Total Energy              =    -568.8566065413763226 [Eh]

	 ================> DF-SCS-MP2 Energies <==================
	-----------------------------------------------------------
	 SCS Same-Spin Scale       =       0.3333333333333333 [-]
	 SCS Opposite-Spin Scale   =       1.2000000000000000 [-]
	 SCS Same-Spin Energy      =      -0.1988183133312828 [Eh]
	 SCS Opposite-Spin Energy  =      -2.1470587283365892 [Eh]
	 SCS Correlation Energy    =      -2.3458770416678720 [Eh]
	 SCS Total Energy          =    -568.8168130361032127 [Eh]
	-----------------------------------------------------------

  Dipole Moment: [D]
     X:     1.0842      Y:    -3.9360      Z:     1.2042     Total:     4.2565

*** Psi4 exiting successfully. Buy a developer a beer!
