                               Psi4 1.3.2 release

  ==> Input File <==

--------------------------------------------------------------------------
#psi4
#
memory 32 gb

molecule  {
0 1
  O       -0.4387840     2.7607480     0.8353900
  O       -2.1331470    -1.1223190    -0.8372800
  N       -1.8213880     1.6463300    -0.5966440
  N       -1.3631050    -2.2953590     0.9499780
  C        0.2701958     0.5903832     0.1279638
  C        0.1273570    -0.7062790    -0.0589400
  C        1.6757520     1.1521170    -0.0434370
  C        1.2227880    -1.5827320    -0.1454420
  C        2.7536970     0.2775120    -0.1531960
  C        2.5274700    -1.0985820    -0.2079210
  C       -0.6853200     1.7746360     0.1326930
  C       -1.2296110    -1.3487220    -0.0223170
  H        1.8350890     2.2234210     0.0367700
  H        1.0390000    -2.6541090    -0.1799310
  H        3.7675570     0.6687350    -0.1864300
  H        3.3600860    -1.7923230    -0.2949860
  H       -2.0668670     0.7647910    -1.0387640
  H       -2.5394600     2.3415160    -0.4355780
  H       -0.7232160    -2.3232030     1.7312060
  H       -2.2766340    -2.7186030     1.0611610
units angstrom
no_reorient  #important for SAPT in psi4, default
symmetry c1  #important for SAPT in psi4, default
}

set PROPERTIES_ORIGIN ["COM"]
properties('MP2/aug-cc-pvtz', properties = ['dipole'])
--------------------------------------------------------------------------

    Molecular point group: c1
  Charge       = 0
  Multiplicity = 1
  Basis Set: AUG-CC-PVTZ
    Blend: AUG-CC-PVTZ
  Basis Set: (AUG-CC-PVTZ AUX)
    Blend: AUG-CC-PVTZ-JKFIT

    Orbital Energies [Eh]
    ---------------------

    Doubly Occupied:

       1A    -20.548065     2A    -20.516333     3A    -15.608882
       4A    -15.572053     5A    -11.384768     6A    -11.361436
       7A    -11.275124     8A    -11.272393     9A    -11.267521
      10A    -11.264264    11A    -11.262462    12A    -11.255360
      13A     -1.402276    14A     -1.370362    15A     -1.237503
      16A     -1.204611    17A     -1.175769    18A     -1.067599
      19A     -1.031745    20A     -0.904741    21A     -0.868939
      22A     -0.832118    23A     -0.783263    24A     -0.763863
      25A     -0.721457    26A     -0.704531    27A     -0.685653
      28A     -0.668942    29A     -0.649957    30A     -0.628231
      31A     -0.607700    32A     -0.590500    33A     -0.578658
      34A     -0.567203    35A     -0.532945    36A     -0.523378
      37A     -0.518499    38A     -0.451814    39A     -0.441541
      40A     -0.427161    41A     -0.403053    42A     -0.378113
      43A     -0.343899

  @DF-RHF Final Energy:  -566.44836667965649

   => Energetics <=

    Nuclear Repulsion Energy =            670.2142851762494047
    One-Electron Energy =               -2102.0159373930673610
    Two-Electron Energy =                 865.3532855371614687
    Total Energy =                       -566.4483666796564876
  Basis Set: (AUG-CC-PVTZ AUX)
    Blend: AUG-CC-PVTZ-RI
    Molecular point group: c1

    Geometry (in Angstrom), charge = 0, multiplicity = 1:

       Center              X                  Y                   Z               Mass
    ------------   -----------------  -----------------  -----------------  -----------------
         O           -0.418253150262     2.746722237493     0.828262962619    15.994914619570
         O           -2.112616150262    -1.136344762507    -0.844407037381    15.994914619570
         N           -1.800857150262     1.632304237493    -0.603771037381    14.003074004430
         N           -1.342574150262    -2.309384762507     0.942850962619    14.003074004430
         C            0.290726649738     0.576357437493     0.120836762619    12.000000000000
         C            0.147887849738    -0.720304762507    -0.066067037381    12.000000000000
         C            1.696282849738     1.138091237493    -0.050564037381    12.000000000000
         C            1.243318849738    -1.596757762507    -0.152569037381    12.000000000000
         C            2.774227849738     0.263486237493    -0.160323037381    12.000000000000
         C            2.548000849738    -1.112607762507    -0.215048037381    12.000000000000
         C           -0.664789150262     1.760610237493     0.125565962619    12.000000000000
         C           -1.209080150262    -1.362747762507    -0.029444037381    12.000000000000
         H            1.855619849738     2.209395237493     0.029642962619     1.007825032230
         H            1.059530849738    -2.668134762507    -0.187058037381     1.007825032230
         H            3.788087849738     0.654709237493    -0.193557037381     1.007825032230
         H            3.380616849738    -1.806348762507    -0.302113037381     1.007825032230
         H           -2.046336150262     0.750765237493    -1.045891037381     1.007825032230
         H           -2.518929150262     2.327490237493    -0.442705037381     1.007825032230
         H           -0.702685150262    -2.337228762507     1.724078962619     1.007825032230
         H           -2.256103150262    -2.732628762507     1.054033962619     1.007825032230

  Basis Set: AUG-CC-PVTZ
    Blend: AUG-CC-PVTZ
  Basis Set: (AUG-CC-PVTZ AUX)
    Blend: AUG-CC-PVTZ-JKFIT
	 Reference Energy          =    -566.4483666796564876 [Eh]
	 Singles Energy            =      -0.0000000000000000 [Eh]
	 Same-Spin Energy          =      -0.5965567172941137 [Eh]
	 Opposite-Spin Energy      =      -1.7909603018429423 [Eh]
	 Correlation Energy        =      -2.3875170191370563 [Eh]
	 Total Energy              =    -568.8358836987935092 [Eh]

	 ================> DF-SCS-MP2 Energies <==================
	-----------------------------------------------------------
	 SCS Same-Spin Scale       =       0.3333333333333333 [-]
	 SCS Opposite-Spin Scale   =       1.2000000000000000 [-]
	 SCS Same-Spin Energy      =      -0.1988522390980379 [Eh]
	 SCS Opposite-Spin Energy  =      -2.1491523622115305 [Eh]
	 SCS Correlation Energy    =      -2.3480046013095683 [Eh]
	 SCS Total Energy          =    -568.7963712809660137 [Eh]
	-----------------------------------------------------------

  Dipole Moment: [D]
     X:     0.9018      Y:    -4.0678      Z:     1.0287     Total:     4.2916

*** Psi4 exiting successfully. Buy a developer a beer!
