                               Psi4 1.3.2 release

  ==> Input File <==

--------------------------------------------------------------------------
#psi4
#
memory 32 gb

molecule  {
0 1
  O       -0.1147700    -1.8002930     0.4548730
  O        0.3584290     1.3939840    -1.0246780
  O       -1.9576820     1.3732727     0.4811198
  O        2.7148150     0.4505790    -0.2056670
  O       -1.6716310    -0.8002260    -0.9984850
  C        0.4315910     1.0135520     0.3497470
  C       -0.9093320     0.4742750     0.8400700
  C        1.5345100    -0.0288940     0.4204030
  C       -1.2151430    -0.9364420     0.3397180
  C        1.0549700    -1.3167000    -0.2286510
  H        0.7042560     1.8874530     0.9605880
  H       -0.8891646     0.4384654     1.9357153
  H        1.7837760    -0.2316310     1.4680400
  H       -1.9939520    -1.3968640     0.9617720
  H        0.8436020    -1.1475360    -1.2899680
  H        1.8059140    -2.1013880    -0.1265130
  H       -0.3930520     2.0121160    -1.0836700
  H       -2.3417080     0.9766970    -0.3400740
  H        2.3997000     0.9352960    -0.9928030
  H       -1.9956420    -1.6762600    -1.2784950
units angstrom
no_reorient  #important for SAPT in psi4, default
symmetry c1  #important for SAPT in psi4, default
}

set PROPERTIES_ORIGIN ["COM"]
properties('MP2/aug-cc-pvtz', properties = ['dipole'])
--------------------------------------------------------------------------

    Molecular point group: c1
  Charge       = 0
  Multiplicity = 1
  Basis Set: AUG-CC-PVTZ
    Blend: AUG-CC-PVTZ
  Basis Set: (AUG-CC-PVTZ AUX)
    Blend: AUG-CC-PVTZ-JKFIT

    Orbital Energies [Eh]
    ---------------------

    Doubly Occupied:

       1A    -20.591880     2A    -20.580855     3A    -20.575430
       4A    -20.571557     5A    -20.558354     6A    -11.353993
       7A    -11.298046     8A    -11.291192     9A    -11.285727
      10A    -11.278237    11A     -1.438688    12A     -1.391299
      13A     -1.374943    14A     -1.353861    15A     -1.347720
      16A     -1.058755    17A     -1.022792    18A     -0.898769
      19A     -0.869544    20A     -0.798336    21A     -0.752420
      22A     -0.727667    23A     -0.711774    24A     -0.695164
      25A     -0.669834    26A     -0.645319    27A     -0.621228
      28A     -0.614286    29A     -0.602444    30A     -0.584531
      31A     -0.571383    32A     -0.556066    33A     -0.543131
      34A     -0.516013    35A     -0.502741    36A     -0.491225
      37A     -0.487777    38A     -0.471787    39A     -0.440569
      40A     -0.415896

  @DF-RHF Final Energy:  -569.67374888847053

   => Energetics <=

    Nuclear Repulsion Energy =            633.6275327286296033
    One-Electron Energy =               -2041.4800966104778581
    Two-Electron Energy =                 838.1788149933777277
    Total Energy =                       -569.6737488884705272
  Basis Set: (AUG-CC-PVTZ AUX)
    Blend: AUG-CC-PVTZ-RI
    Molecular point group: c1

    Geometry (in Angstrom), charge = 0, multiplicity = 1:

       Center              X                  Y                   Z               Mass
    ------------   -----------------  -----------------  -----------------  -----------------
         O           -0.114451925689    -1.800542193753     0.453587486964    15.994914619570
         O            0.358747074311     1.393734806247    -1.025963513036    15.994914619570
         O           -1.957363925689     1.373023506247     0.479834286964    15.994914619570
         O            2.715133074311     0.450329806247    -0.206952513036    15.994914619570
         O           -1.671312925689    -0.800475193753    -0.999770513036    15.994914619570
         C            0.431909074311     1.013302806247     0.348461486964    12.000000000000
         C           -0.909013925689     0.474025806247     0.838784486964    12.000000000000
         C            1.534828074311    -0.029143193753     0.419117486964    12.000000000000
         C           -1.214824925689    -0.936691193753     0.338432486964    12.000000000000
         C            1.055288074311    -1.316949193753    -0.229936513036    12.000000000000
         H            0.704574074311     1.887203806247     0.959302486964     1.007825032230
         H           -0.888846525689     0.438216206247     1.934429786964     1.007825032230
         H            1.784094074311    -0.231880193753     1.466754486964     1.007825032230
         H           -1.993633925689    -1.397113193753     0.960486486964     1.007825032230
         H            0.843920074311    -1.147785193753    -1.291253513036     1.007825032230
         H            1.806232074311    -2.101637193753    -0.127798513036     1.007825032230
         H           -0.392733925689     2.011866806247    -1.084955513036     1.007825032230
         H           -2.341389925689     0.976447806247    -0.341359513036     1.007825032230
         H            2.400018074311     0.935046806247    -0.994088513036     1.007825032230
         H           -1.995323925689    -1.676509193753    -1.279780513036     1.007825032230

  Basis Set: AUG-CC-PVTZ
    Blend: AUG-CC-PVTZ
  Basis Set: (AUG-CC-PVTZ AUX)
    Blend: AUG-CC-PVTZ-JKFIT
	 Reference Energy          =    -569.6737488884705272 [Eh]
	 Singles Energy            =      -0.0000000000000000 [Eh]
	 Same-Spin Energy          =      -0.5547600988930848 [Eh]
	 Opposite-Spin Energy      =      -1.7042820532593228 [Eh]
	 Correlation Energy        =      -2.2590421521524076 [Eh]
	 Total Energy              =    -571.9327910406229876 [Eh]

	 ================> DF-SCS-MP2 Energies <==================
	-----------------------------------------------------------
	 SCS Same-Spin Scale       =       0.3333333333333333 [-]
	 SCS Opposite-Spin Scale   =       1.2000000000000000 [-]
	 SCS Same-Spin Energy      =      -0.1849200329643616 [Eh]
	 SCS Opposite-Spin Energy  =      -2.0451384639111874 [Eh]
	 SCS Correlation Energy    =      -2.2300584968755488 [Eh]
	 SCS Total Energy          =    -571.9038073853461128 [Eh]
	-----------------------------------------------------------

  Dipole Moment: [D]
     X:    -2.1736      Y:    -0.9955      Z:    -0.3213     Total:     2.4122

*** Psi4 exiting successfully. Buy a developer a beer!
