                               Psi4 1.3.2 release

  ==> Input File <==

--------------------------------------------------------------------------
#psi4
#
memory 32 gb

molecule  {
0 1
  O       -0.1551534    -1.8426872     0.4992849
  O        0.3584290     1.3939840    -1.0246780
  O       -1.9551560     1.3713260     0.4690830
  O        2.7148150     0.4505790    -0.2056670
  O       -1.6716310    -0.8002260    -0.9984850
  C        0.4315910     1.0135520     0.3497470
  C       -0.9093320     0.4742750     0.8400700
  C        1.5345100    -0.0288940     0.4204030
  C       -1.2151430    -0.9364420     0.3397180
  C        1.0549700    -1.3167000    -0.2286510
  H        0.7042560     1.8874530     0.9605880
  H       -0.8818830     0.4322700     1.9353370
  H        1.7837760    -0.2316310     1.4680400
  H       -1.9569348    -1.4390324     0.9742500
  H        0.8436020    -1.1475360    -1.2899680
  H        1.8059140    -2.1013880    -0.1265130
  H       -0.3930520     2.0121160    -1.0836700
  H       -2.3417080     0.9766970    -0.3400740
  H        2.3997000     0.9352960    -0.9928030
  H       -1.9956420    -1.6762600    -1.2784950
units angstrom
no_reorient  #important for SAPT in psi4, default
symmetry c1  #important for SAPT in psi4, default
}

set PROPERTIES_ORIGIN ["COM"]
properties('MP2/aug-cc-pvtz', properties = ['dipole'])
--------------------------------------------------------------------------

    Molecular point group: c1
  Charge       = 0
  Multiplicity = 1
  Basis Set: AUG-CC-PVTZ
    Blend: AUG-CC-PVTZ
  Basis Set: (AUG-CC-PVTZ AUX)
    Blend: AUG-CC-PVTZ-JKFIT

    Orbital Energies [Eh]
    ---------------------

    Doubly Occupied:

       1A    -20.592009     2A    -20.582940     3A    -20.574593
       4A    -20.572315     5A    -20.561387     6A    -11.350592
       7A    -11.298738     8A    -11.292099     9A    -11.289304
      10A    -11.283901    11A     -1.432465    12A     -1.391959
      13A     -1.373344    14A     -1.349535    15A     -1.347894
      16A     -1.061358    17A     -1.017969    18A     -0.901200
      19A     -0.866478    20A     -0.799224    21A     -0.752710
      22A     -0.726554    23A     -0.703085    24A     -0.696246
      25A     -0.670394    26A     -0.644688    27A     -0.618716
      28A     -0.612884    29A     -0.600703    30A     -0.582474
      31A     -0.570929    32A     -0.557208    33A     -0.542825
      34A     -0.516066    35A     -0.499151    36A     -0.491794
      37A     -0.486770    38A     -0.476381    39A     -0.441658
      40A     -0.420122

  @DF-RHF Final Energy:  -569.66636885814250

   => Energetics <=

    Nuclear Repulsion Energy =            631.8997938412499025
    One-Electron Energy =               -2038.0310007061127635
    Two-Electron Energy =                 836.4648380067203561
    Total Energy =                       -569.6663688581425049
  Basis Set: (AUG-CC-PVTZ AUX)
    Blend: AUG-CC-PVTZ-RI
    Molecular point group: c1

    Geometry (in Angstrom), charge = 0, multiplicity = 1:

       Center              X                  Y                   Z               Mass
    ------------   -----------------  -----------------  -----------------  -----------------
         O           -0.151097439068    -1.837885031568     0.494467088612    15.994914619570
         O            0.362484960932     1.398786168432    -1.029495811388    15.994914619570
         O           -1.951100039068     1.376128168432     0.464265188612    15.994914619570
         O            2.718870960932     0.455381168432    -0.210484811388    15.994914619570
         O           -1.667575039068    -0.795423831568    -1.003302811388    15.994914619570
         C            0.435646960932     1.018354168432     0.344929188612    12.000000000000
         C           -0.905276039068     0.479077168432     0.835252188612    12.000000000000
         C            1.538565960932    -0.024091831568     0.415585188612    12.000000000000
         C           -1.211087039068    -0.931639831568     0.334900188612    12.000000000000
         C            1.059025960932    -1.311897831568    -0.233468811388    12.000000000000
         H            0.708311960932     1.892255168432     0.955770188612     1.007825032230
         H           -0.877827039068     0.437072168432     1.930519188612     1.007825032230
         H            1.787831960932    -0.226828831568     1.463222188612     1.007825032230
         H           -1.952878839068    -1.434230231568     0.969432188612     1.007825032230
         H            0.847657960932    -1.142733831568    -1.294785811388     1.007825032230
         H            1.809969960932    -2.096585831568    -0.131330811388     1.007825032230
         H           -0.388996039068     2.016918168432    -1.088487811388     1.007825032230
         H           -2.337652039068     0.981499168432    -0.344891811388     1.007825032230
         H            2.403755960932     0.940098168432    -0.997620811388     1.007825032230
         H           -1.991586039068    -1.671457831568    -1.283312811388     1.007825032230

  Basis Set: AUG-CC-PVTZ
    Blend: AUG-CC-PVTZ
  Basis Set: (AUG-CC-PVTZ AUX)
    Blend: AUG-CC-PVTZ-JKFIT
	 Reference Energy          =    -569.6663688581425049 [Eh]
	 Singles Energy            =      -0.0000000000000000 [Eh]
	 Same-Spin Energy          =      -0.5553710683385551 [Eh]
	 Opposite-Spin Energy      =      -1.7065676303384933 [Eh]
	 Correlation Energy        =      -2.2619386986770484 [Eh]
	 Total Energy              =    -571.9283075568195045 [Eh]

	 ================> DF-SCS-MP2 Energies <==================
	-----------------------------------------------------------
	 SCS Same-Spin Scale       =       0.3333333333333333 [-]
	 SCS Opposite-Spin Scale   =       1.2000000000000000 [-]
	 SCS Same-Spin Energy      =      -0.1851236894461850 [Eh]
	 SCS Opposite-Spin Energy  =      -2.0478811564061918 [Eh]
	 SCS Correlation Energy    =      -2.2330048458523768 [Eh]
	 SCS Total Energy          =    -571.8993737039949110 [Eh]
	-----------------------------------------------------------

  Dipole Moment: [D]
     X:    -1.9915      Y:    -0.8859      Z:    -0.4155     Total:     2.2189

*** Psi4 exiting successfully. Buy a developer a beer!
