                               Psi4 1.3.2 release

  ==> Input File <==

--------------------------------------------------------------------------
#psi4
#
memory 32 gb

molecule  {
0 1
  O       -0.1147700    -1.8002930     0.4548730
  O        0.3584290     1.3939840    -1.0246780
  O       -1.9551560     1.3713260     0.4690830
  O        2.7149826     0.4601971    -0.1978624
  O       -1.6716310    -0.8002260    -0.9984850
  C        0.4315910     1.0135520     0.3497470
  C       -0.9093320     0.4742750     0.8400700
  C        1.5345100    -0.0288940     0.4204030
  C       -1.2151430    -0.9364420     0.3397180
  C        1.0447831    -1.3171134    -0.2201689
  H        0.7042560     1.8874530     0.9605880
  H       -0.8818830     0.4322700     1.9353370
  H        1.7837760    -0.2316310     1.4680400
  H       -1.9939520    -1.3968640     0.9617720
  H        0.8436020    -1.1475360    -1.2899680
  H        1.8059140    -2.1013880    -0.1265130
  H       -0.3930520     2.0121160    -1.0836700
  H       -2.3417080     0.9766970    -0.3400740
  H        2.3997000     0.9352960    -0.9928030
  H       -1.9956420    -1.6762600    -1.2784950
units angstrom
no_reorient  #important for SAPT in psi4, default
symmetry c1  #important for SAPT in psi4, default
}

set PROPERTIES_ORIGIN ["COM"]
properties('MP2/aug-cc-pvtz', properties = ['dipole'])
--------------------------------------------------------------------------

    Molecular point group: c1
  Charge       = 0
  Multiplicity = 1
  Basis Set: AUG-CC-PVTZ
    Blend: AUG-CC-PVTZ
  Basis Set: (AUG-CC-PVTZ AUX)
    Blend: AUG-CC-PVTZ-JKFIT

    Orbital Energies [Eh]
    ---------------------

    Doubly Occupied:

       1A    -20.592124     2A    -20.582376     3A    -20.574803
       4A    -20.570992     5A    -20.558595     6A    -11.354649
       7A    -11.298585     8A    -11.290609     9A    -11.285230
      10A    -11.278502    11A     -1.440914    12A     -1.391723
      13A     -1.376669    14A     -1.355593    15A     -1.347414
      16A     -1.059197    17A     -1.023470    18A     -0.898072
      19A     -0.870778    20A     -0.798293    21A     -0.752628
      22A     -0.727737    23A     -0.713269    24A     -0.696436
      25A     -0.669422    26A     -0.646577    27A     -0.622663
      28A     -0.614762    29A     -0.603165    30A     -0.584368
      31A     -0.571285    32A     -0.555355    33A     -0.542981
      34A     -0.516450    35A     -0.503152    36A     -0.491051
      37A     -0.488751    38A     -0.470216    39A     -0.440104
      40A     -0.415699

  @DF-RHF Final Energy:  -569.67434181850365

   => Energetics <=

    Nuclear Repulsion Energy =            634.0028632471412493
    One-Electron Energy =               -2042.2050896210757855
    Two-Electron Energy =                 838.5278845554308873
    Total Energy =                       -569.6743418185036489
  Basis Set: (AUG-CC-PVTZ AUX)
    Blend: AUG-CC-PVTZ-RI
    Molecular point group: c1

    Geometry (in Angstrom), charge = 0, multiplicity = 1:

       Center              X                  Y                   Z               Mass
    ------------   -----------------  -----------------  -----------------  -----------------
         O           -0.113973292115    -1.801285256804     0.453362830997    15.994914619570
         O            0.359225707885     1.392991743196    -1.026188169003    15.994914619570
         O           -1.954359292115     1.370333743196     0.467572830997    15.994914619570
         O            2.715779307885     0.459204843196    -0.199372569003    15.994914619570
         O           -1.670834292115    -0.801218256804    -0.999995169003    15.994914619570
         C            0.432387707885     1.012559743196     0.348236830997    12.000000000000
         C           -0.908535292115     0.473282743196     0.838559830997    12.000000000000
         C            1.535306707885    -0.029886256804     0.418892830997    12.000000000000
         C           -1.214346292115    -0.937434256804     0.338207830997    12.000000000000
         C            1.045579807885    -1.318105656804    -0.221679069003    12.000000000000
         H            0.705052707885     1.886460743196     0.959077830997     1.007825032230
         H           -0.881086292115     0.431277743196     1.933826830997     1.007825032230
         H            1.784572707885    -0.232623256804     1.466529830997     1.007825032230
         H           -1.993155292115    -1.397856256804     0.960261830997     1.007825032230
         H            0.844398707885    -1.148528256804    -1.291478169003     1.007825032230
         H            1.806710707885    -2.102380256804    -0.128023169003     1.007825032230
         H           -0.392255292115     2.011123743196    -1.085180169003     1.007825032230
         H           -2.340911292115     0.975704743196    -0.341584169003     1.007825032230
         H            2.400496707885     0.934303743196    -0.994313169003     1.007825032230
         H           -1.994845292115    -1.677252256804    -1.280005169003     1.007825032230

  Basis Set: AUG-CC-PVTZ
    Blend: AUG-CC-PVTZ
  Basis Set: (AUG-CC-PVTZ AUX)
    Blend: AUG-CC-PVTZ-JKFIT
	 Reference Energy          =    -569.6743418185036489 [Eh]
	 Singles Energy            =      -0.0000000000000000 [Eh]
	 Same-Spin Energy          =      -0.5546886467691929 [Eh]
	 Opposite-Spin Energy      =      -1.7038952799888718 [Eh]
	 Correlation Energy        =      -2.2585839267580647 [Eh]
	 Total Energy              =    -571.9329257452617412 [Eh]

	 ================> DF-SCS-MP2 Energies <==================
	-----------------------------------------------------------
	 SCS Same-Spin Scale       =       0.3333333333333333 [-]
	 SCS Opposite-Spin Scale   =       1.2000000000000000 [-]
	 SCS Same-Spin Energy      =      -0.1848962155897310 [Eh]
	 SCS Opposite-Spin Energy  =      -2.0446743359866462 [Eh]
	 SCS Correlation Energy    =      -2.2295705515763773 [Eh]
	 SCS Total Energy          =    -571.9039123700799792 [Eh]
	-----------------------------------------------------------

  Dipole Moment: [D]
     X:    -2.2179      Y:    -1.0233      Z:    -0.2980     Total:     2.4607

*** Psi4 exiting successfully. Buy a developer a beer!
