                               Psi4 1.3.2 release

  ==> Input File <==

--------------------------------------------------------------------------
#psi4
#
memory 32 gb

molecule  {
0 1
  O       -0.1147700    -1.8002930     0.4548730
  O        0.3584290     1.3939840    -1.0246780
  O       -1.9551560     1.3713260     0.4690830
  O        2.7148150     0.4505790    -0.2056670
  O       -1.6716310    -0.8002260    -0.9984850
  C        0.4315910     1.0135520     0.3497470
  C       -0.9093320     0.4742750     0.8400700
  C        1.5345100    -0.0288940     0.4204030
  C       -1.2151430    -0.9364420     0.3397180
  C        1.0549700    -1.3167000    -0.2286510
  H        0.7042560     1.8874530     0.9605880
  H       -0.8818830     0.4322700     1.9353370
  H        1.7610286    -0.2131297     1.3724353
  H       -1.9939520    -1.3968640     0.9617720
  H        0.8436020    -1.1475360    -1.2899680
  H        1.8059140    -2.1013880    -0.1265130
  H       -0.3930520     2.0121160    -1.0836700
  H       -2.3417080     0.9766970    -0.3400740
  H        2.3997000     0.9352960    -0.9928030
  H       -1.9956420    -1.6762600    -1.2784950
units angstrom
no_reorient  #important for SAPT in psi4, default
symmetry c1  #important for SAPT in psi4, default
}

set PROPERTIES_ORIGIN ["COM"]
properties('MP2/aug-cc-pvtz', properties = ['dipole'])
--------------------------------------------------------------------------

    Molecular point group: c1
  Charge       = 0
  Multiplicity = 1
  Basis Set: AUG-CC-PVTZ
    Blend: AUG-CC-PVTZ
  Basis Set: (AUG-CC-PVTZ AUX)
    Blend: AUG-CC-PVTZ-JKFIT

    Orbital Energies [Eh]
    ---------------------

    Doubly Occupied:

       1A    -20.591520     2A    -20.580786     3A    -20.574591
       4A    -20.570678     5A    -20.556940     6A    -11.353876
       7A    -11.298434     8A    -11.290344     9A    -11.277350
      10A    -11.273154    11A     -1.438698    12A     -1.391079
      13A     -1.375584    14A     -1.353822    15A     -1.347176
      16A     -1.061723    17A     -1.024387    18A     -0.898349
      19A     -0.875773    20A     -0.805309    21A     -0.753643
      22A     -0.727608    23A     -0.711866    24A     -0.695963
      25A     -0.670201    26A     -0.646645    27A     -0.621792
      28A     -0.613845    29A     -0.603733    30A     -0.590676
      31A     -0.571623    32A     -0.555677    33A     -0.543414
      34A     -0.519526    35A     -0.502472    36A     -0.491124
      37A     -0.488731    38A     -0.473358    39A     -0.440181
      40A     -0.415562

  @DF-RHF Final Energy:  -569.66893713752768

   => Energetics <=

    Nuclear Repulsion Energy =            634.4466674045125956
    One-Electron Energy =               -2043.0767811471525874
    Two-Electron Energy =                 838.9611766051122004
    Total Energy =                       -569.6689371375276778
  Basis Set: (AUG-CC-PVTZ AUX)
    Blend: AUG-CC-PVTZ-RI
    Molecular point group: c1

    Geometry (in Angstrom), charge = 0, multiplicity = 1:

       Center              X                  Y                   Z               Mass
    ------------   -----------------  -----------------  -----------------  -----------------
         O           -0.114617309675    -1.800417337014     0.455515219157    15.994914619570
         O            0.358581690325     1.393859662986    -1.024035780843    15.994914619570
         O           -1.955003309675     1.371201662986     0.469725219157    15.994914619570
         O            2.714967690325     0.450454662986    -0.205024780843    15.994914619570
         O           -1.671478309675    -0.800350337014    -0.997842780843    15.994914619570
         C            0.431743690325     1.013427662986     0.350389219157    12.000000000000
         C           -0.909179309675     0.474150662986     0.840712219157    12.000000000000
         C            1.534662690325    -0.029018337014     0.421045219157    12.000000000000
         C           -1.214990309675    -0.936566337014     0.340360219157    12.000000000000
         C            1.055122690325    -1.316824337014    -0.228008780843    12.000000000000
         H            0.704408690325     1.887328662986     0.961230219157     1.007825032230
         H           -0.881730309675     0.432145662986     1.935979219157     1.007825032230
         H            1.761181290325    -0.213254037014     1.373077519157     1.007825032230
         H           -1.993799309675    -1.396988337014     0.962414219157     1.007825032230
         H            0.843754690325    -1.147660337014    -1.289325780843     1.007825032230
         H            1.806066690325    -2.101512337014    -0.125870780843     1.007825032230
         H           -0.392899309675     2.011991662986    -1.083027780843     1.007825032230
         H           -2.341555309675     0.976572662986    -0.339431780843     1.007825032230
         H            2.399852690325     0.935171662986    -0.992160780843     1.007825032230
         H           -1.995489309675    -1.676384337014    -1.277852780843     1.007825032230

  Basis Set: AUG-CC-PVTZ
    Blend: AUG-CC-PVTZ
  Basis Set: (AUG-CC-PVTZ AUX)
    Blend: AUG-CC-PVTZ-JKFIT
	 Reference Energy          =    -569.6689371375276778 [Eh]
	 Singles Energy            =      -0.0000000000000000 [Eh]
	 Same-Spin Energy          =      -0.5545304494807131 [Eh]
	 Opposite-Spin Energy      =      -1.7033311012056904 [Eh]
	 Correlation Energy        =      -2.2578615506864033 [Eh]
	 Total Energy              =    -571.9267986882140349 [Eh]

	 ================> DF-SCS-MP2 Energies <==================
	-----------------------------------------------------------
	 SCS Same-Spin Scale       =       0.3333333333333333 [-]
	 SCS Opposite-Spin Scale   =       1.2000000000000000 [-]
	 SCS Same-Spin Energy      =      -0.1848434831602377 [Eh]
	 SCS Opposite-Spin Energy  =      -2.0439973214468283 [Eh]
	 SCS Correlation Energy    =      -2.2288408046070662 [Eh]
	 SCS Total Energy          =    -571.8977779421347805 [Eh]
	-----------------------------------------------------------

  Dipole Moment: [D]
     X:    -2.1874      Y:    -1.0031      Z:    -0.2594     Total:     2.4204

*** Psi4 exiting successfully. Buy a developer a beer!
