                               Psi4 1.3.2 release

  ==> Input File <==

--------------------------------------------------------------------------
#psi4
#
memory 32 gb

molecule  {
0 1
  O       -0.0763620    -1.7444551     0.4832888
  O        0.3584290     1.3939840    -1.0246780
  O       -1.9551560     1.3713260     0.4690830
  O        2.7148150     0.4505790    -0.2056670
  O       -1.6716310    -0.8002260    -0.9984850
  C        0.4315910     1.0135520     0.3497470
  C       -0.8351866     0.4497891     0.8573967
  C        1.5345100    -0.0288940     0.4204030
  C       -1.2151430    -0.9364420     0.3397180
  C        1.0549700    -1.3167000    -0.2286510
  H        0.7042560     1.8874530     0.9605880
  H       -0.8818830     0.4322700     1.9353370
  H        1.7837760    -0.2316310     1.4680400
  H       -1.9939520    -1.3968640     0.9617720
  H        0.8436020    -1.1475360    -1.2899680
  H        1.8059140    -2.1013880    -0.1265130
  H       -0.3930520     2.0121160    -1.0836700
  H       -2.3417080     0.9766970    -0.3400740
  H        2.3997000     0.9352960    -0.9928030
  H       -1.9956420    -1.6762600    -1.2784950
units angstrom
no_reorient  #important for SAPT in psi4, default
symmetry c1  #important for SAPT in psi4, default
}

set PROPERTIES_ORIGIN ["COM"]
properties('MP2/aug-cc-pvtz', properties = ['dipole'])
--------------------------------------------------------------------------

    Molecular point group: c1
  Charge       = 0
  Multiplicity = 1
  Basis Set: AUG-CC-PVTZ
    Blend: AUG-CC-PVTZ
  Basis Set: (AUG-CC-PVTZ AUX)
    Blend: AUG-CC-PVTZ-JKFIT

    Orbital Energies [Eh]
    ---------------------

    Doubly Occupied:

       1A    -20.595695     2A    -20.578430     3A    -20.572343
       4A    -20.564433     5A    -20.555873     6A    -11.358405
       7A    -11.298021     8A    -11.291251     9A    -11.283592
      10A    -11.276418    11A     -1.443440    12A     -1.389303
      13A     -1.372906    14A     -1.351346    15A     -1.335760
      16A     -1.068370    17A     -1.028883    18A     -0.898340
      19A     -0.871678    20A     -0.799094    21A     -0.753566
      22A     -0.733726    23A     -0.714410    24A     -0.687805
      25A     -0.670354    26A     -0.646356    27A     -0.624702
      28A     -0.616870    29A     -0.600033    30A     -0.578874
      31A     -0.570735    32A     -0.551481    33A     -0.540724
      34A     -0.512704    35A     -0.507179    36A     -0.489927
      37A     -0.486461    38A     -0.471478    39A     -0.449522
      40A     -0.411301

  @DF-RHF Final Energy:  -569.66594613494124

   => Energetics <=

    Nuclear Repulsion Energy =            635.4876422100751370
    One-Electron Energy =               -2045.2035983476230285
    Two-Electron Energy =                 840.0500100026066548
    Total Energy =                       -569.6659461349412368
  Basis Set: (AUG-CC-PVTZ AUX)
    Blend: AUG-CC-PVTZ-RI
    Molecular point group: c1

    Geometry (in Angstrom), charge = 0, multiplicity = 1:

       Center              X                  Y                   Z               Mass
    ------------   -----------------  -----------------  -----------------  -----------------
         O           -0.086385745179    -1.748449044773     0.478874256562    15.994914619570
         O            0.348405254821     1.389990055227    -1.029092543438    15.994914619570
         O           -1.965179745179     1.367332055227     0.464668456562    15.994914619570
         O            2.704791254821     0.446585055227    -0.210081543438    15.994914619570
         O           -1.681654745179    -0.804219944773    -1.002899543438    15.994914619570
         C            0.421567254821     1.009558055227     0.345332456562    12.000000000000
         C           -0.845210345179     0.445795155227     0.852982156562    12.000000000000
         C            1.524486254821    -0.032887944773     0.415988456562    12.000000000000
         C           -1.225166745179    -0.940435944773     0.335303456562    12.000000000000
         C            1.044946254821    -1.320693944773    -0.233065543438    12.000000000000
         H            0.694232254821     1.883459055227     0.956173456562     1.007825032230
         H           -0.891906745179     0.428276055227     1.930922456562     1.007825032230
         H            1.773752254821    -0.235624944773     1.463625456562     1.007825032230
         H           -2.003975745179    -1.400857944773     0.957357456562     1.007825032230
         H            0.833578254821    -1.151529944773    -1.294382543438     1.007825032230
         H            1.795890254821    -2.105381944773    -0.130927543438     1.007825032230
         H           -0.403075745179     2.008122055227    -1.088084543438     1.007825032230
         H           -2.351731745179     0.972703055227    -0.344488543438     1.007825032230
         H            2.389676254821     0.931302055227    -0.997217543438     1.007825032230
         H           -2.005665745179    -1.680253944773    -1.282909543438     1.007825032230

  Basis Set: AUG-CC-PVTZ
    Blend: AUG-CC-PVTZ
  Basis Set: (AUG-CC-PVTZ AUX)
    Blend: AUG-CC-PVTZ-JKFIT
	 Reference Energy          =    -569.6659461349412368 [Eh]
	 Singles Energy            =      -0.0000000000000000 [Eh]
	 Same-Spin Energy          =      -0.5551178422674963 [Eh]
	 Opposite-Spin Energy      =      -1.7047066476994879 [Eh]
	 Correlation Energy        =      -2.2598244899669844 [Eh]
	 Total Energy              =    -571.9257706249081821 [Eh]

	 ================> DF-SCS-MP2 Energies <==================
	-----------------------------------------------------------
	 SCS Same-Spin Scale       =       0.3333333333333333 [-]
	 SCS Opposite-Spin Scale   =       1.2000000000000000 [-]
	 SCS Same-Spin Energy      =      -0.1850392807558321 [Eh]
	 SCS Opposite-Spin Energy  =      -2.0456479772393852 [Eh]
	 SCS Correlation Energy    =      -2.2306872579952173 [Eh]
	 SCS Total Energy          =    -571.8966333929364509 [Eh]
	-----------------------------------------------------------

  Dipole Moment: [D]
     X:    -2.1288      Y:    -1.2841      Z:    -0.2916     Total:     2.5032

*** Psi4 exiting successfully. Buy a developer a beer!
