                               Psi4 1.3.2 release

  ==> Input File <==

--------------------------------------------------------------------------
#psi4
#
memory 32 gb

molecule  {
0 1
  O       -0.1147700    -1.8002930     0.4548730
  O        0.3584290     1.3939840    -1.0246780
  O       -1.9551560     1.3713260     0.4690830
  O        2.7148150     0.4505790    -0.2056670
  O       -1.6716310    -0.8002260    -0.9984850
  C        0.4315910     1.0135520     0.3497470
  C       -0.8978458     0.4507229     0.8448550
  C        1.5170706    -0.0463499     0.4301104
  C       -1.2151430    -0.9364420     0.3397180
  C        1.0549700    -1.3167000    -0.2286510
  H        0.7042560     1.8874530     0.9605880
  H       -0.8818830     0.4322700     1.9353370
  H        1.7837760    -0.2316310     1.4680400
  H       -1.9939520    -1.3968640     0.9617720
  H        0.8436020    -1.1475360    -1.2899680
  H        1.8059140    -2.1013880    -0.1265130
  H       -0.3930520     2.0121160    -1.0836700
  H       -2.3417080     0.9766970    -0.3400740
  H        2.3997000     0.9352960    -0.9928030
  H       -1.9956420    -1.6762600    -1.2784950
units angstrom
no_reorient  #important for SAPT in psi4, default
symmetry c1  #important for SAPT in psi4, default
}

set PROPERTIES_ORIGIN ["COM"]
properties('MP2/aug-cc-pvtz', properties = ['dipole'])
--------------------------------------------------------------------------

    Molecular point group: c1
  Charge       = 0
  Multiplicity = 1
  Basis Set: AUG-CC-PVTZ
    Blend: AUG-CC-PVTZ
  Basis Set: (AUG-CC-PVTZ AUX)
    Blend: AUG-CC-PVTZ-JKFIT

    Orbital Energies [Eh]
    ---------------------

    Doubly Occupied:

       1A    -20.592499     2A    -20.581190     3A    -20.572288
       4A    -20.571813     5A    -20.555504     6A    -11.354645
       7A    -11.298370     8A    -11.292769     9A    -11.285563
      10A    -11.279215    11A     -1.439723    12A     -1.388600
      13A     -1.370917    14A     -1.351284    15A     -1.341093
      16A     -1.063012    17A     -1.027984    18A     -0.901825
      19A     -0.869063    20A     -0.798185    21A     -0.752862
      22A     -0.728669    23A     -0.712485    24A     -0.691878
      25A     -0.667321    26A     -0.645100    27A     -0.621305
      28A     -0.615151    29A     -0.600544    30A     -0.582520
      31A     -0.570250    32A     -0.554676    33A     -0.541453
      34A     -0.516839    35A     -0.503078    36A     -0.491795
      37A     -0.488374    38A     -0.473693    39A     -0.440415
      40A     -0.421031

  @DF-RHF Final Energy:  -569.67213344790810

   => Energetics <=

    Nuclear Repulsion Energy =            633.9686188273690277
    One-Electron Energy =               -2042.1715443466744091
    Two-Electron Energy =                 838.5307920713972862
    Total Energy =                       -569.6721334479080951
  Basis Set: (AUG-CC-PVTZ AUX)
    Blend: AUG-CC-PVTZ-RI
    Molecular point group: c1

    Geometry (in Angstrom), charge = 0, multiplicity = 1:

       Center              X                  Y                   Z               Mass
    ------------   -----------------  -----------------  -----------------  -----------------
         O           -0.114294003523    -1.797013588509     0.453714109363    15.994914619570
         O            0.358904996477     1.397263411491    -1.025836890637    15.994914619570
         O           -1.954680003523     1.374605411491     0.467924109363    15.994914619570
         O            2.715290996477     0.453858411491    -0.206825890637    15.994914619570
         O           -1.671155003523    -0.796946588509    -0.999643890637    15.994914619570
         C            0.432066996477     1.016831411491     0.348588109363    12.000000000000
         C           -0.897369803523     0.454002311491     0.843696109363    12.000000000000
         C            1.517546596477    -0.043070488509     0.428951509363    12.000000000000
         C           -1.214667003523    -0.933162588509     0.338559109363    12.000000000000
         C            1.055445996477    -1.313420588509    -0.229809890637    12.000000000000
         H            0.704731996477     1.890732411491     0.959429109363     1.007825032230
         H           -0.881407003523     0.435549411491     1.934178109363     1.007825032230
         H            1.784251996477    -0.228351588509     1.466881109363     1.007825032230
         H           -1.993476003523    -1.393584588509     0.960613109363     1.007825032230
         H            0.844077996477    -1.144256588509    -1.291126890637     1.007825032230
         H            1.806389996477    -2.098108588509    -0.127671890637     1.007825032230
         H           -0.392576003523     2.015395411491    -1.084828890637     1.007825032230
         H           -2.341232003523     0.979976411491    -0.341232890637     1.007825032230
         H            2.400175996477     0.938575411491    -0.993961890637     1.007825032230
         H           -1.995166003523    -1.672980588509    -1.279653890637     1.007825032230

  Basis Set: AUG-CC-PVTZ
    Blend: AUG-CC-PVTZ
  Basis Set: (AUG-CC-PVTZ AUX)
    Blend: AUG-CC-PVTZ-JKFIT
	 Reference Energy          =    -569.6721334479080951 [Eh]
	 Singles Energy            =      -0.0000000000000000 [Eh]
	 Same-Spin Energy          =      -0.5548575440767944 [Eh]
	 Opposite-Spin Energy      =      -1.7048073898655565 [Eh]
	 Correlation Energy        =      -2.2596649339423509 [Eh]
	 Total Energy              =    -571.9317983818503990 [Eh]

	 ================> DF-SCS-MP2 Energies <==================
	-----------------------------------------------------------
	 SCS Same-Spin Scale       =       0.3333333333333333 [-]
	 SCS Opposite-Spin Scale   =       1.2000000000000000 [-]
	 SCS Same-Spin Energy      =      -0.1849525146922648 [Eh]
	 SCS Opposite-Spin Energy  =      -2.0457688678386678 [Eh]
	 SCS Correlation Energy    =      -2.2307213825309327 [Eh]
	 SCS Total Energy          =    -571.9028548304390824 [Eh]
	-----------------------------------------------------------

  Dipole Moment: [D]
     X:    -2.1963      Y:    -1.0810      Z:    -0.2530     Total:     2.4609

*** Psi4 exiting successfully. Buy a developer a beer!
