                               Psi4 1.3.2 release

  ==> Input File <==

--------------------------------------------------------------------------
#psi4
#
memory 32 gb

molecule  {
0 1
  O       -0.1147700    -1.8002930     0.4548730
  O        0.3584290     1.3939840    -1.0246780
  O       -1.9551560     1.3713260     0.4690830
  O        2.7148150     0.4505790    -0.2056670
  O       -1.6716310    -0.8002260    -0.9984850
  C        0.4316799     1.0160001     0.4292478
  C       -0.9093320     0.4742750     0.8400700
  C        1.5345100    -0.0288940     0.4204030
  C       -1.2151430    -0.9364420     0.3397180
  C        1.0549700    -1.3167000    -0.2286510
  H        0.7042560     1.8874530     0.9605880
  H       -0.8818830     0.4322700     1.9353370
  H        1.7438839    -0.1933565     1.4833676
  H       -1.9939520    -1.3968640     0.9617720
  H        0.8436020    -1.1475360    -1.2899680
  H        1.8059140    -2.1013880    -0.1265130
  H       -0.3930520     2.0121160    -1.0836700
  H       -2.3417080     0.9766970    -0.3400740
  H        2.3997000     0.9352960    -0.9928030
  H       -1.9956420    -1.6762600    -1.2784950
units angstrom
no_reorient  #important for SAPT in psi4, default
symmetry c1  #important for SAPT in psi4, default
}

set PROPERTIES_ORIGIN ["COM"]
properties('MP2/aug-cc-pvtz', properties = ['dipole'])
--------------------------------------------------------------------------

    Molecular point group: c1
  Charge       = 0
  Multiplicity = 1
  Basis Set: AUG-CC-PVTZ
    Blend: AUG-CC-PVTZ
  Basis Set: (AUG-CC-PVTZ AUX)
    Blend: AUG-CC-PVTZ-JKFIT

    Orbital Energies [Eh]
    ---------------------

    Doubly Occupied:

       1A    -20.591644     2A    -20.581591     3A    -20.575351
       4A    -20.561821     5A    -20.559791     6A    -11.356024
       7A    -11.300346     8A    -11.291143     9A    -11.288224
      10A    -11.280092    11A     -1.438766    12A     -1.382202
      13A     -1.373646    14A     -1.354306    15A     -1.332366
      16A     -1.066255    17A     -1.024315    18A     -0.903425
      19A     -0.874005    20A     -0.793377    21A     -0.751396
      22A     -0.729011    23A     -0.711827    24A     -0.692999
      25A     -0.663386    26A     -0.647351    27A     -0.622863
      28A     -0.608898    29A     -0.603407    30A     -0.586089
      31A     -0.572328    32A     -0.557711    33A     -0.534603
      34A     -0.508160    35A     -0.504081    36A     -0.488554
      37A     -0.487529    38A     -0.470140    39A     -0.446281
      40A     -0.422984

  @DF-RHF Final Energy:  -569.66625765968024

   => Energetics <=

    Nuclear Repulsion Energy =            632.9938686263244563
    One-Electron Energy =               -2040.2436752077460369
    Two-Electron Energy =                 837.5835489217413397
    Total Energy =                       -569.6662576596802410
  Basis Set: (AUG-CC-PVTZ AUX)
    Blend: AUG-CC-PVTZ-RI
    Molecular point group: c1

    Geometry (in Angstrom), charge = 0, multiplicity = 1:

       Center              X                  Y                   Z               Mass
    ------------   -----------------  -----------------  -----------------  -----------------
         O           -0.114509267337    -1.800745922140     0.448412320827    15.994914619570
         O            0.358689732663     1.393531077860    -1.031138679173    15.994914619570
         O           -1.954895267337     1.370873077860     0.462622320827    15.994914619570
         O            2.715075732663     0.450126077860    -0.212127679173    15.994914619570
         O           -1.671370267337    -0.800678922140    -1.004945679173    15.994914619570
         C            0.431940632663     1.015547177860     0.422787120827    12.000000000000
         C           -0.909071267337     0.473822077860     0.833609320827    12.000000000000
         C            1.534770732663    -0.029346922140     0.413942320827    12.000000000000
         C           -1.214882267337    -0.936894922140     0.333257320827    12.000000000000
         C            1.055230732663    -1.317152922140    -0.235111679173    12.000000000000
         H            0.704516732663     1.887000077860     0.954127320827     1.007825032230
         H           -0.881622267337     0.431817077860     1.928876320827     1.007825032230
         H            1.744144632663    -0.193809422140     1.476906920827     1.007825032230
         H           -1.993691267337    -1.397316922140     0.955311320827     1.007825032230
         H            0.843862732663    -1.147988922140    -1.296428679173     1.007825032230
         H            1.806174732663    -2.101840922140    -0.132973679173     1.007825032230
         H           -0.392791267337     2.011663077860    -1.090130679173     1.007825032230
         H           -2.341447267337     0.976244077860    -0.346534679173     1.007825032230
         H            2.399960732663     0.934843077860    -0.999263679173     1.007825032230
         H           -1.995381267337    -1.676712922140    -1.284955679173     1.007825032230

  Basis Set: AUG-CC-PVTZ
    Blend: AUG-CC-PVTZ
  Basis Set: (AUG-CC-PVTZ AUX)
    Blend: AUG-CC-PVTZ-JKFIT
	 Reference Energy          =    -569.6662576596802410 [Eh]
	 Singles Energy            =      -0.0000000000000000 [Eh]
	 Same-Spin Energy          =      -0.5549707781858044 [Eh]
	 Opposite-Spin Energy      =      -1.7055415251808919 [Eh]
	 Correlation Energy        =      -2.2605123033666965 [Eh]
	 Total Energy              =    -571.9267699630469224 [Eh]

	 ================> DF-SCS-MP2 Energies <==================
	-----------------------------------------------------------
	 SCS Same-Spin Scale       =       0.3333333333333333 [-]
	 SCS Opposite-Spin Scale   =       1.2000000000000000 [-]
	 SCS Same-Spin Energy      =      -0.1849902593952681 [Eh]
	 SCS Opposite-Spin Energy  =      -2.0466498302170701 [Eh]
	 SCS Correlation Energy    =      -2.2316400896123385 [Eh]
	 SCS Total Energy          =    -571.8978977492926106 [Eh]
	-----------------------------------------------------------

  Dipole Moment: [D]
     X:    -2.1662      Y:    -1.0474      Z:    -0.1064     Total:     2.4085

*** Psi4 exiting successfully. Buy a developer a beer!
