                               Psi4 1.3.2 release

  ==> Input File <==

--------------------------------------------------------------------------
#psi4
#
memory 32 gb

molecule  {
0 1
  O       -0.1147700    -1.8002930     0.4548730
  O        0.3584290     1.3939840    -1.0246780
  O       -1.9691105     1.3819764     0.5416956
  O        2.7148150     0.4505790    -0.2056670
  O       -1.6716310    -0.8002260    -0.9984850
  C        0.4315910     1.0135520     0.3497470
  C       -0.9093320     0.4742750     0.8400700
  C        1.5345100    -0.0288940     0.4204030
  C       -1.2151430    -0.9364420     0.3397180
  C        1.0549700    -1.3167000    -0.2286510
  H        0.7042560     1.8874530     0.9605880
  H       -0.9255843     0.4694736     1.9363549
  H        1.7837760    -0.2316310     1.4680400
  H       -1.9939520    -1.3968640     0.9617720
  H        0.8436020    -1.1475360    -1.2899680
  H        1.8059140    -2.1013880    -0.1265130
  H       -0.3930520     2.0121160    -1.0836700
  H       -2.3417080     0.9766970    -0.3400740
  H        2.3997000     0.9352960    -0.9928030
  H       -1.9956420    -1.6762600    -1.2784950
units angstrom
no_reorient  #important for SAPT in psi4, default
symmetry c1  #important for SAPT in psi4, default
}

set PROPERTIES_ORIGIN ["COM"]
properties('MP2/aug-cc-pvtz', properties = ['dipole'])
--------------------------------------------------------------------------

    Molecular point group: c1
  Charge       = 0
  Multiplicity = 1
  Basis Set: AUG-CC-PVTZ
    Blend: AUG-CC-PVTZ
  Basis Set: (AUG-CC-PVTZ AUX)
    Blend: AUG-CC-PVTZ-JKFIT

    Orbital Energies [Eh]
    ---------------------

    Doubly Occupied:

       1A    -20.593278     2A    -20.581359     3A    -20.579268
       4A    -20.573149     5A    -20.558795     6A    -11.354600
       7A    -11.296493     8A    -11.291900     9A    -11.286077
      10A    -11.278627    11A     -1.438680    12A     -1.390955
      13A     -1.371442    14A     -1.353338    15A     -1.347003
      16A     -1.057386    17A     -1.021808    18A     -0.899116
      19A     -0.867338    20A     -0.798080    21A     -0.753143
      22A     -0.727854    23A     -0.711217    24A     -0.691426
      25A     -0.670354    26A     -0.640855    27A     -0.622013
      28A     -0.615051    29A     -0.600344    30A     -0.583809
      31A     -0.568929    32A     -0.555864    33A     -0.544472
      34A     -0.514539    35A     -0.503278    36A     -0.492094
      37A     -0.487960    38A     -0.472513    39A     -0.440333
      40A     -0.416169

  @DF-RHF Final Energy:  -569.66578283863385

   => Energetics <=

    Nuclear Repulsion Energy =            632.6812520723002535
    One-Electron Energy =               -2039.5922514614112515
    Two-Electron Energy =                 837.2452165504772665
    Total Energy =                       -569.6657828386338451
  Basis Set: (AUG-CC-PVTZ AUX)
    Blend: AUG-CC-PVTZ-RI
    Molecular point group: c1

    Geometry (in Angstrom), charge = 0, multiplicity = 1:

       Center              X                  Y                   Z               Mass
    ------------   -----------------  -----------------  -----------------  -----------------
         O           -0.112989090389    -1.801678232213     0.447126100021    15.994914619570
         O            0.360209909611     1.392598767787    -1.032424899979    15.994914619570
         O           -1.967329590389     1.380591167787     0.533948700021    15.994914619570
         O            2.716595909611     0.449193767787    -0.213413899979    15.994914619570
         O           -1.669850090389    -0.801611232213    -1.006231899979    15.994914619570
         C            0.433371909611     1.012166767787     0.342000100021    12.000000000000
         C           -0.907551090389     0.472889767787     0.832323100021    12.000000000000
         C            1.536290909611    -0.030279232213     0.412656100021    12.000000000000
         C           -1.213362090389    -0.937827232213     0.331971100021    12.000000000000
         C            1.056750909611    -1.318085232213    -0.236397899979    12.000000000000
         H            0.706036909611     1.886067767787     0.952841100021     1.007825032230
         H           -0.923803390389     0.468088367787     1.928608000021     1.007825032230
         H            1.785556909611    -0.233016232213     1.460293100021     1.007825032230
         H           -1.992171090389    -1.398249232213     0.954025100021     1.007825032230
         H            0.845382909611    -1.148921232213    -1.297714899979     1.007825032230
         H            1.807694909611    -2.102773232213    -0.134259899979     1.007825032230
         H           -0.391271090389     2.010730767787    -1.091416899979     1.007825032230
         H           -2.339927090389     0.975311767787    -0.347820899979     1.007825032230
         H            2.401480909611     0.933910767787    -1.000549899979     1.007825032230
         H           -1.993861090389    -1.677645232213    -1.286241899979     1.007825032230

  Basis Set: AUG-CC-PVTZ
    Blend: AUG-CC-PVTZ
  Basis Set: (AUG-CC-PVTZ AUX)
    Blend: AUG-CC-PVTZ-JKFIT
	 Reference Energy          =    -569.6657828386338451 [Eh]
	 Singles Energy            =      -0.0000000000000000 [Eh]
	 Same-Spin Energy          =      -0.5555340062014656 [Eh]
	 Opposite-Spin Energy      =      -1.7062815626936860 [Eh]
	 Correlation Energy        =      -2.2618155688951518 [Eh]
	 Total Energy              =    -571.9275984075289898 [Eh]

	 ================> DF-SCS-MP2 Energies <==================
	-----------------------------------------------------------
	 SCS Same-Spin Scale       =       0.3333333333333333 [-]
	 SCS Opposite-Spin Scale   =       1.2000000000000000 [-]
	 SCS Same-Spin Energy      =      -0.1851780020671552 [Eh]
	 SCS Opposite-Spin Energy  =      -2.0475378752324231 [Eh]
	 SCS Correlation Energy    =      -2.2327158772995785 [Eh]
	 SCS Total Energy          =    -571.8984987159334423 [Eh]
	-----------------------------------------------------------

  Dipole Moment: [D]
     X:    -2.1353      Y:    -1.0028      Z:    -0.4281     Total:     2.3976

*** Psi4 exiting successfully. Buy a developer a beer!
