                               Psi4 1.3.2 release

  ==> Input File <==

--------------------------------------------------------------------------
#psi4
#
memory 32 gb

molecule  {
0 1
  O       -0.1147700    -1.8002930     0.4548730
  O        0.3584290     1.3939840    -1.0246780
  O       -1.9551560     1.3713260     0.4690830
  O        2.7148150     0.4505790    -0.2056670
  O       -1.6716310    -0.8002260    -0.9984850
  C        0.4315910     1.0135520     0.3497470
  C       -0.9093320     0.4742750     0.8400700
  C        1.5320507    -0.0164979     0.3970826
  C       -1.2151430    -0.9364420     0.3397180
  C        1.0549700    -1.3167000    -0.2286510
  H        0.7042560     1.8874530     0.9605880
  H       -0.8818830     0.4322700     1.9353370
  H        1.7837760    -0.2316310     1.4680400
  H       -1.9939520    -1.3968640     0.9617720
  H        0.8487068    -1.1292308    -1.2878948
  H        1.8059140    -2.1013880    -0.1265130
  H       -0.3930520     2.0121160    -1.0836700
  H       -2.3417080     0.9766970    -0.3400740
  H        2.3997000     0.9352960    -0.9928030
  H       -1.9956420    -1.6762600    -1.2784950
units angstrom
no_reorient  #important for SAPT in psi4, default
symmetry c1  #important for SAPT in psi4, default
}

set PROPERTIES_ORIGIN ["COM"]
properties('MP2/aug-cc-pvtz', properties = ['dipole'])
--------------------------------------------------------------------------

    Molecular point group: c1
  Charge       = 0
  Multiplicity = 1
  Basis Set: AUG-CC-PVTZ
    Blend: AUG-CC-PVTZ
  Basis Set: (AUG-CC-PVTZ AUX)
    Blend: AUG-CC-PVTZ-JKFIT

    Orbital Energies [Eh]
    ---------------------

    Doubly Occupied:

       1A    -20.591639     2A    -20.581218     3A    -20.575062
       4A    -20.571172     5A    -20.560341     6A    -11.354026
       7A    -11.298823     8A    -11.290644     9A    -11.285829
      10A    -11.277827    11A     -1.438873    12A     -1.393195
      13A     -1.377542    14A     -1.354788    15A     -1.350421
      16A     -1.059837    17A     -1.022755    18A     -0.899761
      19A     -0.869693    20A     -0.797200    21A     -0.752363
      22A     -0.728604    23A     -0.712798    24A     -0.697019
      25A     -0.670309    26A     -0.645973    27A     -0.621759
      28A     -0.614826    29A     -0.603232    30A     -0.582659
      31A     -0.572728    32A     -0.558661    33A     -0.543108
      34A     -0.514592    35A     -0.502979    36A     -0.491864
      37A     -0.487553    38A     -0.469852    39A     -0.442144
      40A     -0.415110

  @DF-RHF Final Energy:  -569.67327386625448

   => Energetics <=

    Nuclear Repulsion Energy =            634.1772443397263714
    One-Electron Energy =               -2042.5434719989159476
    Two-Electron Energy =                 838.6929537929349863
    Total Energy =                       -569.6732738662544762
  Basis Set: (AUG-CC-PVTZ AUX)
    Blend: AUG-CC-PVTZ-RI
    Molecular point group: c1

    Geometry (in Angstrom), charge = 0, multiplicity = 1:

       Center              X                  Y                   Z               Mass
    ------------   -----------------  -----------------  -----------------  -----------------
         O           -0.114607703353    -1.801407358808     0.456724143875    15.994914619570
         O            0.358591296647     1.392869641192    -1.022826856125    15.994914619570
         O           -1.954993703353     1.370211641192     0.470934143875    15.994914619570
         O            2.714977296647     0.449464641192    -0.203815856125    15.994914619570
         O           -1.671468703353    -0.801340358808    -0.996633856125    15.994914619570
         C            0.431753296647     1.012437641192     0.351598143875    12.000000000000
         C           -0.909169703353     0.473160641192     0.841921143875    12.000000000000
         C            1.532212996647    -0.017612258808     0.398933743875    12.000000000000
         C           -1.214980703353    -0.937556358808     0.341569143875    12.000000000000
         C            1.055132296647    -1.317814358808    -0.226799856125    12.000000000000
         H            0.704418296647     1.886338641192     0.962439143875     1.007825032230
         H           -0.881720703353     0.431155641192     1.937188143875     1.007825032230
         H            1.783938296647    -0.232745358808     1.469891143875     1.007825032230
         H           -1.993789703353    -1.397978358808     0.963623143875     1.007825032230
         H            0.848869096647    -1.130345158808    -1.286043656125     1.007825032230
         H            1.806076296647    -2.102502358808    -0.124661856125     1.007825032230
         H           -0.392889703353     2.011001641192    -1.081818856125     1.007825032230
         H           -2.341545703353     0.975582641192    -0.338222856125     1.007825032230
         H            2.399862296647     0.934181641192    -0.990951856125     1.007825032230
         H           -1.995479703353    -1.677374358808    -1.276643856125     1.007825032230

  Basis Set: AUG-CC-PVTZ
    Blend: AUG-CC-PVTZ
  Basis Set: (AUG-CC-PVTZ AUX)
    Blend: AUG-CC-PVTZ-JKFIT
	 Reference Energy          =    -569.6732738662544762 [Eh]
	 Singles Energy            =      -0.0000000000000000 [Eh]
	 Same-Spin Energy          =      -0.5548246469692208 [Eh]
	 Opposite-Spin Energy      =      -1.7041214133358844 [Eh]
	 Correlation Energy        =      -2.2589460603051053 [Eh]
	 Total Energy              =    -571.9322199265595827 [Eh]

	 ================> DF-SCS-MP2 Energies <==================
	-----------------------------------------------------------
	 SCS Same-Spin Scale       =       0.3333333333333333 [-]
	 SCS Opposite-Spin Scale   =       1.2000000000000000 [-]
	 SCS Same-Spin Energy      =      -0.1849415489897403 [Eh]
	 SCS Opposite-Spin Energy  =      -2.0449456960030612 [Eh]
	 SCS Correlation Energy    =      -2.2298872449928013 [Eh]
	 SCS Total Energy          =    -571.9031611112473001 [Eh]
	-----------------------------------------------------------

  Dipole Moment: [D]
     X:    -2.1713      Y:    -0.9589      Z:    -0.3357     Total:     2.3972

*** Psi4 exiting successfully. Buy a developer a beer!
