                               Psi4 1.3.2 release

  ==> Input File <==

--------------------------------------------------------------------------
#psi4
#
memory 32 gb

molecule  {
0 1
  O       -0.1147700    -1.8002930     0.4548730
  O        0.3676377     1.3860141    -1.0273177
  O       -1.9551560     1.3713260     0.4690830
  O        2.7148150     0.4505790    -0.2056670
  O       -1.6716310    -0.8002260    -0.9984850
  C        0.4315910     1.0135520     0.3497470
  C       -0.9093320     0.4742750     0.8400700
  C        1.5364061    -0.0276892     0.4073368
  C       -1.2151430    -0.9364420     0.3397180
  C        1.0549700    -1.3167000    -0.2286510
  H        0.7042560     1.8874530     0.9605880
  H       -0.8818830     0.4322700     1.9353370
  H        1.7837760    -0.2316310     1.4680400
  H       -1.9939520    -1.3968640     0.9617720
  H        0.8436020    -1.1475360    -1.2899680
  H        1.8059140    -2.1013880    -0.1265130
  H       -0.3930520     2.0121160    -1.0836700
  H       -2.3417080     0.9766970    -0.3400740
  H        2.3997000     0.9352960    -0.9928030
  H       -1.9956420    -1.6762600    -1.2784950
units angstrom
no_reorient  #important for SAPT in psi4, default
symmetry c1  #important for SAPT in psi4, default
}

set PROPERTIES_ORIGIN ["COM"]
properties('MP2/aug-cc-pvtz', properties = ['dipole'])
--------------------------------------------------------------------------

    Molecular point group: c1
  Charge       = 0
  Multiplicity = 1
  Basis Set: AUG-CC-PVTZ
    Blend: AUG-CC-PVTZ
  Basis Set: (AUG-CC-PVTZ AUX)
    Blend: AUG-CC-PVTZ-JKFIT

    Orbital Energies [Eh]
    ---------------------

    Doubly Occupied:

       1A    -20.591621     2A    -20.580898     3A    -20.575003
       4A    -20.572511     5A    -20.558998     6A    -11.353920
       7A    -11.298608     8A    -11.290722     9A    -11.285507
      10A    -11.277657    11A     -1.438740    12A     -1.391407
      13A     -1.376772    14A     -1.354347    15A     -1.348238
      16A     -1.058179    17A     -1.023192    18A     -0.898654
      19A     -0.869646    20A     -0.796839    21A     -0.752088
      22A     -0.728169    23A     -0.712096    24A     -0.696183
      25A     -0.668956    26A     -0.646504    27A     -0.621512
      28A     -0.613639    29A     -0.602769    30A     -0.583667
      31A     -0.572382    32A     -0.557172    33A     -0.543381
      34A     -0.514645    35A     -0.502792    36A     -0.491172
      37A     -0.487615    38A     -0.469932    39A     -0.440889
      40A     -0.416182

  @DF-RHF Final Energy:  -569.67314058411966

   => Energetics <=

    Nuclear Repulsion Energy =            633.9772266043894433
    One-Electron Energy =               -2042.1743303483140153
    Two-Electron Energy =                 838.5239631598049073
    Total Energy =                       -569.6731405841196647
  Basis Set: (AUG-CC-PVTZ AUX)
    Blend: AUG-CC-PVTZ-RI
    Molecular point group: c1

    Geometry (in Angstrom), charge = 0, multiplicity = 1:

       Center              X                  Y                   Z               Mass
    ------------   -----------------  -----------------  -----------------  -----------------
         O           -0.115903329924    -1.799539870397     0.456199400660    15.994914619570
         O            0.366504370076     1.386767229603    -1.025991299340    15.994914619570
         O           -1.956289329924     1.372079129603     0.470409400660    15.994914619570
         O            2.713681670076     0.451332129603    -0.204340599340    15.994914619570
         O           -1.672764329924    -0.799472870397    -0.997158599340    15.994914619570
         C            0.430457670076     1.014305129603     0.351073400660    12.000000000000
         C           -0.910465329924     0.475028129603     0.841396400660    12.000000000000
         C            1.535272770076    -0.026936070397     0.408663200660    12.000000000000
         C           -1.216276329924    -0.935688870397     0.341044400660    12.000000000000
         C            1.053836670076    -1.315946870397    -0.227324599340    12.000000000000
         H            0.703122670076     1.888206129603     0.961914400660     1.007825032230
         H           -0.883016329924     0.433023129603     1.936663400660     1.007825032230
         H            1.782642670076    -0.230877870397     1.469366400660     1.007825032230
         H           -1.995085329924    -1.396110870397     0.963098400660     1.007825032230
         H            0.842468670076    -1.146782870397    -1.288641599340     1.007825032230
         H            1.804780670076    -2.100634870397    -0.125186599340     1.007825032230
         H           -0.394185329924     2.012869129603    -1.082343599340     1.007825032230
         H           -2.342841329924     0.977450129603    -0.338747599340     1.007825032230
         H            2.398566670076     0.936049129603    -0.991476599340     1.007825032230
         H           -1.996775329924    -1.675506870397    -1.277168599340     1.007825032230

  Basis Set: AUG-CC-PVTZ
    Blend: AUG-CC-PVTZ
  Basis Set: (AUG-CC-PVTZ AUX)
    Blend: AUG-CC-PVTZ-JKFIT
	 Reference Energy          =    -569.6731405841196647 [Eh]
	 Singles Energy            =      -0.0000000000000000 [Eh]
	 Same-Spin Energy          =      -0.5549224300063484 [Eh]
	 Opposite-Spin Energy      =      -1.7044428564007061 [Eh]
	 Correlation Energy        =      -2.2593652864070544 [Eh]
	 Total Energy              =    -571.9325058705267111 [Eh]

	 ================> DF-SCS-MP2 Energies <==================
	-----------------------------------------------------------
	 SCS Same-Spin Scale       =       0.3333333333333333 [-]
	 SCS Opposite-Spin Scale   =       1.2000000000000000 [-]
	 SCS Same-Spin Energy      =      -0.1849741433354495 [Eh]
	 SCS Opposite-Spin Energy  =      -2.0453314276808472 [Eh]
	 SCS Correlation Energy    =      -2.2303055710162969 [Eh]
	 SCS Total Energy          =    -571.9034461551359527 [Eh]
	-----------------------------------------------------------

  Dipole Moment: [D]
     X:    -2.1896      Y:    -0.9662      Z:    -0.3219     Total:     2.4149

*** Psi4 exiting successfully. Buy a developer a beer!
