                               Psi4 1.3.2 release

  ==> Input File <==

--------------------------------------------------------------------------
#psi4
#
memory 32 gb

molecule  {
0 1
  O       -0.1147700    -1.8002930     0.4548730
  O        0.2867271     1.3728193    -1.0246862
  O       -1.9551560     1.3713260     0.4690830
  O        2.7148150     0.4505790    -0.2056670
  O       -1.6716310    -0.8002260    -0.9984850
  C        0.4315910     1.0135520     0.3497470
  C       -0.9388145     0.4869746     0.7668991
  C        1.5345100    -0.0288940     0.4204030
  C       -1.2151430    -0.9364420     0.3397180
  C        1.0549700    -1.3167000    -0.2286510
  H        0.7042560     1.8874530     0.9605880
  H       -0.8818830     0.4322700     1.9353370
  H        1.7837760    -0.2316310     1.4680400
  H       -1.9939520    -1.3968640     0.9617720
  H        0.8436020    -1.1475360    -1.2899680
  H        1.8059140    -2.1013880    -0.1265130
  H       -0.3930520     2.0121160    -1.0836700
  H       -2.3417080     0.9766970    -0.3400740
  H        2.3997000     0.9352960    -0.9928030
  H       -1.9956420    -1.6762600    -1.2784950
units angstrom
no_reorient  #important for SAPT in psi4, default
symmetry c1  #important for SAPT in psi4, default
}

set PROPERTIES_ORIGIN ["COM"]
properties('MP2/aug-cc-pvtz', properties = ['dipole'])
--------------------------------------------------------------------------

    Molecular point group: c1
  Charge       = 0
  Multiplicity = 1
  Basis Set: AUG-CC-PVTZ
    Blend: AUG-CC-PVTZ
  Basis Set: (AUG-CC-PVTZ AUX)
    Blend: AUG-CC-PVTZ-JKFIT

    Orbital Energies [Eh]
    ---------------------

    Doubly Occupied:

       1A    -20.588967     2A    -20.581711     3A    -20.579282
       4A    -20.564180     5A    -20.560891     6A    -11.352298
       7A    -11.298219     8A    -11.291106     9A    -11.287440
      10A    -11.278650    11A     -1.441554    12A     -1.401906
      13A     -1.383677    14A     -1.356548    15A     -1.353250
      16A     -1.058076    17A     -1.022281    18A     -0.902138
      19A     -0.868508    20A     -0.799915    21A     -0.755105
      22A     -0.726651    23A     -0.713409    24A     -0.701512
      25A     -0.677007    26A     -0.645992    27A     -0.623077
      28A     -0.618670    29A     -0.603409    30A     -0.588516
      31A     -0.570277    32A     -0.556829    33A     -0.540977
      34A     -0.513035    35A     -0.502249    36A     -0.493286
      37A     -0.481579    38A     -0.473389    39A     -0.432633
      40A     -0.418206

  @DF-RHF Final Energy:  -569.66645795149134

   => Energetics <=

    Nuclear Repulsion Energy =            635.5610031598459955
    One-Electron Energy =               -2045.2421118773597755
    Two-Electron Energy =                 840.0146507660224415
    Total Energy =                       -569.6664579514913385
  Basis Set: (AUG-CC-PVTZ AUX)
    Blend: AUG-CC-PVTZ-RI
    Molecular point group: c1

    Geometry (in Angstrom), charge = 0, multiplicity = 1:

       Center              X                  Y                   Z               Mass
    ------------   -----------------  -----------------  -----------------  -----------------
         O           -0.104769241936    -1.799052627986     0.460725578619    15.994914619570
         O            0.296727858064     1.374059672014    -1.018833621381    15.994914619570
         O           -1.945155241936     1.372566372014     0.474935578619    15.994914619570
         O            2.724815758064     0.451819372014    -0.199814421381    15.994914619570
         O           -1.661630241936    -0.798985627986    -0.992632421381    15.994914619570
         C            0.441591758064     1.014792372014     0.355599578619    12.000000000000
         C           -0.928813741936     0.488214972014     0.772751678619    12.000000000000
         C            1.544510758064    -0.027653627986     0.426255578619    12.000000000000
         C           -1.205142241936    -0.935201627986     0.345570578619    12.000000000000
         C            1.064970758064    -1.315459627986    -0.222798421381    12.000000000000
         H            0.714256758064     1.888693372014     0.966440578619     1.007825032230
         H           -0.871882241936     0.433510372014     1.941189578619     1.007825032230
         H            1.793776758064    -0.230390627986     1.473892578619     1.007825032230
         H           -1.983951241936    -1.395623627986     0.967624578619     1.007825032230
         H            0.853602758064    -1.146295627986    -1.284115421381     1.007825032230
         H            1.815914758064    -2.100147627986    -0.120660421381     1.007825032230
         H           -0.383051241936     2.013356372014    -1.077817421381     1.007825032230
         H           -2.331707241936     0.977937372014    -0.334221421381     1.007825032230
         H            2.409700758064     0.936536372014    -0.986950421381     1.007825032230
         H           -1.985641241936    -1.675019627986    -1.272642421381     1.007825032230

  Basis Set: AUG-CC-PVTZ
    Blend: AUG-CC-PVTZ
  Basis Set: (AUG-CC-PVTZ AUX)
    Blend: AUG-CC-PVTZ-JKFIT
	 Reference Energy          =    -569.6664579514913385 [Eh]
	 Singles Energy            =      -0.0000000000000000 [Eh]
	 Same-Spin Energy          =      -0.5545799772973476 [Eh]
	 Opposite-Spin Energy      =      -1.7031134310232861 [Eh]
	 Correlation Energy        =      -2.2576934083206339 [Eh]
	 Total Energy              =    -571.9241513598119582 [Eh]

	 ================> DF-SCS-MP2 Energies <==================
	-----------------------------------------------------------
	 SCS Same-Spin Scale       =       0.3333333333333333 [-]
	 SCS Opposite-Spin Scale   =       1.2000000000000000 [-]
	 SCS Same-Spin Energy      =      -0.1848599924324492 [Eh]
	 SCS Opposite-Spin Energy  =      -2.0437361172279433 [Eh]
	 SCS Correlation Energy    =      -2.2285961096603923 [Eh]
	 SCS Total Energy          =    -571.8950540611517681 [Eh]
	-----------------------------------------------------------

  Dipole Moment: [D]
     X:    -2.0915      Y:    -0.8588      Z:    -0.4188     Total:     2.2994

*** Psi4 exiting successfully. Buy a developer a beer!
