                               Psi4 1.3.2 release

  ==> Input File <==

--------------------------------------------------------------------------
#psi4
#
memory 32 gb

molecule  {
0 1
  O       -0.1141882    -1.7904880     0.4626905
  O        0.3584290     1.3939840    -1.0246780
  O       -1.9551560     1.3713260     0.4690830
  O        2.7148150     0.4505790    -0.2056670
  O       -1.6716310    -0.8002260    -0.9984850
  C        0.4315910     1.0135520     0.3497470
  C       -0.9093320     0.4742750     0.8400700
  C        1.5245364    -0.0296382     0.4291130
  C       -1.2151430    -0.9364420     0.3397180
  C        1.0549700    -1.3167000    -0.2286510
  H        0.7042560     1.8874530     0.9605880
  H       -0.8818830     0.4322700     1.9353370
  H        1.7837760    -0.2316310     1.4680400
  H       -1.9939520    -1.3968640     0.9617720
  H        0.8436020    -1.1475360    -1.2899680
  H        1.8059140    -2.1013880    -0.1265130
  H       -0.3930520     2.0121160    -1.0836700
  H       -2.3417080     0.9766970    -0.3400740
  H        2.3997000     0.9352960    -0.9928030
  H       -1.9956420    -1.6762600    -1.2784950
units angstrom
no_reorient  #important for SAPT in psi4, default
symmetry c1  #important for SAPT in psi4, default
}

set PROPERTIES_ORIGIN ["COM"]
properties('MP2/aug-cc-pvtz', properties = ['dipole'])
--------------------------------------------------------------------------

    Molecular point group: c1
  Charge       = 0
  Multiplicity = 1
  Basis Set: AUG-CC-PVTZ
    Blend: AUG-CC-PVTZ
  Basis Set: (AUG-CC-PVTZ AUX)
    Blend: AUG-CC-PVTZ-JKFIT

    Orbital Energies [Eh]
    ---------------------

    Doubly Occupied:

       1A    -20.591831     2A    -20.580530     3A    -20.574242
       4A    -20.571355     5A    -20.556633     6A    -11.353637
       7A    -11.297926     8A    -11.291153     9A    -11.285275
      10A    -11.278954    11A     -1.439719    12A     -1.390963
      13A     -1.374801    14A     -1.354186    15A     -1.344706
      16A     -1.060236    17A     -1.023850    18A     -0.898821
      19A     -0.870228    20A     -0.798424    21A     -0.752618
      22A     -0.728074    23A     -0.712357    24A     -0.695667
      25A     -0.669086    26A     -0.645513    27A     -0.620851
      28A     -0.614089    29A     -0.602756    30A     -0.584921
      31A     -0.570782    32A     -0.554629    33A     -0.542466
      34A     -0.517187    35A     -0.503006    36A     -0.490632
      37A     -0.487170    38A     -0.473614    39A     -0.440816
      40A     -0.415701

  @DF-RHF Final Energy:  -569.67435601336183

   => Energetics <=

    Nuclear Repulsion Energy =            634.0719644053821185
    One-Electron Energy =               -2042.3738314364745747
    Two-Electron Energy =                 838.6275110177307397
    Total Energy =                       -569.6743560133618303
  Basis Set: (AUG-CC-PVTZ AUX)
    Blend: AUG-CC-PVTZ-RI
    Molecular point group: c1

    Geometry (in Angstrom), charge = 0, multiplicity = 1:

       Center              X                  Y                   Z               Mass
    ------------   -----------------  -----------------  -----------------  -----------------
         O           -0.113452701850    -1.791473724768     0.461160730336    15.994914619570
         O            0.359164498150     1.392998275232    -1.026207769664    15.994914619570
         O           -1.954420501850     1.370340275232     0.467553230336    15.994914619570
         O            2.715550498150     0.449593275232    -0.207196769664    15.994914619570
         O           -1.670895501850    -0.801211724768    -1.000014769664    15.994914619570
         C            0.432326498150     1.012566275232     0.348217230336    12.000000000000
         C           -0.908596501850     0.473289275232     0.838540230336    12.000000000000
         C            1.525271898150    -0.030623924768     0.427583230336    12.000000000000
         C           -1.214407501850    -0.937427724768     0.338188230336    12.000000000000
         C            1.055705498150    -1.317685724768    -0.230180769664    12.000000000000
         H            0.704991498150     1.886467275232     0.959058230336     1.007825032230
         H           -0.881147501850     0.431284275232     1.933807230336     1.007825032230
         H            1.784511498150    -0.232616724768     1.466510230336     1.007825032230
         H           -1.993216501850    -1.397849724768     0.960242230336     1.007825032230
         H            0.844337498150    -1.148521724768    -1.291497769664     1.007825032230
         H            1.806649498150    -2.102373724768    -0.128042769664     1.007825032230
         H           -0.392316501850     2.011130275232    -1.085199769664     1.007825032230
         H           -2.340972501850     0.975711275232    -0.341603769664     1.007825032230
         H            2.400435498150     0.934310275232    -0.994332769664     1.007825032230
         H           -1.994906501850    -1.677245724768    -1.280024769664     1.007825032230

  Basis Set: AUG-CC-PVTZ
    Blend: AUG-CC-PVTZ
  Basis Set: (AUG-CC-PVTZ AUX)
    Blend: AUG-CC-PVTZ-JKFIT
	 Reference Energy          =    -569.6743560133618303 [Eh]
	 Singles Energy            =      -0.0000000000000000 [Eh]
	 Same-Spin Energy          =      -0.5546413805109942 [Eh]
	 Opposite-Spin Energy      =      -1.7039680795614507 [Eh]
	 Correlation Energy        =      -2.2586094600724449 [Eh]
	 Total Energy              =    -571.9329654734342512 [Eh]

	 ================> DF-SCS-MP2 Energies <==================
	-----------------------------------------------------------
	 SCS Same-Spin Scale       =       0.3333333333333333 [-]
	 SCS Opposite-Spin Scale   =       1.2000000000000000 [-]
	 SCS Same-Spin Energy      =      -0.1848804601703314 [Eh]
	 SCS Opposite-Spin Energy  =      -2.0447616954737406 [Eh]
	 SCS Correlation Energy    =      -2.2296421556440720 [Eh]
	 SCS Total Energy          =    -571.9039981690059449 [Eh]
	-----------------------------------------------------------

  Dipole Moment: [D]
     X:    -2.2079      Y:    -1.0404      Z:    -0.2948     Total:     2.4585

*** Psi4 exiting successfully. Buy a developer a beer!
