                               Psi4 1.3.2 release

  ==> Input File <==

--------------------------------------------------------------------------
#psi4
#
memory 32 gb

molecule  {
0 1
  O       -0.1147700    -1.8002930     0.4548730
  O        0.3584290     1.3939840    -1.0246780
  O       -1.9551560     1.3713260     0.4690830
  O        2.7148150     0.4505790    -0.2056670
  O       -1.6716310    -0.8002260    -0.9984850
  C        0.4315910     1.0135520     0.3497470
  C       -0.9093320     0.4742750     0.8400700
  C        1.5345100    -0.0288940     0.4204030
  C       -1.2414216    -0.9676956     0.3667953
  C        1.0796559    -1.3577546    -0.2136070
  H        0.7042560     1.8874530     0.9605880
  H       -0.8818830     0.4322700     1.9353370
  H        1.7837760    -0.2316310     1.4680400
  H       -1.9939520    -1.3968640     0.9617720
  H        0.8436020    -1.1475360    -1.2899680
  H        1.8059140    -2.1013880    -0.1265130
  H       -0.3930520     2.0121160    -1.0836700
  H       -2.3417080     0.9766970    -0.3400740
  H        2.3997000     0.9352960    -0.9928030
  H       -1.9956420    -1.6762600    -1.2784950
units angstrom
no_reorient  #important for SAPT in psi4, default
symmetry c1  #important for SAPT in psi4, default
}

set PROPERTIES_ORIGIN ["COM"]
properties('MP2/aug-cc-pvtz', properties = ['dipole'])
--------------------------------------------------------------------------

    Molecular point group: c1
  Charge       = 0
  Multiplicity = 1
  Basis Set: AUG-CC-PVTZ
    Blend: AUG-CC-PVTZ
  Basis Set: (AUG-CC-PVTZ AUX)
    Blend: AUG-CC-PVTZ-JKFIT

    Orbital Energies [Eh]
    ---------------------

    Doubly Occupied:

       1A    -20.589610     2A    -20.577798     3A    -20.573335
       4A    -20.570153     5A    -20.557289     6A    -11.354189
       7A    -11.298373     8A    -11.291848     9A    -11.285862
      10A    -11.279033    11A     -1.432837    12A     -1.389934
      13A     -1.373320    14A     -1.349298    15A     -1.346615
      16A     -1.054507    17A     -1.023131    18A     -0.897741
      19A     -0.872670    20A     -0.794048    21A     -0.755500
      22A     -0.727247    23A     -0.710130    24A     -0.693128
      25A     -0.668012    26A     -0.642278    27A     -0.621225
      28A     -0.612108    29A     -0.604051    30A     -0.587914
      31A     -0.571976    32A     -0.558189    33A     -0.541281
      34A     -0.516118    35A     -0.507557    36A     -0.487372
      37A     -0.482291    38A     -0.468665    39A     -0.442109
      40A     -0.410719

  @DF-RHF Final Energy:  -569.66915232716144

   => Energetics <=

    Nuclear Repulsion Energy =            632.0298019802527278
    One-Electron Energy =               -2038.3589902956671267
    Two-Electron Energy =                 836.6600359882528437
    Total Energy =                       -569.6691523271614415
  Basis Set: (AUG-CC-PVTZ AUX)
    Blend: AUG-CC-PVTZ-RI
    Molecular point group: c1

    Geometry (in Angstrom), charge = 0, multiplicity = 1:

       Center              X                  Y                   Z               Mass
    ------------   -----------------  -----------------  -----------------  -----------------
         O           -0.114642720720    -1.794510454004     0.451504575464    15.994914619570
         O            0.358556279280     1.399766545996    -1.028046424536    15.994914619570
         O           -1.955028720720     1.377108545996     0.465714575464    15.994914619570
         O            2.714942279280     0.456361545996    -0.209035424536    15.994914619570
         O           -1.671503720720    -0.794443454004    -1.001853424536    15.994914619570
         C            0.431718279280     1.019334545996     0.346378575464    12.000000000000
         C           -0.909204720720     0.480057545996     0.836701575464    12.000000000000
         C            1.534637279280    -0.023111454004     0.417034575464    12.000000000000
         C           -1.241294320720    -0.961913054004     0.363426875464    12.000000000000
         C            1.079783179280    -1.351972054004    -0.216975424536    12.000000000000
         H            0.704383279280     1.893235545996     0.957219575464     1.007825032230
         H           -0.881755720720     0.438052545996     1.931968575464     1.007825032230
         H            1.783903279280    -0.225848454004     1.464671575464     1.007825032230
         H           -1.993824720720    -1.391081454004     0.958403575464     1.007825032230
         H            0.843729279280    -1.141753454004    -1.293336424536     1.007825032230
         H            1.806041279280    -2.095605454004    -0.129881424536     1.007825032230
         H           -0.392924720720     2.017898545996    -1.087038424536     1.007825032230
         H           -2.341580720720     0.982479545996    -0.343442424536     1.007825032230
         H            2.399827279280     0.941078545996    -0.996171424536     1.007825032230
         H           -1.995514720720    -1.670477454004    -1.281863424536     1.007825032230

  Basis Set: AUG-CC-PVTZ
    Blend: AUG-CC-PVTZ
  Basis Set: (AUG-CC-PVTZ AUX)
    Blend: AUG-CC-PVTZ-JKFIT
	 Reference Energy          =    -569.6691523271614415 [Eh]
	 Singles Energy            =      -0.0000000000000000 [Eh]
	 Same-Spin Energy          =      -0.5541518673177290 [Eh]
	 Opposite-Spin Energy      =      -1.7036869910905879 [Eh]
	 Correlation Energy        =      -2.2578388584083169 [Eh]
	 Total Energy              =    -571.9269911855697046 [Eh]

	 ================> DF-SCS-MP2 Energies <==================
	-----------------------------------------------------------
	 SCS Same-Spin Scale       =       0.3333333333333333 [-]
	 SCS Opposite-Spin Scale   =       1.2000000000000000 [-]
	 SCS Same-Spin Energy      =      -0.1847172891059097 [Eh]
	 SCS Opposite-Spin Energy  =      -2.0444243893087055 [Eh]
	 SCS Correlation Energy    =      -2.2291416784146154 [Eh]
	 SCS Total Energy          =    -571.8982940055760764 [Eh]
	-----------------------------------------------------------

  Dipole Moment: [D]
     X:    -2.1847      Y:    -1.0898      Z:    -0.1984     Total:     2.4494

*** Psi4 exiting successfully. Buy a developer a beer!
