                               Psi4 1.3.2 release

  ==> Input File <==

--------------------------------------------------------------------------
#psi4
#
memory 32 gb

molecule  {
0 1
  O       -0.1147700    -1.8002930     0.4548730
  O        0.3216568     1.4255677    -1.0130746
  O       -1.9551560     1.3713260     0.4690830
  O        2.7148150     0.4505790    -0.2056670
  O       -1.6716310    -0.8002260    -0.9984850
  C        0.4315910     1.0135520     0.3497470
  C       -0.9093320     0.4742750     0.8400700
  C        1.5260871    -0.0329186     0.4726040
  C       -1.2151430    -0.9364420     0.3397180
  C        1.0549700    -1.3167000    -0.2286510
  H        0.7042560     1.8874530     0.9605880
  H       -0.8818830     0.4322700     1.9353370
  H        1.7837760    -0.2316310     1.4680400
  H       -1.9939520    -1.3968640     0.9617720
  H        0.8436020    -1.1475360    -1.2899680
  H        1.8059140    -2.1013880    -0.1265130
  H       -0.3930520     2.0121160    -1.0836700
  H       -2.3417080     0.9766970    -0.3400740
  H        2.3997000     0.9352960    -0.9928030
  H       -1.9956420    -1.6762600    -1.2784950
units angstrom
no_reorient  #important for SAPT in psi4, default
symmetry c1  #important for SAPT in psi4, default
}

set PROPERTIES_ORIGIN ["COM"]
properties('MP2/aug-cc-pvtz', properties = ['dipole'])
--------------------------------------------------------------------------

    Molecular point group: c1
  Charge       = 0
  Multiplicity = 1
  Basis Set: AUG-CC-PVTZ
    Blend: AUG-CC-PVTZ
  Basis Set: (AUG-CC-PVTZ AUX)
    Blend: AUG-CC-PVTZ-JKFIT

    Orbital Energies [Eh]
    ---------------------

    Doubly Occupied:

       1A    -20.591582     2A    -20.580271     3A    -20.573257
       4A    -20.565916     5A    -20.555385     6A    -11.353761
       7A    -11.297608     8A    -11.292894     9A    -11.286944
      10A    -11.280514    11A     -1.438834    12A     -1.394441
      13A     -1.372858    14A     -1.353574    15A     -1.342497
      16A     -1.063016    17A     -1.022319    18A     -0.899258
      19A     -0.872245    20A     -0.805820    21A     -0.753094
      22A     -0.725969    23A     -0.711902    24A     -0.696338
      25A     -0.672145    26A     -0.644852    27A     -0.619693
      28A     -0.616263    29A     -0.604090    30A     -0.589579
      31A     -0.569386    32A     -0.552189    33A     -0.541054
      34A     -0.521318    35A     -0.501972    36A     -0.491505
      37A     -0.486518    38A     -0.475626    39A     -0.439442
      40A     -0.414076

  @DF-RHF Final Energy:  -569.67205166932774

   => Energetics <=

    Nuclear Repulsion Energy =            633.2527689329104987
    One-Electron Energy =               -2040.7096251089622001
    Two-Electron Energy =                 837.7848045067238445
    Total Energy =                       -569.6720516693277432
  Basis Set: (AUG-CC-PVTZ AUX)
    Blend: AUG-CC-PVTZ-RI
    Molecular point group: c1

    Geometry (in Angstrom), charge = 0, multiplicity = 1:

       Center              X                  Y                   Z               Mass
    ------------   -----------------  -----------------  -----------------  -----------------
         O           -0.110176756108    -1.803337890600     0.449461616289    15.994914619570
         O            0.326250043892     1.422522809400    -1.018485983711    15.994914619570
         O           -1.950562756108     1.368281109400     0.463671616289    15.994914619570
         O            2.719408243892     0.447534109400    -0.211078383711    15.994914619570
         O           -1.667037756108    -0.803270890600    -1.003896383711    15.994914619570
         C            0.436184243892     1.010507109400     0.344335616289    12.000000000000
         C           -0.904738756108     0.471230109400     0.834658616289    12.000000000000
         C            1.530680343892    -0.035963490600     0.467192616289    12.000000000000
         C           -1.210549756108    -0.939486890600     0.334306616289    12.000000000000
         C            1.059563243892    -1.319744890600    -0.234062383711    12.000000000000
         H            0.708849243892     1.884408109400     0.955176616289     1.007825032230
         H           -0.877289756108     0.429225109400     1.929925616289     1.007825032230
         H            1.788369243892    -0.234675890600     1.462628616289     1.007825032230
         H           -1.989358756108    -1.399908890600     0.956360616289     1.007825032230
         H            0.848195243892    -1.150580890600    -1.295379383711     1.007825032230
         H            1.810507243892    -2.104432890600    -0.131924383711     1.007825032230
         H           -0.388458756108     2.009071109400    -1.089081383711     1.007825032230
         H           -2.337114756108     0.973652109400    -0.345485383711     1.007825032230
         H            2.404293243892     0.932251109400    -0.998214383711     1.007825032230
         H           -1.991048756108    -1.679304890600    -1.283906383711     1.007825032230

  Basis Set: AUG-CC-PVTZ
    Blend: AUG-CC-PVTZ
  Basis Set: (AUG-CC-PVTZ AUX)
    Blend: AUG-CC-PVTZ-JKFIT
	 Reference Energy          =    -569.6720516693277432 [Eh]
	 Singles Energy            =      -0.0000000000000000 [Eh]
	 Same-Spin Energy          =      -0.5536093118111605 [Eh]
	 Opposite-Spin Energy      =      -1.7023060339655340 [Eh]
	 Correlation Energy        =      -2.2559153457766943 [Eh]
	 Total Energy              =    -571.9279670151044002 [Eh]

	 ================> DF-SCS-MP2 Energies <==================
	-----------------------------------------------------------
	 SCS Same-Spin Scale       =       0.3333333333333333 [-]
	 SCS Opposite-Spin Scale   =       1.2000000000000000 [-]
	 SCS Same-Spin Energy      =      -0.1845364372703868 [Eh]
	 SCS Opposite-Spin Energy  =      -2.0427672407586406 [Eh]
	 SCS Correlation Energy    =      -2.2273036780290276 [Eh]
	 SCS Total Energy          =    -571.8993553473567317 [Eh]
	-----------------------------------------------------------

  Dipole Moment: [D]
     X:    -2.1538      Y:    -1.1046      Z:    -0.2173     Total:     2.4303

*** Psi4 exiting successfully. Buy a developer a beer!
