                               Psi4 1.3.2 release

  ==> Input File <==

--------------------------------------------------------------------------
#psi4
#
memory 32 gb

molecule  {
0 1
  O       -0.1147700    -1.8002930     0.4548730
  O        0.3584290     1.3939840    -1.0246780
  O       -1.9551560     1.3713260     0.4690830
  O        2.7148150     0.4505790    -0.2056670
  O       -1.6716310    -0.8002260    -0.9984850
  C        0.4800556     1.0643291     0.3871536
  C       -0.9093320     0.4742750     0.8400700
  C        1.5345100    -0.0288940     0.4204030
  C       -1.2151430    -0.9364420     0.3397180
  C        1.1257009    -1.3490413    -0.2118631
  H        0.7042560     1.8874530     0.9605880
  H       -0.8818830     0.4322700     1.9353370
  H        1.7837760    -0.2316310     1.4680400
  H       -1.9939520    -1.3968640     0.9617720
  H        0.8436020    -1.1475360    -1.2899680
  H        1.8059140    -2.1013880    -0.1265130
  H       -0.3930520     2.0121160    -1.0836700
  H       -2.3417080     0.9766970    -0.3400740
  H        2.3997000     0.9352960    -0.9928030
  H       -1.9956420    -1.6762600    -1.2784950
units angstrom
no_reorient  #important for SAPT in psi4, default
symmetry c1  #important for SAPT in psi4, default
}

set PROPERTIES_ORIGIN ["COM"]
properties('MP2/aug-cc-pvtz', properties = ['dipole'])
--------------------------------------------------------------------------

    Molecular point group: c1
  Charge       = 0
  Multiplicity = 1
  Basis Set: AUG-CC-PVTZ
    Blend: AUG-CC-PVTZ
  Basis Set: (AUG-CC-PVTZ AUX)
    Blend: AUG-CC-PVTZ-JKFIT

    Orbital Energies [Eh]
    ---------------------

    Doubly Occupied:

       1A    -20.588724     2A    -20.574138     3A    -20.572769
       4A    -20.568631     5A    -20.556448     6A    -11.353045
       7A    -11.298449     8A    -11.291564     9A    -11.287768
      10A    -11.281390    11A     -1.430336    12A     -1.384619
      13A     -1.371530    14A     -1.346321    15A     -1.342999
      16A     -1.053124    17A     -1.021851    18A     -0.908073
      19A     -0.865565    20A     -0.794604    21A     -0.749989
      22A     -0.736033    23A     -0.706326    24A     -0.690737
      25A     -0.663753    26A     -0.642135    27A     -0.618422
      28A     -0.611240    29A     -0.604982    30A     -0.589467
      31A     -0.569069    32A     -0.564369    33A     -0.538364
      34A     -0.513889    35A     -0.504058    36A     -0.487645
      37A     -0.482489    38A     -0.468123    39A     -0.433902
      40A     -0.419688

  @DF-RHF Final Energy:  -569.65920068848823

   => Energetics <=

    Nuclear Repulsion Energy =            631.1046931255017398
    One-Electron Energy =               -2036.5545321002618948
    Two-Electron Energy =                 835.7906382862718146
    Total Energy =                       -569.6592006884882267
  Basis Set: (AUG-CC-PVTZ AUX)
    Blend: AUG-CC-PVTZ-RI
    Molecular point group: c1

    Geometry (in Angstrom), charge = 0, multiplicity = 1:

       Center              X                  Y                   Z               Mass
    ------------   -----------------  -----------------  -----------------  -----------------
         O           -0.124302375014    -1.801767418419     0.450539059476    15.994914619570
         O            0.348896624986     1.392509581581    -1.029011940524    15.994914619570
         O           -1.964688375014     1.369851581581     0.464749059476    15.994914619570
         O            2.705282624986     0.449104581581    -0.210000940524    15.994914619570
         O           -1.681163375014    -0.801700418419    -1.002818940524    15.994914619570
         C            0.470523224986     1.062854681581     0.382819659476    12.000000000000
         C           -0.918864375014     0.472800581581     0.835736059476    12.000000000000
         C            1.524977624986    -0.030368418419     0.416069059476    12.000000000000
         C           -1.224675375014    -0.937916418419     0.335384059476    12.000000000000
         C            1.116168524986    -1.350515718419    -0.216197040524    12.000000000000
         H            0.694723624986     1.885978581581     0.956254059476     1.007825032230
         H           -0.891415375014     0.430795581581     1.931003059476     1.007825032230
         H            1.774243624986    -0.233105418419     1.463706059476     1.007825032230
         H           -2.003484375014    -1.398338418419     0.957438059476     1.007825032230
         H            0.834069624986    -1.149010418419    -1.294301940524     1.007825032230
         H            1.796381624986    -2.102862418419    -0.130846940524     1.007825032230
         H           -0.402584375014     2.010641581581    -1.088003940524     1.007825032230
         H           -2.351240375014     0.975222581581    -0.344407940524     1.007825032230
         H            2.390167624986     0.933821581581    -0.997136940524     1.007825032230
         H           -2.005174375014    -1.677734418419    -1.282828940524     1.007825032230

  Basis Set: AUG-CC-PVTZ
    Blend: AUG-CC-PVTZ
  Basis Set: (AUG-CC-PVTZ AUX)
    Blend: AUG-CC-PVTZ-JKFIT
	 Reference Energy          =    -569.6592006884882267 [Eh]
	 Singles Energy            =      -0.0000000000000000 [Eh]
	 Same-Spin Energy          =      -0.5542074445618304 [Eh]
	 Opposite-Spin Energy      =      -1.7046389404685698 [Eh]
	 Correlation Energy        =      -2.2588463850304001 [Eh]
	 Total Energy              =    -571.9180470735186645 [Eh]

	 ================> DF-SCS-MP2 Energies <==================
	-----------------------------------------------------------
	 SCS Same-Spin Scale       =       0.3333333333333333 [-]
	 SCS Opposite-Spin Scale   =       1.2000000000000000 [-]
	 SCS Same-Spin Energy      =      -0.1847358148539434 [Eh]
	 SCS Opposite-Spin Energy  =      -2.0455667285622838 [Eh]
	 SCS Correlation Energy    =      -2.2303025434162271 [Eh]
	 SCS Total Energy          =    -571.8895032319044276 [Eh]
	-----------------------------------------------------------

  Dipole Moment: [D]
     X:    -1.9841      Y:    -0.9512      Z:    -0.2105     Total:     2.2103

*** Psi4 exiting successfully. Buy a developer a beer!
