                               Psi4 1.3.2 release

  ==> Input File <==

--------------------------------------------------------------------------
#psi4
#
memory 32 gb

molecule  {
0 1
  O       -0.1147700    -1.8002930     0.4548730
  O        0.3584290     1.3939840    -1.0246780
  O       -1.9551560     1.3713260     0.4690830
  O        2.7148150     0.4505790    -0.2056670
  O       -1.6716310    -0.8002260    -0.9984850
  C        0.4318702     1.0128659     0.3365098
  C       -0.9093320     0.4742750     0.8400700
  C        1.5345100    -0.0288940     0.4204030
  C       -1.2151430    -0.9364420     0.3397180
  C        1.0549700    -1.3167000    -0.2286510
  H        0.7042560     1.8874530     0.9605880
  H       -0.8818830     0.4322700     1.9353370
  H        1.7903612    -0.2379589     1.4652050
  H       -1.9939520    -1.3968640     0.9617720
  H        0.8436020    -1.1475360    -1.2899680
  H        1.8059140    -2.1013880    -0.1265130
  H       -0.3930520     2.0121160    -1.0836700
  H       -2.3417080     0.9766970    -0.3400740
  H        2.3997000     0.9352960    -0.9928030
  H       -1.9956420    -1.6762600    -1.2784950
units angstrom
no_reorient  #important for SAPT in psi4, default
symmetry c1  #important for SAPT in psi4, default
}

set PROPERTIES_ORIGIN ["COM"]
properties('MP2/aug-cc-pvtz', properties = ['dipole'])
--------------------------------------------------------------------------

    Molecular point group: c1
  Charge       = 0
  Multiplicity = 1
  Basis Set: AUG-CC-PVTZ
    Blend: AUG-CC-PVTZ
  Basis Set: (AUG-CC-PVTZ AUX)
    Blend: AUG-CC-PVTZ-JKFIT

    Orbital Energies [Eh]
    ---------------------

    Doubly Occupied:

       1A    -20.591605     2A    -20.580634     3A    -20.574544
       4A    -20.572700     5A    -20.558034     6A    -11.353526
       7A    -11.298116     8A    -11.291285     9A    -11.285312
      10A    -11.277866    11A     -1.438804    12A     -1.394420
      13A     -1.375873    14A     -1.353963    15A     -1.349500
      16A     -1.057951    17A     -1.022786    18A     -0.898012
      19A     -0.869419    20A     -0.799480    21A     -0.752652
      22A     -0.727485    23A     -0.712076    24A     -0.696567
      25A     -0.671069    26A     -0.646068    27A     -0.620936
      28A     -0.615345    29A     -0.602831    30A     -0.584566
      31A     -0.571583    32A     -0.555787    33A     -0.544264
      34A     -0.517073    35A     -0.502418    36A     -0.491267
      37A     -0.487592    38A     -0.471599    39A     -0.439431
      40A     -0.414430

  @DF-RHF Final Energy:  -569.67464021448495

   => Energetics <=

    Nuclear Repulsion Energy =            633.9656727094863982
    One-Electron Energy =               -2042.1428889655549028
    Two-Electron Energy =                 838.5025760415835521
    Total Energy =                       -569.6746402144849526
  Basis Set: (AUG-CC-PVTZ AUX)
    Blend: AUG-CC-PVTZ-RI
    Molecular point group: c1

    Geometry (in Angstrom), charge = 0, multiplicity = 1:

       Center              X                  Y                   Z               Mass
    ------------   -----------------  -----------------  -----------------  -----------------
         O           -0.114836649290    -1.800195703801     0.455950737613    15.994914619570
         O            0.358362350710     1.394081296199    -1.023600262387    15.994914619570
         O           -1.955222649290     1.371423296199     0.470160737613    15.994914619570
         O            2.714748350710     0.450676296199    -0.204589262387    15.994914619570
         O           -1.671697649290    -0.800128703801    -0.997407262387    15.994914619570
         C            0.431803550710     1.012963196199     0.337587537613    12.000000000000
         C           -0.909398649290     0.474372296199     0.841147737613    12.000000000000
         C            1.534443350710    -0.028796703801     0.421480737613    12.000000000000
         C           -1.215209649290    -0.936344703801     0.340795737613    12.000000000000
         C            1.054903350710    -1.316602703801    -0.227573262387    12.000000000000
         H            0.704189350710     1.887550296199     0.961665737613     1.007825032230
         H           -0.881949649290     0.432367296199     1.936414737613     1.007825032230
         H            1.790294550710    -0.237861603801     1.466282737613     1.007825032230
         H           -1.994018649290    -1.396766703801     0.962849737613     1.007825032230
         H            0.843535350710    -1.147438703801    -1.288890262387     1.007825032230
         H            1.805847350710    -2.101290703801    -0.125435262387     1.007825032230
         H           -0.393118649290     2.012213296199    -1.082592262387     1.007825032230
         H           -2.341774649290     0.976794296199    -0.338996262387     1.007825032230
         H            2.399633350710     0.935393296199    -0.991725262387     1.007825032230
         H           -1.995708649290    -1.676162703801    -1.277417262387     1.007825032230

  Basis Set: AUG-CC-PVTZ
    Blend: AUG-CC-PVTZ
  Basis Set: (AUG-CC-PVTZ AUX)
    Blend: AUG-CC-PVTZ-JKFIT
	 Reference Energy          =    -569.6746402144849526 [Eh]
	 Singles Energy            =      -0.0000000000000000 [Eh]
	 Same-Spin Energy          =      -0.5546151179839224 [Eh]
	 Opposite-Spin Energy      =      -1.7037448243707130 [Eh]
	 Correlation Energy        =      -2.2583599423546352 [Eh]
	 Total Energy              =    -571.9330001568396256 [Eh]

	 ================> DF-SCS-MP2 Energies <==================
	-----------------------------------------------------------
	 SCS Same-Spin Scale       =       0.3333333333333333 [-]
	 SCS Opposite-Spin Scale   =       1.2000000000000000 [-]
	 SCS Same-Spin Energy      =      -0.1848717059946408 [Eh]
	 SCS Opposite-Spin Energy  =      -2.0444937892448554 [Eh]
	 SCS Correlation Energy    =      -2.2293654952394961 [Eh]
	 SCS Total Energy          =    -571.9040057097244016 [Eh]
	-----------------------------------------------------------

  Dipole Moment: [D]
     X:    -2.1848      Y:    -0.9865      Z:    -0.3341     Total:     2.4203

*** Psi4 exiting successfully. Buy a developer a beer!
