                               Psi4 1.3.2 release

  ==> Input File <==

--------------------------------------------------------------------------
#psi4
#
memory 32 gb

molecule  {
0 1
  O       -0.1147700    -1.8002930     0.4548730
  O        0.3706708     1.4404843    -1.0115549
  O       -1.9551560     1.3713260     0.4690830
  O        2.7148150     0.4505790    -0.2056670
  O       -1.6716310    -0.8002260    -0.9984850
  C        0.4315910     1.0135520     0.3497470
  C       -0.9093320     0.4742750     0.8400700
  C        1.5345100    -0.0288940     0.4204030
  C       -1.2151430    -0.9364420     0.3397180
  C        1.0549700    -1.3167000    -0.2286510
  H        0.7053886     1.9086391     0.9285646
  H       -0.8818830     0.4322700     1.9353370
  H        1.7837760    -0.2316310     1.4680400
  H       -1.9939520    -1.3968640     0.9617720
  H        0.8436020    -1.1475360    -1.2899680
  H        1.8059140    -2.1013880    -0.1265130
  H       -0.3930520     2.0121160    -1.0836700
  H       -2.3417080     0.9766970    -0.3400740
  H        2.3997000     0.9352960    -0.9928030
  H       -1.9956420    -1.6762600    -1.2784950
units angstrom
no_reorient  #important for SAPT in psi4, default
symmetry c1  #important for SAPT in psi4, default
}

set PROPERTIES_ORIGIN ["COM"]
properties('MP2/aug-cc-pvtz', properties = ['dipole'])
--------------------------------------------------------------------------

    Molecular point group: c1
  Charge       = 0
  Multiplicity = 1
  Basis Set: AUG-CC-PVTZ
    Blend: AUG-CC-PVTZ
  Basis Set: (AUG-CC-PVTZ AUX)
    Blend: AUG-CC-PVTZ-JKFIT

    Orbital Energies [Eh]
    ---------------------

    Doubly Occupied:

       1A    -20.592724     2A    -20.581607     3A    -20.575026
       4A    -20.567639     5A    -20.558419     6A    -11.354800
       7A    -11.299495     8A    -11.290876     9A    -11.286503
      10A    -11.279129    11A     -1.439582    12A     -1.392685
      13A     -1.376271    14A     -1.354793    15A     -1.349093
      16A     -1.059896    17A     -1.023793    18A     -0.899634
      19A     -0.870531    20A     -0.800478    21A     -0.753557
      22A     -0.727308    23A     -0.713652    24A     -0.696929
      25A     -0.669003    26A     -0.647027    27A     -0.621714
      28A     -0.617634    29A     -0.602864    30A     -0.585748
      31A     -0.572350    32A     -0.556488    33A     -0.542132
      34A     -0.516749    35A     -0.503231    36A     -0.490490
      37A     -0.488080    38A     -0.471586    39A     -0.441852
      40A     -0.415831

  @DF-RHF Final Energy:  -569.67539557701366

   => Energetics <=

    Nuclear Repulsion Energy =            633.2470540288147731
    One-Electron Energy =               -2040.6705028953520014
    Two-Electron Energy =                 837.7480532895235683
    Total Energy =                       -569.6753955770136599
  Basis Set: (AUG-CC-PVTZ AUX)
    Blend: AUG-CC-PVTZ-RI
    Molecular point group: c1

    Geometry (in Angstrom), charge = 0, multiplicity = 1:

       Center              X                  Y                   Z               Mass
    ------------   -----------------  -----------------  -----------------  -----------------
         O           -0.116082616375    -1.805392079374     0.453689317561    15.994914619570
         O            0.369358183625     1.435385220626    -1.012738582439    15.994914619570
         O           -1.956468616375     1.366226920626     0.467899317561    15.994914619570
         O            2.713502383625     0.445479920626    -0.206850682439    15.994914619570
         O           -1.672943616375    -0.805325079374    -0.999668682439    15.994914619570
         C            0.430278383625     1.008452920626     0.348563317561    12.000000000000
         C           -0.910644616375     0.469175920626     0.838886317561    12.000000000000
         C            1.533197383625    -0.033993079374     0.419219317561    12.000000000000
         C           -1.216455616375    -0.941541079374     0.338534317561    12.000000000000
         C            1.053657383625    -1.321799079374    -0.229834682439    12.000000000000
         H            0.704075983625     1.903540020626     0.927380917561     1.007825032230
         H           -0.883195616375     0.427170920626     1.934153317561     1.007825032230
         H            1.782463383625    -0.236730079374     1.466856317561     1.007825032230
         H           -1.995264616375    -1.401963079374     0.960588317561     1.007825032230
         H            0.842289383625    -1.152635079374    -1.291151682439     1.007825032230
         H            1.804601383625    -2.106487079374    -0.127696682439     1.007825032230
         H           -0.394364616375     2.007016920626    -1.084853682439     1.007825032230
         H           -2.343020616375     0.971597920626    -0.341257682439     1.007825032230
         H            2.398387383625     0.930196920626    -0.993986682439     1.007825032230
         H           -1.996954616375    -1.681359079374    -1.279678682439     1.007825032230

  Basis Set: AUG-CC-PVTZ
    Blend: AUG-CC-PVTZ
  Basis Set: (AUG-CC-PVTZ AUX)
    Blend: AUG-CC-PVTZ-JKFIT
	 Reference Energy          =    -569.6753955770136599 [Eh]
	 Singles Energy            =      -0.0000000000000000 [Eh]
	 Same-Spin Energy          =      -0.5541863055697300 [Eh]
	 Opposite-Spin Energy      =      -1.7030160255271938 [Eh]
	 Correlation Energy        =      -2.2572023310969236 [Eh]
	 Total Energy              =    -571.9325979081105515 [Eh]

	 ================> DF-SCS-MP2 Energies <==================
	-----------------------------------------------------------
	 SCS Same-Spin Scale       =       0.3333333333333333 [-]
	 SCS Opposite-Spin Scale   =       1.2000000000000000 [-]
	 SCS Same-Spin Energy      =      -0.1847287685232433 [Eh]
	 SCS Opposite-Spin Energy  =      -2.0436192306326326 [Eh]
	 SCS Correlation Energy    =      -2.2283479991558761 [Eh]
	 SCS Total Energy          =    -571.9037435761695178 [Eh]
	-----------------------------------------------------------

  Dipole Moment: [D]
     X:    -2.2203      Y:    -1.1087      Z:    -0.3003     Total:     2.4998

*** Psi4 exiting successfully. Buy a developer a beer!
