                               Psi4 1.4a3.dev225

  ==> Input File <==

--------------------------------------------------------------------------
#psi4
#
memory 32 gb

molecule  {
0 1
  O       -0.2343850     1.7978400    -0.4145210
  O        0.4791390    -1.3900560     0.9851260
  O       -1.8902550    -1.4798720    -0.4079610
  O        2.7489250    -0.2990660     0.0843650
  O       -1.6766260     0.6849030     1.0797040
  C        0.4758930    -0.9871420    -0.3839460
  C       -0.9153110    -0.5160320    -0.8112700
  C        1.5489900     0.1569463    -0.4843138
  C       -1.2794180     0.8705190    -0.2725550
  C        0.9914930     1.3693070     0.2124490
  H        0.7732420    -1.8350180    -1.0199460
  H       -0.9367810    -0.4539690    -1.9062570
  H        1.7061480     0.3550680    -1.5342930
  H       -2.1075740     1.2945610    -0.8542440
  H        0.8333730     1.1741050     1.2776920
  H        1.6908660     2.1982840     0.0933200
  H       -0.2684360    -2.0097880     1.0741120
  H       -2.2907410    -1.1048270     0.4011470
  H        2.5001980    -0.8049050     0.8819700
  H       -2.0397460     1.5332780     1.3914430
units angstrom
no_reorient  #important for SAPT in psi4, default
symmetry c1  #important for SAPT in psi4, default
}

set PROPERTIES_ORIGIN ["COM"]
properties('MP2/aug-cc-pvtz', properties = ['dipole'])
--------------------------------------------------------------------------

    Molecular point group: c1
  Charge       = 0
  Multiplicity = 1
  Basis Set: AUG-CC-PVTZ
    Blend: AUG-CC-PVTZ
  Basis Set: (AUG-CC-PVTZ AUX)
    Blend: AUG-CC-PVTZ-JKFIT

    Orbital Energies [Eh]
    ---------------------

    Doubly Occupied:

       1A    -20.591751     2A    -20.582006     3A    -20.574124
       4A    -20.569147     5A    -20.559702     6A    -11.354435
       7A    -11.298261     8A    -11.290919     9A    -11.286710
      10A    -11.278260    11A     -1.437894    12A     -1.390238
      13A     -1.376642    14A     -1.354603    15A     -1.349420
      16A     -1.051723    17A     -1.024570    18A     -0.896644
      19A     -0.869038    20A     -0.799397    21A     -0.752594
      22A     -0.725406    23A     -0.711838    24A     -0.695342
      25A     -0.668455    26A     -0.650059    27A     -0.622746
      28A     -0.613952    29A     -0.601110    30A     -0.587911
      31A     -0.573550    32A     -0.556837    33A     -0.542759
      34A     -0.513178    35A     -0.502886    36A     -0.490044
      37A     -0.488780    38A     -0.468044    39A     -0.435642
      40A     -0.416234

  @DF-RHF Final Energy:  -569.67295238688166

   => Energetics <=

    Nuclear Repulsion Energy =            632.5985140850721109
    One-Electron Energy =               -2039.4372243957338924
    Two-Electron Energy =                 837.1657579237801201
    Total Energy =                       -569.6729523868816614
  Basis Set: (AUG-CC-PVTZ AUX)
    Blend: AUG-CC-PVTZ-RI
    Molecular point group: c1

    Geometry (in Angstrom), charge = 0, multiplicity = 1:

       Center              X                  Y                   Z               Mass
    ------------   -----------------  -----------------  -----------------  -----------------
         O           -0.238056405370     1.797199185117    -0.415510313209    15.994914619570
         O            0.475467594630    -1.390696814883     0.984136686791    15.994914619570
         O           -1.893926405370    -1.480512814883    -0.408950313209    15.994914619570
         O            2.745253594630    -0.299706814883     0.083375686791    15.994914619570
         O           -1.680297405370     0.684262185117     1.078714686791    15.994914619570
         C            0.472221594630    -0.987782814883    -0.384935313209    12.000000000000
         C           -0.918982405370    -0.516672814883    -0.812259313209    12.000000000000
         C            1.545318594630     0.156305485117    -0.485303113209    12.000000000000
         C           -1.283089405370     0.869878185117    -0.273544313209    12.000000000000
         C            0.987821594630     1.368666185117     0.211459686791    12.000000000000
         H            0.769570594630    -1.835658814883    -1.020935313209     1.007825032230
         H           -0.940452405370    -0.454609814883    -1.907246313209     1.007825032230
         H            1.702476594630     0.354427185117    -1.535282313209     1.007825032230
         H           -2.111245405370     1.293920185117    -0.855233313209     1.007825032230
         H            0.829701594630     1.173464185117     1.276702686791     1.007825032230
         H            1.687194594630     2.197643185117     0.092330686791     1.007825032230
         H           -0.272107405370    -2.010428814883     1.073122686791     1.007825032230
         H           -2.294412405370    -1.105467814883     0.400157686791     1.007825032230
         H            2.496526594630    -0.805545814883     0.880980686791     1.007825032230
         H           -2.043417405370     1.532637185117     1.390453686791     1.007825032230

  Basis Set: AUG-CC-PVTZ
    Blend: AUG-CC-PVTZ
  Basis Set: (AUG-CC-PVTZ AUX)
    Blend: AUG-CC-PVTZ-JKFIT
	 Reference Energy          =    -569.6729523868816614 [Eh]
	 Singles Energy            =      -0.0000000000000000 [Eh]
	 Same-Spin Energy          =      -0.5543648129105775 [Eh]
	 Opposite-Spin Energy      =      -1.7035533116209680 [Eh]
	 Correlation Energy        =      -2.2579181245315456 [Eh]
	 Total Energy              =    -571.9308705114132181 [Eh]

	 ================> DF-SCS-MP2 Energies <==================
	-----------------------------------------------------------
	 SCS Same-Spin Scale       =       0.3333333333333333 [-]
	 SCS Opposite-Spin Scale   =       1.2000000000000000 [-]
	 SCS Same-Spin Energy      =      -0.1847882709701925 [Eh]
	 SCS Opposite-Spin Energy  =      -2.0442639739451614 [Eh]
	 SCS Correlation Energy    =      -2.2290522449153540 [Eh]
	 SCS Total Energy          =    -571.9020046317970127 [Eh]
	-----------------------------------------------------------

  Dipole Moment: [D]
     X:    -2.2130      Y:     0.9913      Z:     0.4060     Total:     2.4587

*** Psi4 exiting successfully. Buy a developer a beer!
