                               Psi4 1.3.2 release

  ==> Input File <==

--------------------------------------------------------------------------
#psi4
#
memory 32 gb

molecule  {
0 1
  O       -0.1147700    -1.8002930     0.4548730
  O        0.3584290     1.3939840    -1.0246780
  O       -1.9551560     1.3713260     0.4690830
  O        2.7148150     0.4505790    -0.2056670
  O       -1.6716310    -0.8002260    -0.9984850
  C        0.4315910     1.0135520     0.3497470
  C       -0.9046833     0.4175993     0.7839386
  C        1.5345100    -0.0288940     0.4204030
  C       -1.2151430    -0.9364420     0.3397180
  C        1.0549700    -1.3167000    -0.2286510
  H        0.7524760     1.8922914     0.9294243
  H       -0.8818830     0.4322700     1.9353370
  H        1.7837760    -0.2316310     1.4680400
  H       -1.9939520    -1.3968640     0.9617720
  H        0.8436020    -1.1475360    -1.2899680
  H        1.8059140    -2.1013880    -0.1265130
  H       -0.3930520     2.0121160    -1.0836700
  H       -2.3417080     0.9766970    -0.3400740
  H        2.3997000     0.9352960    -0.9928030
  H       -1.9956420    -1.6762600    -1.2784950
units angstrom
no_reorient  #important for SAPT in psi4, default
symmetry c1  #important for SAPT in psi4, default
}

set PROPERTIES_ORIGIN ["COM"]
properties('MP2/aug-cc-pvtz', properties = ['dipole'])
--------------------------------------------------------------------------

    Molecular point group: c1
  Charge       = 0
  Multiplicity = 1
  Basis Set: AUG-CC-PVTZ
    Blend: AUG-CC-PVTZ
  Basis Set: (AUG-CC-PVTZ AUX)
    Blend: AUG-CC-PVTZ-JKFIT

    Orbital Energies [Eh]
    ---------------------

    Doubly Occupied:

       1A    -20.592212     2A    -20.582470     3A    -20.574648
       4A    -20.569385     5A    -20.558624     6A    -11.354186
       7A    -11.300802     8A    -11.292959     9A    -11.285297
      10A    -11.279013    11A     -1.442335    12A     -1.390404
      13A     -1.373984    14A     -1.353680    15A     -1.346379
      16A     -1.062733    17A     -1.030908    18A     -0.906729
      19A     -0.865956    20A     -0.795898    21A     -0.755831
      22A     -0.728603    23A     -0.715525    24A     -0.689743
      25A     -0.669107    26A     -0.646177    27A     -0.622359
      28A     -0.617014    29A     -0.599598    30A     -0.581123
      31A     -0.569535    32A     -0.559636    33A     -0.537981
      34A     -0.513369    35A     -0.504256    36A     -0.495785
      37A     -0.487286    38A     -0.472823    39A     -0.439327
      40A     -0.421312

  @DF-RHF Final Energy:  -569.66429977504822

   => Energetics <=

    Nuclear Repulsion Energy =            634.9994285158825278
    One-Electron Energy =               -2044.1574708756568270
    Two-Electron Energy =                 839.4937425847260783
    Total Energy =                       -569.6642997750482209
  Basis Set: (AUG-CC-PVTZ AUX)
    Blend: AUG-CC-PVTZ-RI
    Molecular point group: c1

    Geometry (in Angstrom), charge = 0, multiplicity = 1:

       Center              X                  Y                   Z               Mass
    ------------   -----------------  -----------------  -----------------  -----------------
         O           -0.115465725048    -1.795793110712     0.459571334418    15.994914619570
         O            0.357733274952     1.398483889288    -1.019979665582    15.994914619570
         O           -1.955851725048     1.375825889288     0.473781334418    15.994914619570
         O            2.714119274952     0.455078889288    -0.200968665582    15.994914619570
         O           -1.672326725048    -0.795726110712    -0.993786665582    15.994914619570
         C            0.430895274952     1.018051889288     0.354445334418    12.000000000000
         C           -0.905379025048     0.422099189288     0.788636934418    12.000000000000
         C            1.533814274952    -0.024394110712     0.425101334418    12.000000000000
         C           -1.215838725048    -0.931942110712     0.344416334418    12.000000000000
         C            1.054274274952    -1.312200110712    -0.223952665582    12.000000000000
         H            0.751780274952     1.896791289288     0.934122634418     1.007825032230
         H           -0.882578725048     0.436769889288     1.940035334418     1.007825032230
         H            1.783080274952    -0.227131110712     1.472738334418     1.007825032230
         H           -1.994647725048    -1.392364110712     0.966470334418     1.007825032230
         H            0.842906274952    -1.143036110712    -1.285269665582     1.007825032230
         H            1.805218274952    -2.096888110712    -0.121814665582     1.007825032230
         H           -0.393747725048     2.016615889288    -1.078971665582     1.007825032230
         H           -2.342403725048     0.981196889288    -0.335375665582     1.007825032230
         H            2.399004274952     0.939795889288    -0.988104665582     1.007825032230
         H           -1.996337725048    -1.671760110712    -1.273796665582     1.007825032230

  Basis Set: AUG-CC-PVTZ
    Blend: AUG-CC-PVTZ
  Basis Set: (AUG-CC-PVTZ AUX)
    Blend: AUG-CC-PVTZ-JKFIT
	 Reference Energy          =    -569.6642997750482209 [Eh]
	 Singles Energy            =      -0.0000000000000000 [Eh]
	 Same-Spin Energy          =      -0.5555730091243716 [Eh]
	 Opposite-Spin Energy      =      -1.7057826087446188 [Eh]
	 Correlation Energy        =      -2.2613556178689906 [Eh]
	 Total Energy              =    -571.9256553929171787 [Eh]

	 ================> DF-SCS-MP2 Energies <==================
	-----------------------------------------------------------
	 SCS Same-Spin Scale       =       0.3333333333333333 [-]
	 SCS Opposite-Spin Scale   =       1.2000000000000000 [-]
	 SCS Same-Spin Energy      =      -0.1851910030414572 [Eh]
	 SCS Opposite-Spin Energy  =      -2.0469391304935427 [Eh]
	 SCS Correlation Energy    =      -2.2321301335349997 [Eh]
	 SCS Total Energy          =    -571.8964299085831726 [Eh]
	-----------------------------------------------------------

  Dipole Moment: [D]
     X:    -2.1193      Y:    -1.0530      Z:    -0.3378     Total:     2.3905

*** Psi4 exiting successfully. Buy a developer a beer!
