                               Psi4 1.4a3.dev225

  ==> Input File <==

--------------------------------------------------------------------------
#psi4
#
memory 32 gb

molecule  {
0 1
  O       -0.2343850     1.7978400    -0.4145210
  O        0.4791390    -1.3900560     0.9851260
  O       -1.8902550    -1.4798720    -0.4079610
  O        2.7489250    -0.2990660     0.0843650
  O       -1.6766260     0.6849030     1.0797040
  C        0.4757793    -0.9730258    -0.4319118
  C       -0.9153110    -0.5160320    -0.8112700
  C        1.5148540     0.1205520    -0.4811210
  C       -1.2794180     0.8705190    -0.2725550
  C        0.9914930     1.3693070     0.2124490
  H        0.7732420    -1.8350180    -1.0199460
  H       -0.9367810    -0.4539690    -1.9062570
  H        1.7061480     0.3550680    -1.5342930
  H       -2.1075740     1.2945610    -0.8542440
  H        0.8333730     1.1741050     1.2776920
  H        1.6908660     2.1982840     0.0933200
  H       -0.2684360    -2.0097880     1.0741120
  H       -2.2907410    -1.1048270     0.4011470
  H        2.5001980    -0.8049050     0.8819700
  H       -2.0397460     1.5332780     1.3914430
units angstrom
no_reorient  #important for SAPT in psi4, default
symmetry c1  #important for SAPT in psi4, default
}

set PROPERTIES_ORIGIN ["COM"]
properties('MP2/aug-cc-pvtz', properties = ['dipole'])
--------------------------------------------------------------------------

    Molecular point group: c1
  Charge       = 0
  Multiplicity = 1
  Basis Set: AUG-CC-PVTZ
    Blend: AUG-CC-PVTZ
  Basis Set: (AUG-CC-PVTZ AUX)
    Blend: AUG-CC-PVTZ-JKFIT

    Orbital Energies [Eh]
    ---------------------

    Doubly Occupied:

       1A    -20.592090     2A    -20.581869     3A    -20.576172
       4A    -20.564164     5A    -20.559661     6A    -11.356024
       7A    -11.301097     8A    -11.292086     9A    -11.287514
      10A    -11.279728    11A     -1.438223    12A     -1.383991
      13A     -1.374506    14A     -1.354248    15A     -1.338052
      16A     -1.064149    17A     -1.024113    18A     -0.900798
      19A     -0.873517    20A     -0.795383    21A     -0.751550
      22A     -0.727121    23A     -0.712127    24A     -0.694417
      25A     -0.663374    26A     -0.648031    27A     -0.621308
      28A     -0.610601    29A     -0.602093    30A     -0.585101
      31A     -0.573172    32A     -0.557650    33A     -0.536735
      34A     -0.512274    35A     -0.503604    36A     -0.489175
      37A     -0.487860    38A     -0.472142    39A     -0.446394
      40A     -0.419593

  @DF-RHF Final Energy:  -569.67113382553191

   => Energetics <=

    Nuclear Repulsion Energy =            632.8132410593751729
    One-Electron Energy =               -2039.8653339759221126
    Two-Electron Energy =                 837.3809590910149154
    Total Energy =                       -569.6711338255319106
  Basis Set: (AUG-CC-PVTZ AUX)
    Blend: AUG-CC-PVTZ-RI
    Molecular point group: c1

    Geometry (in Angstrom), charge = 0, multiplicity = 1:

       Center              X                  Y                   Z               Mass
    ------------   -----------------  -----------------  -----------------  -----------------
         O           -0.235317393930     1.798980805708    -0.411929734131    15.994914619570
         O            0.478206606070    -1.388915194292     0.987717265869    15.994914619570
         O           -1.891187393930    -1.478731194292    -0.405369734131    15.994914619570
         O            2.747992606070    -0.297925194292     0.086956265869    15.994914619570
         O           -1.677558393930     0.686043805708     1.082295265869    15.994914619570
         C            0.474846906070    -0.971884994292    -0.429320534131    12.000000000000
         C           -0.916243393930    -0.514891194292    -0.808678734131    12.000000000000
         C            1.513921606070     0.121692805708    -0.478529734131    12.000000000000
         C           -1.280350393930     0.871659805708    -0.269963734131    12.000000000000
         C            0.990560606070     1.370447805708     0.215040265869    12.000000000000
         H            0.772309606070    -1.833877194292    -1.017354734131     1.007825032230
         H           -0.937713393930    -0.452828194292    -1.903665734131     1.007825032230
         H            1.705215606070     0.356208805708    -1.531701734131     1.007825032230
         H           -2.108506393930     1.295701805708    -0.851652734131     1.007825032230
         H            0.832440606070     1.175245805708     1.280283265869     1.007825032230
         H            1.689933606070     2.199424805708     0.095911265869     1.007825032230
         H           -0.269368393930    -2.008647194292     1.076703265869     1.007825032230
         H           -2.291673393930    -1.103686194292     0.403738265869     1.007825032230
         H            2.499265606070    -0.803764194292     0.884561265869     1.007825032230
         H           -2.040678393930     1.534418805708     1.394034265869     1.007825032230

  Basis Set: AUG-CC-PVTZ
    Blend: AUG-CC-PVTZ
  Basis Set: (AUG-CC-PVTZ AUX)
    Blend: AUG-CC-PVTZ-JKFIT
	 Reference Energy          =    -569.6711338255319106 [Eh]
	 Singles Energy            =      -0.0000000000000000 [Eh]
	 Same-Spin Energy          =      -0.5547486206334589 [Eh]
	 Opposite-Spin Energy      =      -1.7049345042231916 [Eh]
	 Correlation Energy        =      -2.2596831248566502 [Eh]
	 Total Energy              =    -571.9308169503885892 [Eh]

	 ================> DF-SCS-MP2 Energies <==================
	-----------------------------------------------------------
	 SCS Same-Spin Scale       =       0.3333333333333333 [-]
	 SCS Opposite-Spin Scale   =       1.2000000000000000 [-]
	 SCS Same-Spin Energy      =      -0.1849162068778196 [Eh]
	 SCS Opposite-Spin Energy  =      -2.0459214050678298 [Eh]
	 SCS Correlation Energy    =      -2.2308376119456494 [Eh]
	 SCS Total Energy          =    -571.9019714374775276 [Eh]
	-----------------------------------------------------------

  Dipole Moment: [D]
     X:    -2.2883      Y:     1.0193      Z:     0.2718     Total:     2.5197

*** Psi4 exiting successfully. Buy a developer a beer!
