                               Psi4 1.3.2 release

  ==> Input File <==

--------------------------------------------------------------------------
#psi4
#
memory 32 gb

molecule  {
0 1
  O       -0.1147700    -1.8002930     0.4548730
  O        0.3584290     1.3939840    -1.0246780
  O       -1.9551560     1.3713260     0.4690830
  O        2.7148150     0.4505790    -0.2056670
  O       -1.6716310    -0.8002260    -0.9984850
  C        0.4315910     1.0135520     0.3497470
  C       -0.9093320     0.4742750     0.8400700
  C        1.5345100    -0.0288940     0.4204030
  C       -1.2151430    -0.9364420     0.3397180
  C        1.0549700    -1.3167000    -0.2286510
  H        0.7042560     1.8874530     0.9605880
  H       -0.8818830     0.4322700     1.9353370
  H        1.7837760    -0.2316310     1.4680400
  H       -2.0648853    -1.4387989     1.0184282
  H        0.8436020    -1.1475360    -1.2899680
  H        1.8059140    -2.1013880    -0.1265130
  H       -0.3930520     2.0121160    -1.0836700
  H       -2.3417080     0.9766970    -0.3400740
  H        2.3997000     0.9352960    -0.9928030
  H       -1.9956420    -1.6762600    -1.2784950
units angstrom
no_reorient  #important for SAPT in psi4, default
symmetry c1  #important for SAPT in psi4, default
}

set PROPERTIES_ORIGIN ["COM"]
properties('MP2/aug-cc-pvtz', properties = ['dipole'])
--------------------------------------------------------------------------

    Molecular point group: c1
  Charge       = 0
  Multiplicity = 1
  Basis Set: AUG-CC-PVTZ
    Blend: AUG-CC-PVTZ
  Basis Set: (AUG-CC-PVTZ AUX)
    Blend: AUG-CC-PVTZ-JKFIT

    Orbital Energies [Eh]
    ---------------------

    Doubly Occupied:

       1A    -20.593342     2A    -20.582121     3A    -20.574760
       4A    -20.571743     5A    -20.558775     6A    -11.365458
       7A    -11.299333     8A    -11.291791     9A    -11.286251
      10A    -11.279056    11A     -1.439279    12A     -1.392014
      13A     -1.376272    14A     -1.354941    15A     -1.348234
      16A     -1.059724    17A     -1.020401    18A     -0.897690
      19A     -0.866935    20A     -0.799061    21A     -0.746704
      22A     -0.726503    23A     -0.709710    24A     -0.694956
      25A     -0.670191    26A     -0.645812    27A     -0.621659
      28A     -0.614539    29A     -0.603453    30A     -0.584868
      31A     -0.568529    32A     -0.556710    33A     -0.543214
      34A     -0.516424    35A     -0.498407    36A     -0.490293
      37A     -0.488385    38A     -0.471302    39A     -0.439913
      40A     -0.415838

  @DF-RHF Final Energy:  -569.66744405289592

   => Energetics <=

    Nuclear Repulsion Energy =            633.2230089715143322
    One-Electron Energy =               -2040.6517258199860407
    Two-Electron Energy =                 837.7612727955756782
    Total Energy =                       -569.6674440528959167
  Basis Set: (AUG-CC-PVTZ AUX)
    Blend: AUG-CC-PVTZ-RI
    Molecular point group: c1

    Geometry (in Angstrom), charge = 0, multiplicity = 1:

       Center              X                  Y                   Z               Mass
    ------------   -----------------  -----------------  -----------------  -----------------
         O           -0.114293670605    -1.800011419192     0.454492563648    15.994914619570
         O            0.358905329395     1.394265580808    -1.025058436352    15.994914619570
         O           -1.954679670605     1.371607580808     0.468702563648    15.994914619570
         O            2.715291329395     0.450860580808    -0.206047436352    15.994914619570
         O           -1.671154670605    -0.799944419192    -0.998865436352    15.994914619570
         C            0.432067329395     1.013833580808     0.349366563648    12.000000000000
         C           -0.908855670605     0.474556580808     0.839689563648    12.000000000000
         C            1.534986329395    -0.028612419192     0.420022563648    12.000000000000
         C           -1.214666670605    -0.936160419192     0.339337563648    12.000000000000
         C            1.055446329395    -1.316418419192    -0.229031436352    12.000000000000
         H            0.704732329395     1.887734580808     0.960207563648     1.007825032230
         H           -0.881406670605     0.432551580808     1.934956563648     1.007825032230
         H            1.784252329395    -0.231349419192     1.467659563648     1.007825032230
         H           -2.064408970605    -1.438517319192     1.018047763648     1.007825032230
         H            0.844078329395    -1.147254419192    -1.290348436352     1.007825032230
         H            1.806390329395    -2.101106419192    -0.126893436352     1.007825032230
         H           -0.392575670605     2.012397580808    -1.084050436352     1.007825032230
         H           -2.341231670605     0.976978580808    -0.340454436352     1.007825032230
         H            2.400176329395     0.935577580808    -0.993183436352     1.007825032230
         H           -1.995165670605    -1.675978419192    -1.278875436352     1.007825032230

  Basis Set: AUG-CC-PVTZ
    Blend: AUG-CC-PVTZ
  Basis Set: (AUG-CC-PVTZ AUX)
    Blend: AUG-CC-PVTZ-JKFIT
	 Reference Energy          =    -569.6674440528959167 [Eh]
	 Singles Energy            =      -0.0000000000000000 [Eh]
	 Same-Spin Energy          =      -0.5548819788556503 [Eh]
	 Opposite-Spin Energy      =      -1.7049190867384911 [Eh]
	 Correlation Energy        =      -2.2598010655941412 [Eh]
	 Total Energy              =    -571.9272451184900774 [Eh]

	 ================> DF-SCS-MP2 Energies <==================
	-----------------------------------------------------------
	 SCS Same-Spin Scale       =       0.3333333333333333 [-]
	 SCS Opposite-Spin Scale   =       1.2000000000000000 [-]
	 SCS Same-Spin Energy      =      -0.1849606596185501 [Eh]
	 SCS Opposite-Spin Energy  =      -2.0459029040861894 [Eh]
	 SCS Correlation Energy    =      -2.2308635637047396 [Eh]
	 SCS Total Energy          =    -571.8983076166006185 [Eh]
	-----------------------------------------------------------

  Dipole Moment: [D]
     X:    -2.1219      Y:    -0.9665      Z:    -0.3507     Total:     2.3578

*** Psi4 exiting successfully. Buy a developer a beer!
