                               Psi4 1.3.2 release

  ==> Input File <==

--------------------------------------------------------------------------
#psi4
#
memory 32 gb

molecule  {
0 1
  O       -0.1147700    -1.8002930     0.4548730
  O        0.3584290     1.3939840    -1.0246780
  O       -1.9551560     1.3713260     0.4690830
  O        2.7148150     0.4505790    -0.2056670
  O       -1.6716310    -0.8002260    -0.9984850
  C        0.4315910     1.0135520     0.3497470
  C       -0.9093320     0.4742750     0.8400700
  C        1.5410086    -0.0684201     0.4891497
  C       -1.2151430    -0.9364420     0.3397180
  C        1.0549700    -1.3167000    -0.2286510
  H        0.7042560     1.8874530     0.9605880
  H       -0.8818830     0.4322700     1.9353370
  H        1.7837760    -0.2316310     1.4680400
  H       -1.9939520    -1.3968640     0.9617720
  H        0.8286801    -1.2027383    -1.2942458
  H        1.8059140    -2.1013880    -0.1265130
  H       -0.3930520     2.0121160    -1.0836700
  H       -2.3417080     0.9766970    -0.3400740
  H        2.3997000     0.9352960    -0.9928030
  H       -1.9956420    -1.6762600    -1.2784950
units angstrom
no_reorient  #important for SAPT in psi4, default
symmetry c1  #important for SAPT in psi4, default
}

set PROPERTIES_ORIGIN ["COM"]
properties('MP2/aug-cc-pvtz', properties = ['dipole'])
--------------------------------------------------------------------------

    Molecular point group: c1
  Charge       = 0
  Multiplicity = 1
  Basis Set: AUG-CC-PVTZ
    Blend: AUG-CC-PVTZ
  Basis Set: (AUG-CC-PVTZ AUX)
    Blend: AUG-CC-PVTZ-JKFIT

    Orbital Energies [Eh]
    ---------------------

    Doubly Occupied:

       1A    -20.591598     2A    -20.579566     3A    -20.573471
       4A    -20.571566     5A    -20.552242     6A    -11.353546
       7A    -11.297208     8A    -11.292942     9A    -11.286585
      10A    -11.279965    11A     -1.438541    12A     -1.388499
      13A     -1.371557    14A     -1.353006    15A     -1.335975
      16A     -1.057174    17A     -1.024306    18A     -0.895972
      19A     -0.873028    20A     -0.802511    21A     -0.752495
      22A     -0.725162    23A     -0.709932    24A     -0.693774
      25A     -0.667618    26A     -0.646400    27A     -0.620561
      28A     -0.611829    29A     -0.603497    30A     -0.592828
      31A     -0.570251    32A     -0.548476    33A     -0.543045
      34A     -0.518044    35A     -0.501839    36A     -0.490393
      37A     -0.485324    38A     -0.473143    39A     -0.435212
      40A     -0.416589

  @DF-RHF Final Energy:  -569.66634842768610

   => Energetics <=

    Nuclear Repulsion Energy =            632.7604388953612897
    One-Electron Energy =               -2039.8022386152747458
    Two-Electron Energy =                 837.3754512922272397
    Total Energy =                       -569.6663484276861027
  Basis Set: (AUG-CC-PVTZ AUX)
    Blend: AUG-CC-PVTZ-RI
    Molecular point group: c1

    Geometry (in Angstrom), charge = 0, multiplicity = 1:

       Center              X                  Y                   Z               Mass
    ------------   -----------------  -----------------  -----------------  -----------------
         O           -0.115189574380    -1.796761334277     0.449404025012    15.994914619570
         O            0.358009425620     1.397515665723    -1.030146974988    15.994914619570
         O           -1.955575574380     1.374857665723     0.463614025012    15.994914619570
         O            2.714395425620     0.454110665723    -0.211135974988    15.994914619570
         O           -1.672050574380    -0.796694334277    -1.003953974988    15.994914619570
         C            0.431171425620     1.017083665723     0.344278025012    12.000000000000
         C           -0.909751574380     0.477806665723     0.834601025012    12.000000000000
         C            1.540589025620    -0.064888434277     0.483680725012    12.000000000000
         C           -1.215562574380    -0.932910334277     0.334249025012    12.000000000000
         C            1.054550425620    -1.313168334277    -0.234119974988    12.000000000000
         H            0.703836425620     1.890984665723     0.955119025012     1.007825032230
         H           -0.882302574380     0.435801665723     1.929868025012     1.007825032230
         H            1.783356425620    -0.228099334277     1.462571025012     1.007825032230
         H           -1.994371574380    -1.393332334277     0.956303025012     1.007825032230
         H            0.828260525620    -1.199206634277    -1.299714774988     1.007825032230
         H            1.805494425620    -2.097856334277    -0.131981974988     1.007825032230
         H           -0.393471574380     2.015647665723    -1.089138974988     1.007825032230
         H           -2.342127574380     0.980228665723    -0.345542974988     1.007825032230
         H            2.399280425620     0.938827665723    -0.998271974988     1.007825032230
         H           -1.996061574380    -1.672728334277    -1.283963974988     1.007825032230

  Basis Set: AUG-CC-PVTZ
    Blend: AUG-CC-PVTZ
  Basis Set: (AUG-CC-PVTZ AUX)
    Blend: AUG-CC-PVTZ-JKFIT
	 Reference Energy          =    -569.6663484276861027 [Eh]
	 Singles Energy            =      -0.0000000000000000 [Eh]
	 Same-Spin Energy          =      -0.5543315340563282 [Eh]
	 Opposite-Spin Energy      =      -1.7041003558143055 [Eh]
	 Correlation Energy        =      -2.2584318898706339 [Eh]
	 Total Energy              =    -571.9247803175567242 [Eh]

	 ================> DF-SCS-MP2 Energies <==================
	-----------------------------------------------------------
	 SCS Same-Spin Scale       =       0.3333333333333333 [-]
	 SCS Opposite-Spin Scale   =       1.2000000000000000 [-]
	 SCS Same-Spin Energy      =      -0.1847771780187761 [Eh]
	 SCS Opposite-Spin Energy  =      -2.0449204269771664 [Eh]
	 SCS Correlation Energy    =      -2.2296976049959425 [Eh]
	 SCS Total Energy          =    -571.8960460326820794 [Eh]
	-----------------------------------------------------------

  Dipole Moment: [D]
     X:    -2.2224      Y:    -1.0992      Z:    -0.2064     Total:     2.4880

*** Psi4 exiting successfully. Buy a developer a beer!
