                               Psi4 1.3.2 release

  ==> Input File <==

--------------------------------------------------------------------------
#psi4
#
memory 32 gb

molecule  {
0 1
  O       -0.1147700    -1.8002930     0.4548730
  O        0.3584290     1.3939840    -1.0246780
  O       -1.9551560     1.3713260     0.4690830
  O        2.7148150     0.4505790    -0.2056670
  O       -1.6716310    -0.8002260    -0.9984850
  C        0.3923918     1.0428980     0.3590526
  C       -0.9093320     0.4742750     0.8400700
  C        1.5345100    -0.0288940     0.4204030
  C       -1.2151430    -0.9364420     0.3397180
  C        1.0549700    -1.3167000    -0.2286510
  H        0.7042560     1.8874530     0.9605880
  H       -0.8818830     0.4322700     1.9353370
  H        1.7837760    -0.2316310     1.4680400
  H       -1.9939520    -1.3968640     0.9617720
  H        0.8436020    -1.1475360    -1.2899680
  H        1.8059140    -2.1013880    -0.1265130
  H       -0.3980423     2.0083042    -1.0502283
  H       -2.3417080     0.9766970    -0.3400740
  H        2.3997000     0.9352960    -0.9928030
  H       -1.9956420    -1.6762600    -1.2784950
units angstrom
no_reorient  #important for SAPT in psi4, default
symmetry c1  #important for SAPT in psi4, default
}

set PROPERTIES_ORIGIN ["COM"]
properties('MP2/aug-cc-pvtz', properties = ['dipole'])
--------------------------------------------------------------------------

    Molecular point group: c1
  Charge       = 0
  Multiplicity = 1
  Basis Set: AUG-CC-PVTZ
    Blend: AUG-CC-PVTZ
  Basis Set: (AUG-CC-PVTZ AUX)
    Blend: AUG-CC-PVTZ-JKFIT

    Orbital Energies [Eh]
    ---------------------

    Doubly Occupied:

       1A    -20.591998     2A    -20.580672     3A    -20.574258
       4A    -20.572976     5A    -20.558184     6A    -11.355032
       7A    -11.297818     8A    -11.289959     9A    -11.286519
      10A    -11.277709    11A     -1.439085    12A     -1.393120
      13A     -1.375449    14A     -1.354194    15A     -1.348443
      16A     -1.056972    17A     -1.022268    18A     -0.899169
      19A     -0.868870    20A     -0.796540    21A     -0.752317
      22A     -0.729616    23A     -0.712875    24A     -0.695841
      25A     -0.668867    26A     -0.646631    27A     -0.621924
      28A     -0.613109    29A     -0.604139    30A     -0.584245
      31A     -0.571178    32A     -0.556293    33A     -0.547215
      34A     -0.514061    35A     -0.503317    36A     -0.491842
      37A     -0.487297    38A     -0.467721    39A     -0.441557
      40A     -0.416192

  @DF-RHF Final Energy:  -569.67111807960805

   => Energetics <=

    Nuclear Repulsion Energy =            633.6028670568216512
    One-Electron Energy =               -2041.4170286265396044
    Two-Electron Energy =                 838.1430434901099034
    Total Energy =                       -569.6711180796080498
  Basis Set: (AUG-CC-PVTZ AUX)
    Blend: AUG-CC-PVTZ-RI
    Molecular point group: c1

    Geometry (in Angstrom), charge = 0, multiplicity = 1:

       Center              X                  Y                   Z               Mass
    ------------   -----------------  -----------------  -----------------  -----------------
         O           -0.111601742624    -1.802614325326     0.453904297171    15.994914619570
         O            0.361597257376     1.391662674674    -1.025646702829    15.994914619570
         O           -1.951987742624     1.369004674674     0.468114297171    15.994914619570
         O            2.717983257376     0.448257674674    -0.206635702829    15.994914619570
         O           -1.668462742624    -0.802547325326    -0.999453702829    15.994914619570
         C            0.395560057376     1.040576674674     0.358083897171    12.000000000000
         C           -0.906163742624     0.471953674674     0.839101297171    12.000000000000
         C            1.537678257376    -0.031215325326     0.419434297171    12.000000000000
         C           -1.211974742624    -0.938763325326     0.338749297171    12.000000000000
         C            1.058138257376    -1.319021325326    -0.229619702829    12.000000000000
         H            0.707424257376     1.885131674674     0.959619297171     1.007825032230
         H           -0.878714742624     0.429948674674     1.934368297171     1.007825032230
         H            1.786944257376    -0.233952325326     1.467071297171     1.007825032230
         H           -1.990783742624    -1.399185325326     0.960803297171     1.007825032230
         H            0.846770257376    -1.149857325326    -1.290936702829     1.007825032230
         H            1.809082257376    -2.103709325326    -0.127481702829     1.007825032230
         H           -0.394874042624     2.005982874674    -1.051197002829     1.007825032230
         H           -2.338539742624     0.974375674674    -0.341042702829     1.007825032230
         H            2.402868257376     0.932974674674    -0.993771702829     1.007825032230
         H           -1.992473742624    -1.678581325326    -1.279463702829     1.007825032230

  Basis Set: AUG-CC-PVTZ
    Blend: AUG-CC-PVTZ
  Basis Set: (AUG-CC-PVTZ AUX)
    Blend: AUG-CC-PVTZ-JKFIT
	 Reference Energy          =    -569.6711180796080498 [Eh]
	 Singles Energy            =      -0.0000000000000000 [Eh]
	 Same-Spin Energy          =      -0.5548286772446518 [Eh]
	 Opposite-Spin Energy      =      -1.7044563625075657 [Eh]
	 Correlation Energy        =      -2.2592850397522177 [Eh]
	 Total Energy              =    -571.9304031193602214 [Eh]

	 ================> DF-SCS-MP2 Energies <==================
	-----------------------------------------------------------
	 SCS Same-Spin Scale       =       0.3333333333333333 [-]
	 SCS Opposite-Spin Scale   =       1.2000000000000000 [-]
	 SCS Same-Spin Energy      =      -0.1849428924148839 [Eh]
	 SCS Opposite-Spin Energy  =      -2.0453476350090787 [Eh]
	 SCS Correlation Energy    =      -2.2302905274239624 [Eh]
	 SCS Total Energy          =    -571.9014086070320673 [Eh]
	-----------------------------------------------------------

  Dipole Moment: [D]
     X:    -2.1989      Y:    -0.9874      Z:    -0.2585     Total:     2.4242

*** Psi4 exiting successfully. Buy a developer a beer!
