                               Psi4 1.3.2 release

  ==> Input File <==

--------------------------------------------------------------------------
#psi4
#
memory 32 gb

molecule  {
0 1
  O       -0.1147700    -1.8002930     0.4548730
  O        0.3584290     1.3939840    -1.0246780
  O       -1.9551560     1.3713260     0.4690830
  O        2.7148150     0.4505790    -0.2056670
  O       -1.6716310    -0.8002260    -0.9984850
  C        0.4315910     1.0135520     0.3497470
  C       -0.9093320     0.4742750     0.8400700
  C        1.5345100    -0.0288940     0.4204030
  C       -1.2551774    -1.1211220     0.2742158
  C        1.0549700    -1.3167000    -0.2286510
  H        0.7042560     1.8874530     0.9605880
  H       -0.8818830     0.4322700     1.9353370
  H        1.7837760    -0.2316310     1.4680400
  H       -1.9939520    -1.3968640     0.9617720
  H        0.8436020    -1.1475360    -1.2899680
  H        1.8059140    -2.1013880    -0.1265130
  H       -0.3930520     2.0121160    -1.0836700
  H       -2.3417080     0.9766970    -0.3400740
  H        2.3997000     0.9352960    -0.9928030
  H       -1.9956420    -1.6762600    -1.2784950
units angstrom
no_reorient  #important for SAPT in psi4, default
symmetry c1  #important for SAPT in psi4, default
}

set PROPERTIES_ORIGIN ["COM"]
properties('MP2/aug-cc-pvtz', properties = ['dipole'])
--------------------------------------------------------------------------

    Molecular point group: c1
  Charge       = 0
  Multiplicity = 1
  Basis Set: AUG-CC-PVTZ
    Blend: AUG-CC-PVTZ
  Basis Set: (AUG-CC-PVTZ AUX)
    Blend: AUG-CC-PVTZ-JKFIT

    Orbital Energies [Eh]
    ---------------------

    Doubly Occupied:

       1A    -20.604900     2A    -20.584590     3A    -20.566637
       4A    -20.565366     5A    -20.557392     6A    -11.355590
       7A    -11.286900     8A    -11.285097     9A    -11.284435
      10A    -11.283823    11A     -1.460861    12A     -1.388365
      13A     -1.387518    14A     -1.359679    15A     -1.343637
      16A     -1.052382    17A     -1.009335    18A     -0.884695
      19A     -0.871485    20A     -0.795127    21A     -0.759197
      22A     -0.730639    23A     -0.721834    24A     -0.693893
      25A     -0.670138    26A     -0.647457    27A     -0.629075
      28A     -0.613964    29A     -0.601858    30A     -0.584551
      31A     -0.582012    32A     -0.548714    33A     -0.539000
      34A     -0.518776    35A     -0.512814    36A     -0.493561
      37A     -0.476248    38A     -0.459620    39A     -0.436076
      40A     -0.382403

  @DF-RHF Final Energy:  -569.64149468854168

   => Energetics <=

    Nuclear Repulsion Energy =            631.9420831772738438
    One-Electron Energy =               -2038.1078690129299957
    Two-Electron Energy =                 836.5242911471144680
    Total Energy =                       -569.6414946885416839
  Basis Set: (AUG-CC-PVTZ AUX)
    Blend: AUG-CC-PVTZ-RI
    Molecular point group: c1

    Geometry (in Angstrom), charge = 0, multiplicity = 1:

       Center              X                  Y                   Z               Mass
    ------------   -----------------  -----------------  -----------------  -----------------
         O           -0.111568467337    -1.785523874683     0.460111424509    15.994914619570
         O            0.361630532663     1.408753125317    -1.019439575491    15.994914619570
         O           -1.951954467337     1.386095125317     0.474321424509    15.994914619570
         O            2.718016532663     0.465348125317    -0.200428575491    15.994914619570
         O           -1.668429467337    -0.785456874683    -0.993246575491    15.994914619570
         C            0.434792532663     1.028321125317     0.354985424509    12.000000000000
         C           -0.906130467337     0.489044125317     0.845308424509    12.000000000000
         C            1.537711532663    -0.014124874683     0.425641424509    12.000000000000
         C           -1.251975867337    -1.106352874683     0.279454224509    12.000000000000
         C            1.058171532663    -1.301930874683    -0.223412575491    12.000000000000
         H            0.707457532663     1.902222125317     0.965826424509     1.007825032230
         H           -0.878681467337     0.447039125317     1.940575424509     1.007825032230
         H            1.786977532663    -0.216861874683     1.473278424509     1.007825032230
         H           -1.990750467337    -1.382094874683     0.967010424509     1.007825032230
         H            0.846803532663    -1.132766874683    -1.284729575491     1.007825032230
         H            1.809115532663    -2.086618874683    -0.121274575491     1.007825032230
         H           -0.389850467337     2.026885125317    -1.078431575491     1.007825032230
         H           -2.338506467337     0.991466125317    -0.334835575491     1.007825032230
         H            2.402901532663     0.950065125317    -0.987564575491     1.007825032230
         H           -1.992440467337    -1.661490874683    -1.273256575491     1.007825032230

  Basis Set: AUG-CC-PVTZ
    Blend: AUG-CC-PVTZ
  Basis Set: (AUG-CC-PVTZ AUX)
    Blend: AUG-CC-PVTZ-JKFIT
	 Reference Energy          =    -569.6414946885416839 [Eh]
	 Singles Energy            =      -0.0000000000000000 [Eh]
	 Same-Spin Energy          =      -0.5554266495340583 [Eh]
	 Opposite-Spin Energy      =      -1.7048999194323806 [Eh]
	 Correlation Energy        =      -2.2603265689664389 [Eh]
	 Total Energy              =    -571.9018212575081179 [Eh]

	 ================> DF-SCS-MP2 Energies <==================
	-----------------------------------------------------------
	 SCS Same-Spin Scale       =       0.3333333333333333 [-]
	 SCS Opposite-Spin Scale   =       1.2000000000000000 [-]
	 SCS Same-Spin Energy      =      -0.1851422165113528 [Eh]
	 SCS Opposite-Spin Energy  =      -2.0458799033188568 [Eh]
	 SCS Correlation Energy    =      -2.2310221198302096 [Eh]
	 SCS Total Energy          =    -571.8725168083718700 [Eh]
	-----------------------------------------------------------

  Dipole Moment: [D]
     X:    -2.2087      Y:    -1.5253      Z:    -0.5907     Total:     2.7484

*** Psi4 exiting successfully. Buy a developer a beer!
