                               Psi4 1.3.2 release

  ==> Input File <==

--------------------------------------------------------------------------
#psi4
#
memory 32 gb

molecule  {
0 1
  O       -0.1147700    -1.8002930     0.4548730
  O        0.3584290     1.3939840    -1.0246780
  O       -1.9551560     1.3713260     0.4690830
  O        2.7148150     0.4505790    -0.2056670
  O       -1.6716310    -0.8002260    -0.9984850
  C        0.4315910     1.0135520     0.3497470
  C       -0.8736622     0.4041401     0.8539713
  C        1.4812053    -0.0802879     0.4494488
  C       -1.2151430    -0.9364420     0.3397180
  C        1.0549700    -1.3167000    -0.2286510
  H        0.7042560     1.8874530     0.9605880
  H       -0.8818830     0.4322700     1.9353370
  H        1.7837760    -0.2316310     1.4680400
  H       -1.9939520    -1.3968640     0.9617720
  H        0.8436020    -1.1475360    -1.2899680
  H        1.8059140    -2.1013880    -0.1265130
  H       -0.3930520     2.0121160    -1.0836700
  H       -2.3417080     0.9766970    -0.3400740
  H        2.3997000     0.9352960    -0.9928030
  H       -1.9956420    -1.6762600    -1.2784950
units angstrom
no_reorient  #important for SAPT in psi4, default
symmetry c1  #important for SAPT in psi4, default
}

set PROPERTIES_ORIGIN ["COM"]
properties('MP2/aug-cc-pvtz', properties = ['dipole'])
--------------------------------------------------------------------------

    Molecular point group: c1
  Charge       = 0
  Multiplicity = 1
  Basis Set: AUG-CC-PVTZ
    Blend: AUG-CC-PVTZ
  Basis Set: (AUG-CC-PVTZ AUX)
    Blend: AUG-CC-PVTZ-JKFIT

    Orbital Energies [Eh]
    ---------------------

    Doubly Occupied:

       1A    -20.594340     2A    -20.582122     3A    -20.573099
       4A    -20.567416     5A    -20.549886     6A    -11.356094
       7A    -11.299157     8A    -11.296567     9A    -11.286247
      10A    -11.281223    11A     -1.442448    12A     -1.385154
      13A     -1.368253    14A     -1.340511    15A     -1.326573
      16A     -1.071250    17A     -1.038176    18A     -0.908236
      19A     -0.867327    20A     -0.799032    21A     -0.754934
      22A     -0.731425    23A     -0.713388    24A     -0.684440
      25A     -0.662806    26A     -0.643700    27A     -0.622716
      28A     -0.619632    29A     -0.596379    30A     -0.579338
      31A     -0.567839    32A     -0.550966    33A     -0.540717
      34A     -0.513918    35A     -0.504260    36A     -0.492310
      37A     -0.487250    38A     -0.477323    39A     -0.438440
      40A     -0.429826

  @DF-RHF Final Energy:  -569.65886216510216

   => Energetics <=

    Nuclear Repulsion Energy =            634.3238700628036213
    One-Electron Energy =               -2042.8760228853054741
    Two-Electron Energy =                 838.8932906573995751
    Total Energy =                       -569.6588621651021640
  Basis Set: (AUG-CC-PVTZ AUX)
    Blend: AUG-CC-PVTZ-RI
    Molecular point group: c1

    Geometry (in Angstrom), charge = 0, multiplicity = 1:

       Center              X                  Y                   Z               Mass
    ------------   -----------------  -----------------  -----------------  -----------------
         O           -0.113359796510    -1.790574192182     0.451438534720    15.994914619570
         O            0.359839203490     1.403702807818    -1.028112465280    15.994914619570
         O           -1.953745796510     1.381044807818     0.465648534720    15.994914619570
         O            2.716225203490     0.460297807818    -0.209101465280    15.994914619570
         O           -1.670220796510    -0.790507192182    -1.001919465280    15.994914619570
         C            0.433001203490     1.023270807818     0.346312534720    12.000000000000
         C           -0.872251996510     0.413858907818     0.850536834720    12.000000000000
         C            1.482615503490    -0.070569092182     0.446014334720    12.000000000000
         C           -1.213732796510    -0.926723192182     0.336283534720    12.000000000000
         C            1.056380203490    -1.306981192182    -0.232085465280    12.000000000000
         H            0.705666203490     1.897171807818     0.957153534720     1.007825032230
         H           -0.880472796510     0.441988807818     1.931902534720     1.007825032230
         H            1.785186203490    -0.221912192182     1.464605534720     1.007825032230
         H           -1.992541796510    -1.387145192182     0.958337534720     1.007825032230
         H            0.845012203490    -1.137817192182    -1.293402465280     1.007825032230
         H            1.807324203490    -2.091669192182    -0.129947465280     1.007825032230
         H           -0.391641796510     2.021834807818    -1.087104465280     1.007825032230
         H           -2.340297796510     0.986415807818    -0.343508465280     1.007825032230
         H            2.401110203490     0.945014807818    -0.996237465280     1.007825032230
         H           -1.994231796510    -1.666541192182    -1.281929465280     1.007825032230

  Basis Set: AUG-CC-PVTZ
    Blend: AUG-CC-PVTZ
  Basis Set: (AUG-CC-PVTZ AUX)
    Blend: AUG-CC-PVTZ-JKFIT
	 Reference Energy          =    -569.6588621651021640 [Eh]
	 Singles Energy            =      -0.0000000000000000 [Eh]
	 Same-Spin Energy          =      -0.5557368008637540 [Eh]
	 Opposite-Spin Energy      =      -1.7072617943903607 [Eh]
	 Correlation Energy        =      -2.2629985952541150 [Eh]
	 Total Energy              =    -571.9218607603562532 [Eh]

	 ================> DF-SCS-MP2 Energies <==================
	-----------------------------------------------------------
	 SCS Same-Spin Scale       =       0.3333333333333333 [-]
	 SCS Opposite-Spin Scale   =       1.2000000000000000 [-]
	 SCS Same-Spin Energy      =      -0.1852456002879180 [Eh]
	 SCS Opposite-Spin Energy  =      -2.0487141532684330 [Eh]
	 SCS Correlation Energy    =      -2.2339597535563511 [Eh]
	 SCS Total Energy          =    -571.8928219186585693 [Eh]
	-----------------------------------------------------------

  Dipole Moment: [D]
     X:    -2.2238      Y:    -1.2486      Z:    -0.1692     Total:     2.5559

*** Psi4 exiting successfully. Buy a developer a beer!
