                               Psi4 1.3.2 release

  ==> Input File <==

--------------------------------------------------------------------------
#psi4
#
memory 32 gb

molecule  {
0 1
  O       -0.1561941    -1.8537632     0.4261416
  O        0.3584290     1.3939840    -1.0246780
  O       -1.9551560     1.3713260     0.4690830
  O        2.7148150     0.4505790    -0.2056670
  O       -1.6716310    -0.8002260    -0.9984850
  C        0.4315910     1.0135520     0.3497470
  C       -0.9843156     0.4948942     0.8213718
  C        1.5345100    -0.0288940     0.4204030
  C       -1.2151430    -0.9364420     0.3397180
  C        1.0549700    -1.3167000    -0.2286510
  H        0.7042560     1.8874530     0.9605880
  H       -0.8818830     0.4322700     1.9353370
  H        1.7837760    -0.2316310     1.4680400
  H       -1.9939520    -1.3968640     0.9617720
  H        0.8436020    -1.1475360    -1.2899680
  H        1.8059140    -2.1013880    -0.1265130
  H       -0.3930520     2.0121160    -1.0836700
  H       -2.3417080     0.9766970    -0.3400740
  H        2.3997000     0.9352960    -0.9928030
  H       -1.9956420    -1.6762600    -1.2784950
units angstrom
no_reorient  #important for SAPT in psi4, default
symmetry c1  #important for SAPT in psi4, default
}

set PROPERTIES_ORIGIN ["COM"]
properties('MP2/aug-cc-pvtz', properties = ['dipole'])
--------------------------------------------------------------------------

    Molecular point group: c1
  Charge       = 0
  Multiplicity = 1
  Basis Set: AUG-CC-PVTZ
    Blend: AUG-CC-PVTZ
  Basis Set: (AUG-CC-PVTZ AUX)
    Blend: AUG-CC-PVTZ-JKFIT

    Orbital Energies [Eh]
    ---------------------

    Doubly Occupied:

       1A    -20.587703     2A    -20.584090     3A    -20.583337
       4A    -20.570033     5A    -20.560522     6A    -11.350149
       7A    -11.301071     8A    -11.290037     9A    -11.287820
      10A    -11.280620    11A     -1.439613    12A     -1.405085
      13A     -1.383842    14A     -1.351492    15A     -1.347908
      16A     -1.051736    17A     -1.016853    18A     -0.899635
      19A     -0.868030    20A     -0.799746    21A     -0.752928
      22A     -0.722806    23A     -0.712562    24A     -0.703087
      25A     -0.669883    26A     -0.647332    27A     -0.621538
      28A     -0.616673    29A     -0.603279    30A     -0.586791
      31A     -0.572170    32A     -0.558703    33A     -0.546587
      34A     -0.516055    35A     -0.501259    36A     -0.490741
      37A     -0.484092    38A     -0.470790    39A     -0.432076
      40A     -0.413660

  @DF-RHF Final Energy:  -569.66504138061327

   => Energetics <=

    Nuclear Repulsion Energy =            632.3026164524567321
    One-Electron Energy =               -2038.7706431135438834
    Two-Electron Energy =                 836.8029852804738766
    Total Energy =                       -569.6650413806132747
  Basis Set: (AUG-CC-PVTZ AUX)
    Blend: AUG-CC-PVTZ-RI
    Molecular point group: c1

    Geometry (in Angstrom), charge = 0, multiplicity = 1:

       Center              X                  Y                   Z               Mass
    ------------   -----------------  -----------------  -----------------  -----------------
         O           -0.145782004297    -1.849712560877     0.430699652705    15.994914619570
         O            0.368841095703     1.398034639123    -1.020119947295    15.994914619570
         O           -1.944743904297     1.375376639123     0.473641052705    15.994914619570
         O            2.725227095703     0.454629639123    -0.201108947295    15.994914619570
         O           -1.661218904297    -0.796175360877    -0.993926947295    15.994914619570
         C            0.442003095703     1.017602639123     0.354305052705    12.000000000000
         C           -0.973903504297     0.498944839123     0.825929852705    12.000000000000
         C            1.544922095703    -0.024843360877     0.424961052705    12.000000000000
         C           -1.204730904297    -0.932391360877     0.344276052705    12.000000000000
         C            1.065382095703    -1.312649360877    -0.224092947295    12.000000000000
         H            0.714668095703     1.891503639123     0.965146052705     1.007825032230
         H           -0.871470904297     0.436320639123     1.939895052705     1.007825032230
         H            1.794188095703    -0.227580360877     1.472598052705     1.007825032230
         H           -1.983539904297    -1.392813360877     0.966330052705     1.007825032230
         H            0.854014095703    -1.143485360877    -1.285409947295     1.007825032230
         H            1.816326095703    -2.097337360877    -0.121954947295     1.007825032230
         H           -0.382639904297     2.016166639123    -1.079111947295     1.007825032230
         H           -2.331295904297     0.980747639123    -0.335515947295     1.007825032230
         H            2.410112095703     0.939346639123    -0.988244947295     1.007825032230
         H           -1.985229904297    -1.672209360877    -1.273936947295     1.007825032230

  Basis Set: AUG-CC-PVTZ
    Blend: AUG-CC-PVTZ
  Basis Set: (AUG-CC-PVTZ AUX)
    Blend: AUG-CC-PVTZ-JKFIT
	 Reference Energy          =    -569.6650413806132747 [Eh]
	 Singles Energy            =      -0.0000000000000000 [Eh]
	 Same-Spin Energy          =      -0.5549923562738301 [Eh]
	 Opposite-Spin Energy      =      -1.7046537791042549 [Eh]
	 Correlation Energy        =      -2.2596461353780848 [Eh]
	 Total Energy              =    -571.9246875159913088 [Eh]

	 ================> DF-SCS-MP2 Energies <==================
	-----------------------------------------------------------
	 SCS Same-Spin Scale       =       0.3333333333333333 [-]
	 SCS Opposite-Spin Scale   =       1.2000000000000000 [-]
	 SCS Same-Spin Energy      =      -0.1849974520912767 [Eh]
	 SCS Opposite-Spin Energy  =      -2.0455845349251058 [Eh]
	 SCS Correlation Energy    =      -2.2305819870163823 [Eh]
	 SCS Total Energy          =    -571.8956233676296961 [Eh]
	-----------------------------------------------------------

  Dipole Moment: [D]
     X:    -2.2420      Y:    -0.7233      Z:    -0.3231     Total:     2.3779

*** Psi4 exiting successfully. Buy a developer a beer!
