                               Psi4 1.3.2 release

  ==> Input File <==

--------------------------------------------------------------------------
#psi4
#
memory 32 gb

molecule  {
0 1
  O       -0.1147700    -1.8002930     0.4548730
  O        0.3584290     1.3939840    -1.0246780
  O       -1.9551560     1.3713260     0.4690830
  O        2.7119225     0.3921293    -0.2514729
  O       -1.6716310    -0.8002260    -0.9984850
  C        0.4315910     1.0135520     0.3497470
  C       -0.9093320     0.4742750     0.8400700
  C        1.5345100    -0.0288940     0.4204030
  C       -1.2151430    -0.9364420     0.3397180
  C        1.1168309    -1.3121616    -0.2784836
  H        0.7042560     1.8874530     0.9605880
  H       -0.8818830     0.4322700     1.9353370
  H        1.7837760    -0.2316310     1.4680400
  H       -1.9939520    -1.3968640     0.9617720
  H        0.8436020    -1.1475360    -1.2899680
  H        1.8059140    -2.1013880    -0.1265130
  H       -0.3930520     2.0121160    -1.0836700
  H       -2.3417080     0.9766970    -0.3400740
  H        2.3997000     0.9352960    -0.9928030
  H       -1.9956420    -1.6762600    -1.2784950
units angstrom
no_reorient  #important for SAPT in psi4, default
symmetry c1  #important for SAPT in psi4, default
}

set PROPERTIES_ORIGIN ["COM"]
properties('MP2/aug-cc-pvtz', properties = ['dipole'])
--------------------------------------------------------------------------

    Molecular point group: c1
  Charge       = 0
  Multiplicity = 1
  Basis Set: AUG-CC-PVTZ
    Blend: AUG-CC-PVTZ
  Basis Set: (AUG-CC-PVTZ AUX)
    Blend: AUG-CC-PVTZ-JKFIT

    Orbital Energies [Eh]
    ---------------------

    Doubly Occupied:

       1A    -20.588287     2A    -20.573621     3A    -20.572651
       4A    -20.570089     5A    -20.557366     6A    -11.348988
       7A    -11.297154     8A    -11.293718     9A    -11.288602
      10A    -11.277782    11A     -1.428508    12A     -1.391099
      13A     -1.372019    14A     -1.349844    15A     -1.340695
      16A     -1.058557    17A     -1.020465    18A     -0.902645
      19A     -0.866112    20A     -0.799263    21A     -0.749809
      22A     -0.727834    23A     -0.705357    24A     -0.693530
      25A     -0.672028    26A     -0.644371    27A     -0.615035
      28A     -0.613089    29A     -0.598353    30A     -0.585615
      31A     -0.575058    32A     -0.559599    33A     -0.541371
      34A     -0.516616    35A     -0.499571    36A     -0.489321
      37A     -0.479654    38A     -0.476255    39A     -0.443698
      40A     -0.414592

  @DF-RHF Final Energy:  -569.66764910281404

   => Energetics <=

    Nuclear Repulsion Energy =            632.8402390729775107
    One-Electron Energy =               -2040.0193266037683770
    Two-Electron Energy =                 837.5114384279768274
    Total Energy =                       -569.6676491028140390
  Basis Set: (AUG-CC-PVTZ AUX)
    Blend: AUG-CC-PVTZ-RI
    Molecular point group: c1

    Geometry (in Angstrom), charge = 0, multiplicity = 1:

       Center              X                  Y                   Z               Mass
    ------------   -----------------  -----------------  -----------------  -----------------
         O           -0.119408895012    -1.794425558826     0.463740988066    15.994914619570
         O            0.353790104988     1.399851441174    -1.015810011934    15.994914619570
         O           -1.959794895012     1.377193441174     0.477950988066    15.994914619570
         O            2.707283604988     0.397996741174    -0.242604911934    15.994914619570
         O           -1.676269895012    -0.794358558826    -0.989617011934    15.994914619570
         C            0.426952104988     1.019419441174     0.358614988066    12.000000000000
         C           -0.913970895012     0.480142441174     0.848937988066    12.000000000000
         C            1.529871104988    -0.023026558826     0.429270988066    12.000000000000
         C           -1.219781895012    -0.930574558826     0.348585988066    12.000000000000
         C            1.112192004988    -1.306294158826    -0.269615611934    12.000000000000
         H            0.699617104988     1.893320441174     0.969455988066     1.007825032230
         H           -0.886521895012     0.438137441174     1.944204988066     1.007825032230
         H            1.779137104988    -0.225763558826     1.476907988066     1.007825032230
         H           -1.998590895012    -1.390996558826     0.970639988066     1.007825032230
         H            0.838963104988    -1.141668558826    -1.281100011934     1.007825032230
         H            1.801275104988    -2.095520558826    -0.117645011934     1.007825032230
         H           -0.397690895012     2.017983441174    -1.074802011934     1.007825032230
         H           -2.346346895012     0.982564441174    -0.331206011934     1.007825032230
         H            2.395061104988     0.941163441174    -0.983935011934     1.007825032230
         H           -2.000280895012    -1.670392558826    -1.269627011934     1.007825032230

  Basis Set: AUG-CC-PVTZ
    Blend: AUG-CC-PVTZ
  Basis Set: (AUG-CC-PVTZ AUX)
    Blend: AUG-CC-PVTZ-JKFIT
	 Reference Energy          =    -569.6676491028140390 [Eh]
	 Singles Energy            =      -0.0000000000000000 [Eh]
	 Same-Spin Energy          =      -0.5546092672665422 [Eh]
	 Opposite-Spin Energy      =      -1.7047747977341121 [Eh]
	 Correlation Energy        =      -2.2593840650006545 [Eh]
	 Total Energy              =    -571.9270331678146704 [Eh]

	 ================> DF-SCS-MP2 Energies <==================
	-----------------------------------------------------------
	 SCS Same-Spin Scale       =       0.3333333333333333 [-]
	 SCS Opposite-Spin Scale   =       1.2000000000000000 [-]
	 SCS Same-Spin Energy      =      -0.1848697557555141 [Eh]
	 SCS Opposite-Spin Energy  =      -2.0457297572809345 [Eh]
	 SCS Correlation Energy    =      -2.2305995130364487 [Eh]
	 SCS Total Energy          =    -571.8982486158504344 [Eh]
	-----------------------------------------------------------

  Dipole Moment: [D]
     X:    -1.9498      Y:    -0.8002      Z:    -0.3042     Total:     2.1295

*** Psi4 exiting successfully. Buy a developer a beer!
