                               Psi4 1.3.2 release

  ==> Input File <==

--------------------------------------------------------------------------
#psi4
#
memory 32 gb

molecule  {
0 1
  O       -0.1147700    -1.8002930     0.4548730
  O        0.3584290     1.3939840    -1.0246780
  O       -1.9551560     1.3713260     0.4690830
  O        2.7148150     0.4505790    -0.2056670
  O       -1.6716310    -0.8002260    -0.9984850
  C        0.4315910     1.0135520     0.3497470
  C       -0.9093320     0.4742750     0.8400700
  C        1.5345100    -0.0288940     0.4204030
  C       -1.2120673    -0.9244343     0.3398337
  C        1.0549700    -1.3167000    -0.2286510
  H        0.7042560     1.8874530     0.9605880
  H       -0.8818830     0.4322700     1.9353370
  H        1.7837760    -0.2316310     1.4680400
  H       -1.9939520    -1.3968640     0.9617720
  H        0.8436020    -1.1475360    -1.2899680
  H        1.8059140    -2.1013880    -0.1265130
  H       -0.3930520     2.0121160    -1.0836700
  H       -2.3417080     0.9766970    -0.3400740
  H        2.3997000     0.9352960    -0.9928030
  H       -1.9976275    -1.6730470    -1.2861202
units angstrom
no_reorient  #important for SAPT in psi4, default
symmetry c1  #important for SAPT in psi4, default
}

set PROPERTIES_ORIGIN ["COM"]
properties('MP2/aug-cc-pvtz', properties = ['dipole'])
--------------------------------------------------------------------------

    Molecular point group: c1
  Charge       = 0
  Multiplicity = 1
  Basis Set: AUG-CC-PVTZ
    Blend: AUG-CC-PVTZ
  Basis Set: (AUG-CC-PVTZ AUX)
    Blend: AUG-CC-PVTZ-JKFIT

    Orbital Energies [Eh]
    ---------------------

    Doubly Occupied:

       1A    -20.591165     2A    -20.580487     3A    -20.575135
       4A    -20.571488     5A    -20.558276     6A    -11.354237
       7A    -11.298672     8A    -11.291310     9A    -11.285678
      10A    -11.277700    11A     -1.437893    12A     -1.391612
      13A     -1.375766    14A     -1.353293    15A     -1.347932
      16A     -1.060109    17A     -1.023568    18A     -0.899741
      19A     -0.869559    20A     -0.798907    21A     -0.751749
      22A     -0.728073    23A     -0.711373    24A     -0.696475
      25A     -0.669896    26A     -0.646408    27A     -0.620014
      28A     -0.613964    29A     -0.603365    30A     -0.584388
      31A     -0.570681    32A     -0.556740    33A     -0.542994
      34A     -0.516571    35A     -0.501274    36A     -0.491962
      37A     -0.488150    38A     -0.471292    39A     -0.440560
      40A     -0.416614

  @DF-RHF Final Energy:  -569.67416781557711

   => Energetics <=

    Nuclear Repulsion Energy =            633.9724881595428769
    One-Electron Energy =               -2042.1631614969062412
    Two-Electron Energy =                 838.5165055217863710
    Total Energy =                       -569.6741678155771069
  Basis Set: (AUG-CC-PVTZ AUX)
    Blend: AUG-CC-PVTZ-RI
    Molecular point group: c1

    Geometry (in Angstrom), charge = 0, multiplicity = 1:

       Center              X                  Y                   Z               Mass
    ------------   -----------------  -----------------  -----------------  -----------------
         O           -0.115002725698    -1.801274931464     0.454915054892    15.994914619570
         O            0.358196274302     1.393002068536    -1.024635945108    15.994914619570
         O           -1.955388725698     1.370344068536     0.469125054892    15.994914619570
         O            2.714582274302     0.449597068536    -0.205624945108    15.994914619570
         O           -1.671863725698    -0.801207931464    -0.998442945108    15.994914619570
         C            0.431358274302     1.012570068536     0.349789054892    12.000000000000
         C           -0.909564725698     0.473293068536     0.840112054892    12.000000000000
         C            1.534277274302    -0.029875931464     0.420445054892    12.000000000000
         C           -1.212300025698    -0.925416231464     0.339875754892    12.000000000000
         C            1.054737274302    -1.317681931464    -0.228608945108    12.000000000000
         H            0.704023274302     1.886471068536     0.960630054892     1.007825032230
         H           -0.882115725698     0.431288068536     1.935379054892     1.007825032230
         H            1.783543274302    -0.232612931464     1.468082054892     1.007825032230
         H           -1.994184725698    -1.397845931464     0.961814054892     1.007825032230
         H            0.843369274302    -1.148517931464    -1.289925945108     1.007825032230
         H            1.805681274302    -2.102369931464    -0.126470945108     1.007825032230
         H           -0.393284725698     2.011134068536    -1.083627945108     1.007825032230
         H           -2.341940725698     0.975715068536    -0.340031945108     1.007825032230
         H            2.399467274302     0.934314068536    -0.992760945108     1.007825032230
         H           -1.997860225698    -1.674028931464    -1.286078145108     1.007825032230

  Basis Set: AUG-CC-PVTZ
    Blend: AUG-CC-PVTZ
  Basis Set: (AUG-CC-PVTZ AUX)
    Blend: AUG-CC-PVTZ-JKFIT
	 Reference Energy          =    -569.6741678155771069 [Eh]
	 Singles Energy            =      -0.0000000000000000 [Eh]
	 Same-Spin Energy          =      -0.5547008438297535 [Eh]
	 Opposite-Spin Energy      =      -1.7040585327868019 [Eh]
	 Correlation Energy        =      -2.2587593766165552 [Eh]
	 Total Energy              =    -571.9329271921936879 [Eh]

	 ================> DF-SCS-MP2 Energies <==================
	-----------------------------------------------------------
	 SCS Same-Spin Scale       =       0.3333333333333333 [-]
	 SCS Opposite-Spin Scale   =       1.2000000000000000 [-]
	 SCS Same-Spin Energy      =      -0.1849002812765845 [Eh]
	 SCS Opposite-Spin Energy  =      -2.0448702393441622 [Eh]
	 SCS Correlation Energy    =      -2.2297705206207468 [Eh]
	 SCS Total Energy          =    -571.9039383361978253 [Eh]
	-----------------------------------------------------------

  Dipole Moment: [D]
     X:    -2.1866      Y:    -0.9603      Z:    -0.3066     Total:     2.4077

*** Psi4 exiting successfully. Buy a developer a beer!
