                               Psi4 1.3.2 release

  ==> Input File <==

--------------------------------------------------------------------------
#psi4
#
memory 32 gb

molecule  {
0 1
  O       -0.1147700    -1.8002930     0.4548730
  O        0.3584290     1.3939840    -1.0246780
  O       -1.9611705     1.3619359     0.4635417
  O        2.7148150     0.4505790    -0.2056670
  O       -1.6716310    -0.8002260    -0.9984850
  C        0.4315910     1.0135520     0.3497470
  C       -0.9093320     0.4742750     0.8400700
  C        1.5345100    -0.0288940     0.4204030
  C       -1.2265495    -0.9320253     0.3344146
  C        1.0549700    -1.3167000    -0.2286510
  H        0.7042560     1.8874530     0.9605880
  H       -0.8818830     0.4322700     1.9353370
  H        1.7837760    -0.2316310     1.4680400
  H       -1.9939520    -1.3968640     0.9617720
  H        0.8436020    -1.1475360    -1.2899680
  H        1.8059140    -2.1013880    -0.1265130
  H       -0.3930520     2.0121160    -1.0836700
  H       -2.3417080     0.9766970    -0.3400740
  H        2.3997000     0.9352960    -0.9928030
  H       -1.9956420    -1.6762600    -1.2784950
units angstrom
no_reorient  #important for SAPT in psi4, default
symmetry c1  #important for SAPT in psi4, default
}

set PROPERTIES_ORIGIN ["COM"]
properties('MP2/aug-cc-pvtz', properties = ['dipole'])
--------------------------------------------------------------------------

    Molecular point group: c1
  Charge       = 0
  Multiplicity = 1
  Basis Set: AUG-CC-PVTZ
    Blend: AUG-CC-PVTZ
  Basis Set: (AUG-CC-PVTZ AUX)
    Blend: AUG-CC-PVTZ-JKFIT

    Orbital Energies [Eh]
    ---------------------

    Doubly Occupied:

       1A    -20.593267     2A    -20.578564     3A    -20.573519
       4A    -20.571443     5A    -20.557974     6A    -11.353525
       7A    -11.298824     8A    -11.291329     9A    -11.285268
      10A    -11.277104    11A     -1.438648    12A     -1.391745
      13A     -1.376056    14A     -1.354264    15A     -1.347927
      16A     -1.058948    17A     -1.022126    18A     -0.898798
      19A     -0.870027    20A     -0.799057    21A     -0.753522
      22A     -0.727896    23A     -0.710725    24A     -0.697990
      25A     -0.669779    26A     -0.646757    27A     -0.620653
      28A     -0.612929    29A     -0.603447    30A     -0.584707
      31A     -0.573001    32A     -0.555559    33A     -0.542675
      34A     -0.516442    35A     -0.502642    36A     -0.490078
      37A     -0.487769    38A     -0.470946    39A     -0.440994
      40A     -0.415284

  @DF-RHF Final Energy:  -569.67507446514912

   => Energetics <=

    Nuclear Repulsion Energy =            633.8517727741419776
    One-Electron Energy =               -2041.9292868678148807
    Two-Electron Energy =                 838.4024396285238936
    Total Energy =                       -569.6750744651491232
  Basis Set: (AUG-CC-PVTZ AUX)
    Blend: AUG-CC-PVTZ-RI
    Molecular point group: c1

    Geometry (in Angstrom), charge = 0, multiplicity = 1:

       Center              X                  Y                   Z               Mass
    ------------   -----------------  -----------------  -----------------  -----------------
         O           -0.113216776115    -1.799645345402     0.455887891988    15.994914619570
         O            0.359982223885     1.394631654598    -1.023663108012    15.994914619570
         O           -1.959617276115     1.362583554598     0.464556591988    15.994914619570
         O            2.716368223885     0.451226654598    -0.204652108012    15.994914619570
         O           -1.670077776115    -0.799578345402    -0.997470108012    15.994914619570
         C            0.433144223885     1.014199654598     0.350761891988    12.000000000000
         C           -0.907778776115     0.474922654598     0.841084891988    12.000000000000
         C            1.536063223885    -0.028246345402     0.421417891988    12.000000000000
         C           -1.224996276115    -0.931377645402     0.335429491988    12.000000000000
         C            1.056523223885    -1.316052345402    -0.227636108012    12.000000000000
         H            0.705809223885     1.888100654598     0.961602891988     1.007825032230
         H           -0.880329776115     0.432917654598     1.936351891988     1.007825032230
         H            1.785329223885    -0.230983345402     1.469054891988     1.007825032230
         H           -1.992398776115    -1.396216345402     0.962786891988     1.007825032230
         H            0.845155223885    -1.146888345402    -1.288953108012     1.007825032230
         H            1.807467223885    -2.100740345402    -0.125498108012     1.007825032230
         H           -0.391498776115     2.012763654598    -1.082655108012     1.007825032230
         H           -2.340154776115     0.977344654598    -0.339059108012     1.007825032230
         H            2.401253223885     0.935943654598    -0.991788108012     1.007825032230
         H           -1.994088776115    -1.675612345402    -1.277480108012     1.007825032230

  Basis Set: AUG-CC-PVTZ
    Blend: AUG-CC-PVTZ
  Basis Set: (AUG-CC-PVTZ AUX)
    Blend: AUG-CC-PVTZ-JKFIT
	 Reference Energy          =    -569.6750744651491232 [Eh]
	 Singles Energy            =      -0.0000000000000000 [Eh]
	 Same-Spin Energy          =      -0.5544477143637738 [Eh]
	 Opposite-Spin Energy      =      -1.7035723057203804 [Eh]
	 Correlation Energy        =      -2.2580200200841540 [Eh]
	 Total Energy              =    -571.9330944852332550 [Eh]

	 ================> DF-SCS-MP2 Energies <==================
	-----------------------------------------------------------
	 SCS Same-Spin Scale       =       0.3333333333333333 [-]
	 SCS Opposite-Spin Scale   =       1.2000000000000000 [-]
	 SCS Same-Spin Energy      =      -0.1848159047879246 [Eh]
	 SCS Opposite-Spin Energy  =      -2.0442867668644564 [Eh]
	 SCS Correlation Energy    =      -2.2291026716523810 [Eh]
	 SCS Total Energy          =    -571.9041771368015361 [Eh]
	-----------------------------------------------------------

  Dipole Moment: [D]
     X:    -2.2314      Y:    -0.9542      Z:    -0.3210     Total:     2.4480

*** Psi4 exiting successfully. Buy a developer a beer!
