                               Psi4 1.3.2 release

  ==> Input File <==

--------------------------------------------------------------------------
#psi4
#
memory 32 gb

molecule  {
0 1
  O       -0.1147700    -1.8002930     0.4548730
  O        0.3584290     1.3939840    -1.0246780
  O       -1.9551560     1.3713260     0.4690830
  O        2.7148150     0.4505790    -0.2056670
  O       -1.6716310    -0.8002260    -0.9984850
  C        0.4315910     1.0135520     0.3497470
  C       -0.9093320     0.4742750     0.8400700
  C        1.5626141    -0.0496187     0.4555539
  C       -1.2151430    -0.9364420     0.3397180
  C        1.0549700    -1.3167000    -0.2286510
  H        0.7042560     1.8874530     0.9605880
  H       -0.8818830     0.4322700     1.9353370
  H        1.7837760    -0.2316310     1.4680400
  H       -1.9939520    -1.3968640     0.9617720
  H        0.8436020    -1.1475360    -1.2899680
  H        1.8059140    -2.1013880    -0.1265130
  H       -0.3930520     2.0121160    -1.0836700
  H       -2.3417080     0.9766970    -0.3400740
  H        2.4320986     0.9424487    -1.0006303
  H       -1.9956420    -1.6762600    -1.2784950
units angstrom
no_reorient  #important for SAPT in psi4, default
symmetry c1  #important for SAPT in psi4, default
}

set PROPERTIES_ORIGIN ["COM"]
properties('MP2/aug-cc-pvtz', properties = ['dipole'])
--------------------------------------------------------------------------

    Molecular point group: c1
  Charge       = 0
  Multiplicity = 1
  Basis Set: AUG-CC-PVTZ
    Blend: AUG-CC-PVTZ
  Basis Set: (AUG-CC-PVTZ AUX)
    Blend: AUG-CC-PVTZ-JKFIT

    Orbital Energies [Eh]
    ---------------------

    Doubly Occupied:

       1A    -20.591039     2A    -20.580349     3A    -20.573354
       4A    -20.570156     5A    -20.556420     6A    -11.353108
       7A    -11.296974     8A    -11.290957     9A    -11.285793
      10A    -11.278170    11A     -1.437937    12A     -1.389025
      13A     -1.373903    14A     -1.353044    15A     -1.345971
      16A     -1.054404    17A     -1.022449    18A     -0.895388
      19A     -0.871286    20A     -0.800797    21A     -0.751859
      22A     -0.724596    23A     -0.710534    24A     -0.694850
      25A     -0.670298    26A     -0.647730    27A     -0.620706
      28A     -0.611673    29A     -0.602829    30A     -0.590468
      31A     -0.570734    32A     -0.552854    33A     -0.542526
      34A     -0.515626    35A     -0.501823    36A     -0.490252
      37A     -0.487111    38A     -0.471045    39A     -0.435967
      40A     -0.413341

  @DF-RHF Final Energy:  -569.67261471541724

   => Energetics <=

    Nuclear Repulsion Energy =            632.9079543521340838
    One-Electron Energy =               -2040.1064452008786247
    Two-Electron Energy =                 837.5258761333273014
    Total Energy =                       -569.6726147154172395
  Basis Set: (AUG-CC-PVTZ AUX)
    Blend: AUG-CC-PVTZ-RI
    Molecular point group: c1

    Geometry (in Angstrom), charge = 0, multiplicity = 1:

       Center              X                  Y                   Z               Mass
    ------------   -----------------  -----------------  -----------------  -----------------
         O           -0.117235232552    -1.798683722162     0.452114582972    15.994914619570
         O            0.355963767448     1.395593277838    -1.027436417028    15.994914619570
         O           -1.957621232552     1.372935277838     0.466324582972    15.994914619570
         O            2.712349767448     0.452188277838    -0.208425417028    15.994914619570
         O           -1.674096232552    -0.798616722162    -1.001243417028    15.994914619570
         C            0.429125767448     1.015161277838     0.346988582972    12.000000000000
         C           -0.911797232552     0.475884277838     0.837311582972    12.000000000000
         C            1.560148867448    -0.048009422162     0.452795482972    12.000000000000
         C           -1.217608232552    -0.934832722162     0.336959582972    12.000000000000
         C            1.052504767448    -1.315090722162    -0.231409417028    12.000000000000
         H            0.701790767448     1.889062277838     0.957829582972     1.007825032230
         H           -0.884348232552     0.433879277838     1.932578582972     1.007825032230
         H            1.781310767448    -0.230021722162     1.465281582972     1.007825032230
         H           -1.996417232552    -1.395254722162     0.959013582972     1.007825032230
         H            0.841136767448    -1.145926722162    -1.292726417028     1.007825032230
         H            1.803448767448    -2.099778722162    -0.129271417028     1.007825032230
         H           -0.395517232552     2.013725277838    -1.086428417028     1.007825032230
         H           -2.344173232552     0.978306277838    -0.342832417028     1.007825032230
         H            2.429633367448     0.944057977838    -1.003388717028     1.007825032230
         H           -1.998107232552    -1.674650722162    -1.281253417028     1.007825032230

  Basis Set: AUG-CC-PVTZ
    Blend: AUG-CC-PVTZ
  Basis Set: (AUG-CC-PVTZ AUX)
    Blend: AUG-CC-PVTZ-JKFIT
	 Reference Energy          =    -569.6726147154172395 [Eh]
	 Singles Energy            =      -0.0000000000000000 [Eh]
	 Same-Spin Energy          =      -0.5542080695890169 [Eh]
	 Opposite-Spin Energy      =      -1.7033491165038939 [Eh]
	 Correlation Energy        =      -2.2575571860929107 [Eh]
	 Total Energy              =    -571.9301719015101071 [Eh]

	 ================> DF-SCS-MP2 Energies <==================
	-----------------------------------------------------------
	 SCS Same-Spin Scale       =       0.3333333333333333 [-]
	 SCS Opposite-Spin Scale   =       1.2000000000000000 [-]
	 SCS Same-Spin Energy      =      -0.1847360231963390 [Eh]
	 SCS Opposite-Spin Energy  =      -2.0440189398046726 [Eh]
	 SCS Correlation Energy    =      -2.2287549630010117 [Eh]
	 SCS Total Energy          =    -571.9013696784182912 [Eh]
	-----------------------------------------------------------

  Dipole Moment: [D]
     X:    -2.0853      Y:    -1.0112      Z:    -0.2809     Total:     2.3345

*** Psi4 exiting successfully. Buy a developer a beer!
