                               Psi4 1.3.2 release

  ==> Input File <==

--------------------------------------------------------------------------
#psi4
#
memory 32 gb

molecule  {
0 1
  O       -0.1147700    -1.8002930     0.4548730
  O        0.3584290     1.3939840    -1.0246780
  O       -1.9551560     1.3713260     0.4690830
  O        2.7148150     0.4505790    -0.2056670
  O       -1.6743748    -0.8248288    -0.9998237
  C        0.4315910     1.0135520     0.3497470
  C       -0.9020240     0.4640918     0.8636041
  C        1.5345100    -0.0288940     0.4204030
  C       -1.2151430    -0.9364420     0.3397180
  C        1.0549700    -1.3167000    -0.2286510
  H        0.7042560     1.8874530     0.9605880
  H       -0.8818830     0.4322700     1.9353370
  H        1.7837760    -0.2316310     1.4680400
  H       -1.9939520    -1.3968640     0.9617720
  H        0.8436020    -1.1475360    -1.2899680
  H        1.8059140    -2.1013880    -0.1265130
  H       -0.3930520     2.0121160    -1.0836700
  H       -2.3417080     0.9766970    -0.3400740
  H        2.3997000     0.9352960    -0.9928030
  H       -1.9956420    -1.6762600    -1.2784950
units angstrom
no_reorient  #important for SAPT in psi4, default
symmetry c1  #important for SAPT in psi4, default
}

set PROPERTIES_ORIGIN ["COM"]
properties('MP2/aug-cc-pvtz', properties = ['dipole'])
--------------------------------------------------------------------------

    Molecular point group: c1
  Charge       = 0
  Multiplicity = 1
  Basis Set: AUG-CC-PVTZ
    Blend: AUG-CC-PVTZ
  Basis Set: (AUG-CC-PVTZ AUX)
    Blend: AUG-CC-PVTZ-JKFIT

    Orbital Energies [Eh]
    ---------------------

    Doubly Occupied:

       1A    -20.588826     2A    -20.579854     3A    -20.573364
       4A    -20.572294     5A    -20.558152     6A    -11.354491
       7A    -11.299210     8A    -11.292085     9A    -11.285618
      10A    -11.277995    11A     -1.439358    12A     -1.390790
      13A     -1.372761    14A     -1.354691    15A     -1.346954
      16A     -1.060158    17A     -1.024497    18A     -0.899600
      19A     -0.871107    20A     -0.801039    21A     -0.752278
      22A     -0.729235    23A     -0.711115    24A     -0.695462
      25A     -0.669912    26A     -0.646884    27A     -0.621086
      28A     -0.613685    29A     -0.603615    30A     -0.584270
      31A     -0.571839    32A     -0.555601    33A     -0.543514
      34A     -0.517345    35A     -0.502440    36A     -0.490964
      37A     -0.488960    38A     -0.471204    39A     -0.440959
      40A     -0.416040

  @DF-RHF Final Energy:  -569.67509037372270

   => Energetics <=

    Nuclear Repulsion Energy =            633.3122337034725433
    One-Electron Energy =               -2040.8361407402212535
    Two-Electron Energy =                 837.8488166630261276
    Total Energy =                       -569.6750903737226963
  Basis Set: (AUG-CC-PVTZ AUX)
    Blend: AUG-CC-PVTZ-RI
    Molecular point group: c1

    Geometry (in Angstrom), charge = 0, multiplicity = 1:

       Center              X                  Y                   Z               Mass
    ------------   -----------------  -----------------  -----------------  -----------------
         O           -0.115062050073    -1.796856163378     0.453133727029    15.994914619570
         O            0.358136949927     1.397420836622    -1.026417272971    15.994914619570
         O           -1.955448050073     1.374762836622     0.467343727029    15.994914619570
         O            2.714522949927     0.454015836622    -0.207406272971    15.994914619570
         O           -1.674666850073    -0.821391963378    -1.001562972971    15.994914619570
         C            0.431298949927     1.016988836622     0.348007727029    12.000000000000
         C           -0.902316050073     0.467528636622     0.861864827029    12.000000000000
         C            1.534217949927    -0.025457163378     0.418663727029    12.000000000000
         C           -1.215435050073    -0.933005163378     0.337978727029    12.000000000000
         C            1.054677949927    -1.313263163378    -0.230390272971    12.000000000000
         H            0.703963949927     1.890889836622     0.958848727029     1.007825032230
         H           -0.882175050073     0.435706836622     1.933597727029     1.007825032230
         H            1.783483949927    -0.228194163378     1.466300727029     1.007825032230
         H           -1.994244050073    -1.393427163378     0.960032727029     1.007825032230
         H            0.843309949927    -1.144099163378    -1.291707272971     1.007825032230
         H            1.805621949927    -2.097951163378    -0.128252272971     1.007825032230
         H           -0.393344050073     2.015552836622    -1.085409272971     1.007825032230
         H           -2.342000050073     0.980133836622    -0.341813272971     1.007825032230
         H            2.399407949927     0.938732836622    -0.994542272971     1.007825032230
         H           -1.995934050073    -1.672823163378    -1.280234272971     1.007825032230

  Basis Set: AUG-CC-PVTZ
    Blend: AUG-CC-PVTZ
  Basis Set: (AUG-CC-PVTZ AUX)
    Blend: AUG-CC-PVTZ-JKFIT
	 Reference Energy          =    -569.6750903737226963 [Eh]
	 Singles Energy            =      -0.0000000000000000 [Eh]
	 Same-Spin Energy          =      -0.5540984369055508 [Eh]
	 Opposite-Spin Energy      =      -1.7030480198313696 [Eh]
	 Correlation Energy        =      -2.2571464567369204 [Eh]
	 Total Energy              =    -571.9322368304596012 [Eh]

	 ================> DF-SCS-MP2 Energies <==================
	-----------------------------------------------------------
	 SCS Same-Spin Scale       =       0.3333333333333333 [-]
	 SCS Opposite-Spin Scale   =       1.2000000000000000 [-]
	 SCS Same-Spin Energy      =      -0.1846994789685169 [Eh]
	 SCS Opposite-Spin Energy  =      -2.0436576237976434 [Eh]
	 SCS Correlation Energy    =      -2.2283571027661604 [Eh]
	 SCS Total Energy          =    -571.9034474764888500 [Eh]
	-----------------------------------------------------------

  Dipole Moment: [D]
     X:    -2.1468      Y:    -0.9691      Z:    -0.2460     Total:     2.3682

*** Psi4 exiting successfully. Buy a developer a beer!
