                               Psi4 1.3.2 release

  ==> Input File <==

--------------------------------------------------------------------------
#psi4
#
memory 32 gb

molecule  {
0 1
  O       -0.1016461    -1.8011585     0.4762590
  O        0.3584290     1.3939840    -1.0246780
  O       -1.9551560     1.3713260     0.4690830
  O        2.7148150     0.4505790    -0.2056670
  O       -1.6716310    -0.8002260    -0.9984850
  C        0.4315910     1.0135520     0.3497470
  C       -0.9093320     0.4742750     0.8400700
  C        1.5345100    -0.0288940     0.4204030
  C       -1.2151430    -0.9364420     0.3397180
  C        1.0549700    -1.3167000    -0.2286510
  H        0.7042560     1.8874530     0.9605880
  H       -0.8818830     0.4322700     1.9353370
  H        1.7837760    -0.2316310     1.4680400
  H       -1.9939520    -1.3968640     0.9617720
  H        0.8616665    -1.1418093    -1.2924807
  H        1.8059140    -2.1013880    -0.1265130
  H       -0.3930520     2.0121160    -1.0836700
  H       -2.3417080     0.9766970    -0.3400740
  H        2.3997000     0.9352960    -0.9928030
  H       -1.9956420    -1.6762600    -1.2784950
units angstrom
no_reorient  #important for SAPT in psi4, default
symmetry c1  #important for SAPT in psi4, default
}

set PROPERTIES_ORIGIN ["COM"]
properties('MP2/aug-cc-pvtz', properties = ['dipole'])
--------------------------------------------------------------------------

    Molecular point group: c1
  Charge       = 0
  Multiplicity = 1
  Basis Set: AUG-CC-PVTZ
    Blend: AUG-CC-PVTZ
  Basis Set: (AUG-CC-PVTZ AUX)
    Blend: AUG-CC-PVTZ-JKFIT

    Orbital Energies [Eh]
    ---------------------

    Doubly Occupied:

       1A    -20.593745     2A    -20.581850     3A    -20.574802
       4A    -20.571224     5A    -20.557726     6A    -11.355118
       7A    -11.298573     8A    -11.290891     9A    -11.284834
      10A    -11.277590    11A     -1.436838    12A     -1.391149
      13A     -1.375501    14A     -1.354477    15A     -1.347505
      16A     -1.058729    17A     -1.022173    18A     -0.899063
      19A     -0.868767    20A     -0.798373    21A     -0.752883
      22A     -0.727728    23A     -0.710497    24A     -0.695978
      25A     -0.669487    26A     -0.646069    27A     -0.621330
      28A     -0.613289    29A     -0.602538    30A     -0.584052
      31A     -0.571355    32A     -0.555658    33A     -0.542549
      34A     -0.516295    35A     -0.502721    36A     -0.491399
      37A     -0.488271    38A     -0.472505    39A     -0.440502
      40A     -0.415446

  @DF-RHF Final Energy:  -569.67342212402968

   => Energetics <=

    Nuclear Repulsion Energy =            633.4901023910950926
    One-Electron Energy =               -2041.2080896813640720
    Two-Electron Energy =                 838.0445651662391811
    Total Energy =                       -569.6734221240296847
  Basis Set: (AUG-CC-PVTZ AUX)
    Blend: AUG-CC-PVTZ-RI
    Molecular point group: c1

    Geometry (in Angstrom), charge = 0, multiplicity = 1:

       Center              X                  Y                   Z               Mass
    ------------   -----------------  -----------------  -----------------  -----------------
         O           -0.103166466593    -1.801104778650     0.473996324187    15.994914619570
         O            0.356908633407     1.394037721350    -1.026940675813    15.994914619570
         O           -1.956676366593     1.371379721350     0.466820324187    15.994914619570
         O            2.713294633407     0.450632721350    -0.207929675813    15.994914619570
         O           -1.673151366593    -0.800172278650    -1.000747675813    15.994914619570
         C            0.430070633407     1.013605721350     0.347484324187    12.000000000000
         C           -0.910852366593     0.474328721350     0.837807324187    12.000000000000
         C            1.532989633407    -0.028840278650     0.418140324187    12.000000000000
         C           -1.216663366593    -0.936388278650     0.337455324187    12.000000000000
         C            1.053449633407    -1.316646278650    -0.230913675813    12.000000000000
         H            0.702735633407     1.887506721350     0.958325324187     1.007825032230
         H           -0.883403366593     0.432323721350     1.933074324187     1.007825032230
         H            1.782255633407    -0.231577278650     1.465777324187     1.007825032230
         H           -1.995472366593    -1.396810278650     0.959509324187     1.007825032230
         H            0.860146133407    -1.141755578650    -1.294743375813     1.007825032230
         H            1.804393633407    -2.101334278650    -0.128775675813     1.007825032230
         H           -0.394572366593     2.012169721350    -1.085932675813     1.007825032230
         H           -2.343228366593     0.976750721350    -0.342336675813     1.007825032230
         H            2.398179633407     0.935349721350    -0.995065675813     1.007825032230
         H           -1.997162366593    -1.676206278650    -1.280757675813     1.007825032230

  Basis Set: AUG-CC-PVTZ
    Blend: AUG-CC-PVTZ
  Basis Set: (AUG-CC-PVTZ AUX)
    Blend: AUG-CC-PVTZ-JKFIT
	 Reference Energy          =    -569.6734221240296847 [Eh]
	 Singles Energy            =      -0.0000000000000000 [Eh]
	 Same-Spin Energy          =      -0.5547785466178390 [Eh]
	 Opposite-Spin Energy      =      -1.7044474917508672 [Eh]
	 Correlation Energy        =      -2.2592260383687064 [Eh]
	 Total Energy              =    -571.9326481623984364 [Eh]

	 ================> DF-SCS-MP2 Energies <==================
	-----------------------------------------------------------
	 SCS Same-Spin Scale       =       0.3333333333333333 [-]
	 SCS Opposite-Spin Scale   =       1.2000000000000000 [-]
	 SCS Same-Spin Energy      =      -0.1849261822059463 [Eh]
	 SCS Opposite-Spin Energy  =      -2.0453369901010405 [Eh]
	 SCS Correlation Energy    =      -2.2302631723069868 [Eh]
	 SCS Total Energy          =    -571.9036852963366755 [Eh]
	-----------------------------------------------------------

  Dipole Moment: [D]
     X:    -2.2411      Y:    -0.9914      Z:    -0.3472     Total:     2.4750

*** Psi4 exiting successfully. Buy a developer a beer!
