                               Psi4 1.3.2 release

  ==> Input File <==

--------------------------------------------------------------------------
#psi4
#
memory 32 gb

molecule  {
0 1
  O       -0.1147700    -1.8002930     0.4548730
  O        0.3584290     1.3939840    -1.0246780
  O       -1.9551560     1.3713260     0.4690830
  O        2.7148150     0.4505790    -0.2056670
  O       -1.6716310    -0.8002260    -0.9984850
  C        0.4315910     1.0135520     0.3497470
  C       -0.9040682     0.4888272     0.8595825
  C        1.5345100    -0.0288940     0.4204030
  C       -1.2151430    -0.9364420     0.3397180
  C        1.0549700    -1.3167000    -0.2286510
  H        0.7042560     1.8874530     0.9605880
  H       -0.8818830     0.4322700     1.9353370
  H        1.7837760    -0.2316310     1.4680400
  H       -1.9939520    -1.3968640     0.9617720
  H        0.8436020    -1.1475360    -1.2899680
  H        1.8059140    -2.1013880    -0.1265130
  H       -0.3930520     2.0121160    -1.0836700
  H       -2.3528477     0.9896445    -0.3408862
  H        2.3997000     0.9352960    -0.9928030
  H       -1.9956420    -1.6762600    -1.2784950
units angstrom
no_reorient  #important for SAPT in psi4, default
symmetry c1  #important for SAPT in psi4, default
}

set PROPERTIES_ORIGIN ["COM"]
properties('MP2/aug-cc-pvtz', properties = ['dipole'])
--------------------------------------------------------------------------

    Molecular point group: c1
  Charge       = 0
  Multiplicity = 1
  Basis Set: AUG-CC-PVTZ
    Blend: AUG-CC-PVTZ
  Basis Set: (AUG-CC-PVTZ AUX)
    Blend: AUG-CC-PVTZ-JKFIT

    Orbital Energies [Eh]
    ---------------------

    Doubly Occupied:

       1A    -20.590976     2A    -20.579946     3A    -20.573721
       4A    -20.571636     5A    -20.558205     6A    -11.353680
       7A    -11.298371     8A    -11.290769     9A    -11.285701
      10A    -11.277791    11A     -1.437207    12A     -1.391212
      13A     -1.374670    14A     -1.353178    15A     -1.347598
      16A     -1.059207    17A     -1.021071    18A     -0.896368
      19A     -0.871577    20A     -0.799074    21A     -0.750736
      22A     -0.727482    23A     -0.710553    24A     -0.697303
      25A     -0.669939    26A     -0.647294    27A     -0.620387
      28A     -0.613152    29A     -0.603714    30A     -0.584830
      31A     -0.571697    32A     -0.554246    33A     -0.543689
      34A     -0.516922    35A     -0.501754    36A     -0.490068
      37A     -0.486862    38A     -0.470906    39A     -0.441645
      40A     -0.413572

  @DF-RHF Final Energy:  -569.67443916857542

   => Energetics <=

    Nuclear Repulsion Energy =            633.4081292923899582
    One-Electron Energy =               -2041.0677227059131837
    Two-Electron Energy =                 837.9851542449478075
    Total Energy =                       -569.6744391685754181
  Basis Set: (AUG-CC-PVTZ AUX)
    Blend: AUG-CC-PVTZ-RI
    Molecular point group: c1

    Geometry (in Angstrom), charge = 0, multiplicity = 1:

       Center              X                  Y                   Z               Mass
    ------------   -----------------  -----------------  -----------------  -----------------
         O           -0.115116228182    -1.801543801265     0.453318097857    15.994914619570
         O            0.358082771818     1.392733198735    -1.026232902143    15.994914619570
         O           -1.955502228182     1.370075198735     0.467528097857    15.994914619570
         O            2.714468771818     0.449328198735    -0.207221902143    15.994914619570
         O           -1.671977228182    -0.801476801265    -1.000039902143    15.994914619570
         C            0.431244771818     1.012301198735     0.348192097857    12.000000000000
         C           -0.904414428182     0.487576398735     0.858027597857    12.000000000000
         C            1.534163771818    -0.030144801265     0.418848097857    12.000000000000
         C           -1.215489228182    -0.937692801265     0.338163097857    12.000000000000
         C            1.054623771818    -1.317950801265    -0.230205902143    12.000000000000
         H            0.703909771818     1.886202198735     0.959033097857     1.007825032230
         H           -0.882229228182     0.431019198735     1.933782097857     1.007825032230
         H            1.783429771818    -0.232881801265     1.466485097857     1.007825032230
         H           -1.994298228182    -1.398114801265     0.960217097857     1.007825032230
         H            0.843255771818    -1.148786801265    -1.291522902143     1.007825032230
         H            1.805567771818    -2.102638801265    -0.128067902143     1.007825032230
         H           -0.393398228182     2.010865198735    -1.085224902143     1.007825032230
         H           -2.353193928182     0.988393698735    -0.342441102143     1.007825032230
         H            2.399353771818     0.934045198735    -0.994357902143     1.007825032230
         H           -1.995988228182    -1.677510801265    -1.280049902143     1.007825032230

  Basis Set: AUG-CC-PVTZ
    Blend: AUG-CC-PVTZ
  Basis Set: (AUG-CC-PVTZ AUX)
    Blend: AUG-CC-PVTZ-JKFIT
	 Reference Energy          =    -569.6744391685754181 [Eh]
	 Singles Energy            =      -0.0000000000000000 [Eh]
	 Same-Spin Energy          =      -0.5544068191880899 [Eh]
	 Opposite-Spin Energy      =      -1.7035940406981120 [Eh]
	 Correlation Energy        =      -2.2580008598862018 [Eh]
	 Total Energy              =    -571.9324400284616559 [Eh]

	 ================> DF-SCS-MP2 Energies <==================
	-----------------------------------------------------------
	 SCS Same-Spin Scale       =       0.3333333333333333 [-]
	 SCS Opposite-Spin Scale   =       1.2000000000000000 [-]
	 SCS Same-Spin Energy      =      -0.1848022730626966 [Eh]
	 SCS Opposite-Spin Energy  =      -2.0443128488377345 [Eh]
	 SCS Correlation Energy    =      -2.2291151219004313 [Eh]
	 SCS Total Energy          =    -571.9035542904758813 [Eh]
	-----------------------------------------------------------

  Dipole Moment: [D]
     X:    -2.1958      Y:    -0.9658      Z:    -0.2833     Total:     2.4155

*** Psi4 exiting successfully. Buy a developer a beer!
