                               Psi4 1.3.2 release

  ==> Input File <==

--------------------------------------------------------------------------
#psi4
#
memory 32 gb

molecule  {
0 1
  O       -0.1147700    -1.8002930     0.4548730
  O        0.3614817     1.4056548    -1.0215536
  O       -1.9551560     1.3713260     0.4690830
  O        2.7148150     0.4505790    -0.2056670
  O       -1.6716310    -0.8002260    -0.9984850
  C        0.4315910     1.0135520     0.3497470
  C       -0.9093320     0.4742750     0.8400700
  C        1.5345100    -0.0288940     0.4204030
  C       -1.2151430    -0.9364420     0.3397180
  C        1.0549700    -1.3167000    -0.2286510
  H        0.7045704     1.8928504     0.9526504
  H       -0.8818830     0.4322700     1.9353370
  H        1.7837760    -0.2316310     1.4680400
  H       -1.9939520    -1.3968640     0.9617720
  H        0.8436020    -1.1475360    -1.2899680
  H        1.8059140    -2.1013880    -0.1265130
  H       -0.3930520     2.0121160    -1.0836700
  H       -2.3417080     0.9766970    -0.3400740
  H        2.3997000     0.9352960    -0.9928030
  H       -1.9956420    -1.6762600    -1.2784950
units angstrom
no_reorient  #important for SAPT in psi4, default
symmetry c1  #important for SAPT in psi4, default
}

set PROPERTIES_ORIGIN ["COM"]
properties('MP2/aug-cc-pvtz', properties = ['dipole'])
--------------------------------------------------------------------------

    Molecular point group: c1
  Charge       = 0
  Multiplicity = 1
  Basis Set: AUG-CC-PVTZ
    Blend: AUG-CC-PVTZ
  Basis Set: (AUG-CC-PVTZ AUX)
    Blend: AUG-CC-PVTZ-JKFIT

    Orbital Energies [Eh]
    ---------------------

    Doubly Occupied:

       1A    -20.591880     2A    -20.580969     3A    -20.574734
       4A    -20.570306     5A    -20.558303     6A    -11.354105
       7A    -11.298664     8A    -11.291016     9A    -11.285875
      10A    -11.278404    11A     -1.438941    12A     -1.391809
      13A     -1.375857    14A     -1.354165    15A     -1.348103
      16A     -1.059289    17A     -1.023194    18A     -0.898930
      19A     -0.870159    20A     -0.798920    21A     -0.752592
      22A     -0.727584    23A     -0.712373    24A     -0.696323
      25A     -0.669558    26A     -0.646419    27A     -0.621219
      28A     -0.615012    29A     -0.602891    30A     -0.584949
      31A     -0.571895    32A     -0.556152    33A     -0.542631
      34A     -0.516362    35A     -0.502776    36A     -0.490916
      37A     -0.487762    38A     -0.471669    39A     -0.440932
      40A     -0.415866

  @DF-RHF Final Energy:  -569.67500564972204

   => Energetics <=

    Nuclear Repulsion Energy =            633.6783369841136846
    One-Electron Energy =               -2041.5676772989006622
    Two-Electron Energy =                 838.2143346650649391
    Total Energy =                       -569.6750056497220385
  Basis Set: (AUG-CC-PVTZ AUX)
    Blend: AUG-CC-PVTZ-RI
    Molecular point group: c1

    Geometry (in Angstrom), charge = 0, multiplicity = 1:

       Center              X                  Y                   Z               Mass
    ------------   -----------------  -----------------  -----------------  -----------------
         O           -0.115097606770    -1.801573376648     0.454593359734    15.994914619570
         O            0.361154093230     1.404374423352    -1.021833240266    15.994914619570
         O           -1.955483606770     1.370045623352     0.468803359734    15.994914619570
         O            2.714487393230     0.449298623352    -0.205946640266    15.994914619570
         O           -1.671958606770    -0.801506376648    -0.998764640266    15.994914619570
         C            0.431263393230     1.012271623352     0.349467359734    12.000000000000
         C           -0.909659606770     0.472994623352     0.839790359734    12.000000000000
         C            1.534182393230    -0.030174376648     0.420123359734    12.000000000000
         C           -1.215470606770    -0.937722376648     0.339438359734    12.000000000000
         C            1.054642393230    -1.317980376648    -0.228930640266    12.000000000000
         H            0.704242793230     1.891570023352     0.952370759734     1.007825032230
         H           -0.882210606770     0.430989623352     1.935057359734     1.007825032230
         H            1.783448393230    -0.232911376648     1.467760359734     1.007825032230
         H           -1.994279606770    -1.398144376648     0.961492359734     1.007825032230
         H            0.843274393230    -1.148816376648    -1.290247640266     1.007825032230
         H            1.805586393230    -2.102668376648    -0.126792640266     1.007825032230
         H           -0.393379606770     2.010835623352    -1.083949640266     1.007825032230
         H           -2.342035606770     0.975416623352    -0.340353640266     1.007825032230
         H            2.399372393230     0.934015623352    -0.993082640266     1.007825032230
         H           -1.995969606770    -1.677540376648    -1.278774640266     1.007825032230

  Basis Set: AUG-CC-PVTZ
    Blend: AUG-CC-PVTZ
  Basis Set: (AUG-CC-PVTZ AUX)
    Blend: AUG-CC-PVTZ-JKFIT
	 Reference Energy          =    -569.6750056497220385 [Eh]
	 Singles Energy            =      -0.0000000000000000 [Eh]
	 Same-Spin Energy          =      -0.5545043699706429 [Eh]
	 Opposite-Spin Energy      =      -1.7036767319338015 [Eh]
	 Correlation Energy        =      -2.2581811019044444 [Eh]
	 Total Energy              =    -571.9331867516265220 [Eh]

	 ================> DF-SCS-MP2 Energies <==================
	-----------------------------------------------------------
	 SCS Same-Spin Scale       =       0.3333333333333333 [-]
	 SCS Opposite-Spin Scale   =       1.2000000000000000 [-]
	 SCS Same-Spin Energy      =      -0.1848347899902143 [Eh]
	 SCS Opposite-Spin Energy  =      -2.0444120783205619 [Eh]
	 SCS Correlation Energy    =      -2.2292468683107760 [Eh]
	 SCS Total Energy          =    -571.9042525180327630 [Eh]
	-----------------------------------------------------------

  Dipole Moment: [D]
     X:    -2.1913      Y:    -1.0224      Z:    -0.2990     Total:     2.4365

*** Psi4 exiting successfully. Buy a developer a beer!
