                               Psi4 1.3.2 release

  ==> Input File <==

--------------------------------------------------------------------------
#psi4
#
memory 32 gb

molecule  {
0 1
  O       -0.1147700    -1.8002930     0.4548730
  O        0.3584290     1.3939840    -1.0246780
  O       -1.9174129     1.4262075     0.5029095
  O        2.7148150     0.4505790    -0.2056670
  O       -1.6716310    -0.8002260    -0.9984850
  C        0.4315910     1.0135520     0.3497470
  C       -0.9093320     0.4742750     0.8400700
  C        1.5345100    -0.0288940     0.4204030
  C       -1.1462452    -0.9606749     0.3723244
  C        1.0549700    -1.3167000    -0.2286510
  H        0.7042560     1.8874530     0.9605880
  H       -0.8818830     0.4322700     1.9353370
  H        1.7837760    -0.2316310     1.4680400
  H       -1.9939520    -1.3968640     0.9617720
  H        0.8436020    -1.1475360    -1.2899680
  H        1.8059140    -2.1013880    -0.1265130
  H       -0.3930520     2.0121160    -1.0836700
  H       -2.3417080     0.9766970    -0.3400740
  H        2.3997000     0.9352960    -0.9928030
  H       -1.9956420    -1.6762600    -1.2784950
units angstrom
no_reorient  #important for SAPT in psi4, default
symmetry c1  #important for SAPT in psi4, default
}

set PROPERTIES_ORIGIN ["COM"]
properties('MP2/aug-cc-pvtz', properties = ['dipole'])
--------------------------------------------------------------------------

    Molecular point group: c1
  Charge       = 0
  Multiplicity = 1
  Basis Set: AUG-CC-PVTZ
    Blend: AUG-CC-PVTZ
  Basis Set: (AUG-CC-PVTZ AUX)
    Blend: AUG-CC-PVTZ-JKFIT

    Orbital Energies [Eh]
    ---------------------

    Doubly Occupied:

       1A    -20.593561     2A    -20.581001     3A    -20.580673
       4A    -20.570051     5A    -20.560151     6A    -11.357155
       7A    -11.296473     8A    -11.289570     9A    -11.288132
      10A    -11.284563    11A     -1.453185    12A     -1.391947
      13A     -1.370551    14A     -1.349030    15A     -1.342352
      16A     -1.060981    17A     -1.028484    18A     -0.899046
      19A     -0.870955    20A     -0.795346    21A     -0.746017
      22A     -0.726980    23A     -0.721072    24A     -0.687251
      25A     -0.670278    26A     -0.641644    27A     -0.623029
      28A     -0.621378    29A     -0.600835    30A     -0.585529
      31A     -0.563992    32A     -0.558698    33A     -0.542656
      34A     -0.514860    35A     -0.505809    36A     -0.490908
      37A     -0.484434    38A     -0.473397    39A     -0.438522
      40A     -0.417871

  @DF-RHF Final Energy:  -569.65910521206354

   => Energetics <=

    Nuclear Repulsion Energy =            633.7897030164929220
    One-Electron Energy =               -2041.7408889203127274
    Two-Electron Energy =                 838.2920806917562686
    Total Energy =                       -569.6591052120635368
  Basis Set: (AUG-CC-PVTZ AUX)
    Blend: AUG-CC-PVTZ-RI
    Molecular point group: c1

    Geometry (in Angstrom), charge = 0, multiplicity = 1:

       Center              X                  Y                   Z               Mass
    ------------   -----------------  -----------------  -----------------  -----------------
         O           -0.124303209800    -1.804205229973     0.448659756088    15.994914619570
         O            0.348895790200     1.390071770027    -1.030891243912    15.994914619570
         O           -1.926946109800     1.422295270027     0.496696256088    15.994914619570
         O            2.705281790200     0.446666770027    -0.211880243912    15.994914619570
         O           -1.681164209800    -0.804138229973    -1.004698243912    15.994914619570
         C            0.422057790200     1.009639770027     0.343533756088    12.000000000000
         C           -0.918865209800     0.470362770027     0.833856756088    12.000000000000
         C            1.524976790200    -0.032806229973     0.414189756088    12.000000000000
         C           -1.155778409800    -0.964587129973     0.366111156088    12.000000000000
         C            1.045436790200    -1.320612229973    -0.234864243912    12.000000000000
         H            0.694722790200     1.883540770027     0.954374756088     1.007825032230
         H           -0.891416209800     0.428357770027     1.929123756088     1.007825032230
         H            1.774242790200    -0.235543229973     1.461826756088     1.007825032230
         H           -2.003485209800    -1.400776229973     0.955558756088     1.007825032230
         H            0.834068790200    -1.151448229973    -1.296181243912     1.007825032230
         H            1.796380790200    -2.105300229973    -0.132726243912     1.007825032230
         H           -0.402585209800     2.008203770027    -1.089883243912     1.007825032230
         H           -2.351241209800     0.972784770027    -0.346287243912     1.007825032230
         H            2.390166790200     0.931383770027    -0.999016243912     1.007825032230
         H           -2.005175209800    -1.680172229973    -1.284708243912     1.007825032230

  Basis Set: AUG-CC-PVTZ
    Blend: AUG-CC-PVTZ
  Basis Set: (AUG-CC-PVTZ AUX)
    Blend: AUG-CC-PVTZ-JKFIT
	 Reference Energy          =    -569.6591052120635368 [Eh]
	 Singles Energy            =      -0.0000000000000000 [Eh]
	 Same-Spin Energy          =      -0.5561524399182936 [Eh]
	 Opposite-Spin Energy      =      -1.7068684858437386 [Eh]
	 Correlation Energy        =      -2.2630209257620324 [Eh]
	 Total Energy              =    -571.9221261378255576 [Eh]

	 ================> DF-SCS-MP2 Energies <==================
	-----------------------------------------------------------
	 SCS Same-Spin Scale       =       0.3333333333333333 [-]
	 SCS Opposite-Spin Scale   =       1.2000000000000000 [-]
	 SCS Same-Spin Energy      =      -0.1853841466394312 [Eh]
	 SCS Opposite-Spin Energy  =      -2.0482421830124862 [Eh]
	 SCS Correlation Energy    =      -2.2336263296519174 [Eh]
	 SCS Total Energy          =    -571.8927315417154205 [Eh]
	-----------------------------------------------------------

  Dipole Moment: [D]
     X:    -1.8639      Y:    -1.2212      Z:    -0.1662     Total:     2.2345

*** Psi4 exiting successfully. Buy a developer a beer!
