                               Psi4 1.3.2 release

  ==> Input File <==

--------------------------------------------------------------------------
#psi4
#
memory 32 gb

molecule  {
0 1
  O       -0.1147700    -1.8002930     0.4548730
  O        0.3584290     1.3939840    -1.0246780
  O       -1.9551560     1.3713260     0.4690830
  O        2.7148150     0.4505790    -0.2056670
  O       -1.6716310    -0.8002260    -0.9984850
  C        0.4315910     1.0135520     0.3497470
  C       -0.9093320     0.4742750     0.8400700
  C        1.5345100    -0.0288940     0.4204030
  C       -1.2151430    -0.9364420     0.3397180
  C        1.0549700    -1.3167000    -0.2286510
  H        0.7042560     1.8874530     0.9605880
  H       -0.8818830     0.4322700     1.9353370
  H        1.7837760    -0.2316310     1.4680400
  H       -1.9939520    -1.3968640     0.9617720
  H        0.8436020    -1.1475360    -1.2899680
  H        1.8059140    -2.1013880    -0.1265130
  H       -0.3930520     2.0121160    -1.0836700
  H       -2.3417080     0.9766970    -0.3400740
  H        2.3997000     0.9352960    -0.9928030
  H       -1.9956420    -1.6762600    -1.2784950
units angstrom
no_reorient  #important for SAPT in psi4, default
symmetry c1  #important for SAPT in psi4, default
}

set PROPERTIES_ORIGIN ["COM"]
properties('MP2/aug-cc-pvtz', properties = ['dipole'])
--------------------------------------------------------------------------

    Molecular point group: c1
  Charge       = 0
  Multiplicity = 1
  Basis Set: AUG-CC-PVTZ
    Blend: AUG-CC-PVTZ
  Basis Set: (AUG-CC-PVTZ AUX)
    Blend: AUG-CC-PVTZ-JKFIT

    Orbital Energies [Eh]
    ---------------------

    Doubly Occupied:

       1A    -20.591598     2A    -20.580754     3A    -20.574638
       4A    -20.571223     5A    -20.558267     6A    -11.353871
       7A    -11.298385     8A    -11.291052     9A    -11.285660
      10A    -11.278159    11A     -1.438727    12A     -1.391517
      13A     -1.375721    14A     -1.353957    15A     -1.347759
      16A     -1.059072    17A     -1.022992    18A     -0.898704
      19A     -0.870033    20A     -0.798387    21A     -0.752275
      22A     -0.727662    23A     -0.711969    24A     -0.696081
      25A     -0.669717    26A     -0.646223    27A     -0.621065
      28A     -0.614123    29A     -0.602886    30A     -0.584668
      31A     -0.571739    32A     -0.556053    33A     -0.542817
      34A     -0.516213    35A     -0.502628    36A     -0.491056
      37A     -0.487640    38A     -0.471636    39A     -0.440620
      40A     -0.415836

  @DF-RHF Final Energy:  -569.67458490919603

   => Energetics <=

    Nuclear Repulsion Energy =            633.8247787521329428
    One-Electron Energy =               -2041.8719576056323604
    Two-Electron Energy =                 838.3725939443033894
    Total Energy =                       -569.6745849091960281
  Basis Set: (AUG-CC-PVTZ AUX)
    Blend: AUG-CC-PVTZ-RI
    Molecular point group: c1

    Geometry (in Angstrom), charge = 0, multiplicity = 1:

       Center              X                  Y                   Z               Mass
    ------------   -----------------  -----------------  -----------------  -----------------
         O           -0.114770091866    -1.800293073619     0.454873093219    15.994914619570
         O            0.358428908134     1.393983926381    -1.024677906781    15.994914619570
         O           -1.955156091866     1.371325926381     0.469083093219    15.994914619570
         O            2.714814908134     0.450578926381    -0.205666906781    15.994914619570
         O           -1.671631091866    -0.800226073619    -0.998484906781    15.994914619570
         C            0.431590908134     1.013551926381     0.349747093219    12.000000000000
         C           -0.909332091866     0.474274926381     0.840070093219    12.000000000000
         C            1.534509908134    -0.028894073619     0.420403093219    12.000000000000
         C           -1.215143091866    -0.936442073619     0.339718093219    12.000000000000
         C            1.054969908134    -1.316700073619    -0.228650906781    12.000000000000
         H            0.704255908134     1.887452926381     0.960588093219     1.007825032230
         H           -0.881883091866     0.432269926381     1.935337093219     1.007825032230
         H            1.783775908134    -0.231631073619     1.468040093219     1.007825032230
         H           -1.993952091866    -1.396864073619     0.961772093219     1.007825032230
         H            0.843601908134    -1.147536073619    -1.289967906781     1.007825032230
         H            1.805913908134    -2.101388073619    -0.126512906781     1.007825032230
         H           -0.393052091866     2.012115926381    -1.083669906781     1.007825032230
         H           -2.341708091866     0.976696926381    -0.340073906781     1.007825032230
         H            2.399699908134     0.935295926381    -0.992802906781     1.007825032230
         H           -1.995642091866    -1.676260073619    -1.278494906781     1.007825032230

  Basis Set: AUG-CC-PVTZ
    Blend: AUG-CC-PVTZ
  Basis Set: (AUG-CC-PVTZ AUX)
    Blend: AUG-CC-PVTZ-JKFIT
	 Reference Energy          =    -569.6745849091960281 [Eh]
	 Singles Energy            =      -0.0000000000000000 [Eh]
	 Same-Spin Energy          =      -0.5546250440330150 [Eh]
	 Opposite-Spin Energy      =      -1.7039270309697436 [Eh]
	 Correlation Energy        =      -2.2585520750027586 [Eh]
	 Total Energy              =    -571.9331369841987680 [Eh]

	 ================> DF-SCS-MP2 Energies <==================
	-----------------------------------------------------------
	 SCS Same-Spin Scale       =       0.3333333333333333 [-]
	 SCS Opposite-Spin Scale   =       1.2000000000000000 [-]
	 SCS Same-Spin Energy      =      -0.1848750146776717 [Eh]
	 SCS Opposite-Spin Energy  =      -2.0447124371636924 [Eh]
	 SCS Correlation Energy    =      -2.2295874518413643 [Eh]
	 SCS Total Energy          =    -571.9041723610373538 [Eh]
	-----------------------------------------------------------

  Dipole Moment: [D]
     X:    -2.1817      Y:    -0.9938      Z:    -0.2995     Total:     2.4161

*** Psi4 exiting successfully. Buy a developer a beer!
