                               Psi4 1.3.2 release

  ==> Input File <==

--------------------------------------------------------------------------
#psi4
#
memory 32 gb

molecule  {
0 1
  O       -0.1147700    -1.8002930     0.4548730
  O        0.3584290     1.3939840    -1.0246780
  O       -1.9551560     1.3713260     0.4690830
  O        2.7148150     0.4505790    -0.2056670
  O       -1.6716310    -0.8002260    -0.9984850
  C        0.4213441     1.0668346     0.1572477
  C       -0.9093320     0.4742750     0.8400700
  C        1.5345100    -0.0288940     0.4204030
  C       -1.2151430    -0.9364420     0.3397180
  C        1.0549700    -1.3167000    -0.2286510
  H        0.7042560     1.8874530     0.9605880
  H       -0.8818830     0.4322700     1.9353370
  H        1.7837760    -0.2316310     1.4680400
  H       -1.9939520    -1.3968640     0.9617720
  H        0.8436020    -1.1475360    -1.2899680
  H        1.8059140    -2.1013880    -0.1265130
  H       -0.3930520     2.0121160    -1.0836700
  H       -2.3417080     0.9766970    -0.3400740
  H        2.3997000     0.9352960    -0.9928030
  H       -1.9956420    -1.6762600    -1.2784950
units angstrom
no_reorient  #important for SAPT in psi4, default
symmetry c1  #important for SAPT in psi4, default
}

set PROPERTIES_ORIGIN ["COM"]
properties('MP2/aug-cc-pvtz', properties = ['dipole'])
--------------------------------------------------------------------------

    Molecular point group: c1
  Charge       = 0
  Multiplicity = 1
  Basis Set: AUG-CC-PVTZ
    Blend: AUG-CC-PVTZ
  Basis Set: (AUG-CC-PVTZ AUX)
    Blend: AUG-CC-PVTZ-JKFIT

    Orbital Energies [Eh]
    ---------------------

    Doubly Occupied:

       1A    -20.595588     2A    -20.591639     3A    -20.578160
       4A    -20.571079     5A    -20.555015     6A    -11.349278
       7A    -11.296684     8A    -11.292014     9A    -11.281978
      10A    -11.275162    11A     -1.484462    12A     -1.433606
      13A     -1.374264    14A     -1.358782    15A     -1.352039
      16A     -1.034981    17A     -1.017286    18A     -0.893914
      19A     -0.858937    20A     -0.820451    21A     -0.761128
      22A     -0.734512    23A     -0.718436    24A     -0.701873
      25A     -0.695349    26A     -0.647389    27A     -0.637543
      28A     -0.621731    29A     -0.604263    30A     -0.587027
      31A     -0.568130    32A     -0.563857    33A     -0.552394
      34A     -0.517690    35A     -0.501848    36A     -0.488970
      37A     -0.484686    38A     -0.459701    39A     -0.409119
      40A     -0.391440

  @DF-RHF Final Energy:  -569.63050396043604

   => Energetics <=

    Nuclear Repulsion Energy =            635.2708309189397369
    One-Electron Energy =               -2044.4778573935277564
    Two-Electron Energy =                 839.5765225141519750
    Total Energy =                       -569.6305039604360445
  Basis Set: (AUG-CC-PVTZ AUX)
    Blend: AUG-CC-PVTZ-RI
    Molecular point group: c1

    Geometry (in Angstrom), charge = 0, multiplicity = 1:

       Center              X                  Y                   Z               Mass
    ------------   -----------------  -----------------  -----------------  -----------------
         O           -0.113950628445    -1.804554181044     0.470267615944    15.994914619570
         O            0.359248371555     1.389722818956    -1.009283384056    15.994914619570
         O           -1.954336628445     1.367064818956     0.484477615944    15.994914619570
         O            2.715634371555     0.446317818956    -0.190272384056    15.994914619570
         O           -1.670811628445    -0.804487181044    -0.983090384056    15.994914619570
         C            0.422163471555     1.062573418956     0.172642315944    12.000000000000
         C           -0.908512628445     0.470013818956     0.855464615944    12.000000000000
         C            1.535329371555    -0.033155181044     0.435797615944    12.000000000000
         C           -1.214323628445    -0.940703181044     0.355112615944    12.000000000000
         C            1.055789371555    -1.320961181044    -0.213256384056    12.000000000000
         H            0.705075371555     1.883191818956     0.975982615944     1.007825032230
         H           -0.881063628445     0.428008818956     1.950731615944     1.007825032230
         H            1.784595371555    -0.235892181044     1.483434615944     1.007825032230
         H           -1.993132628445    -1.401125181044     0.977166615944     1.007825032230
         H            0.844421371555    -1.151797181044    -1.274573384056     1.007825032230
         H            1.806733371555    -2.105649181044    -0.111118384056     1.007825032230
         H           -0.392232628445     2.007854818956    -1.068275384056     1.007825032230
         H           -2.340888628445     0.972435818956    -0.324679384056     1.007825032230
         H            2.400519371555     0.931034818956    -0.977408384056     1.007825032230
         H           -1.994822628445    -1.680521181044    -1.263100384056     1.007825032230

  Basis Set: AUG-CC-PVTZ
    Blend: AUG-CC-PVTZ
  Basis Set: (AUG-CC-PVTZ AUX)
    Blend: AUG-CC-PVTZ-JKFIT
	 Reference Energy          =    -569.6305039604360445 [Eh]
	 Singles Energy            =      -0.0000000000000000 [Eh]
	 Same-Spin Energy          =      -0.5555825769099486 [Eh]
	 Opposite-Spin Energy      =      -1.7033760246805865 [Eh]
	 Correlation Energy        =      -2.2589586015905350 [Eh]
	 Total Energy              =    -571.8894625620265515 [Eh]

	 ================> DF-SCS-MP2 Energies <==================
	-----------------------------------------------------------
	 SCS Same-Spin Scale       =       0.3333333333333333 [-]
	 SCS Opposite-Spin Scale   =       1.2000000000000000 [-]
	 SCS Same-Spin Energy      =      -0.1851941923033162 [Eh]
	 SCS Opposite-Spin Energy  =      -2.0440512296167035 [Eh]
	 SCS Correlation Energy    =      -2.2292454219200195 [Eh]
	 SCS Total Energy          =    -571.8597493823560853 [Eh]
	-----------------------------------------------------------

  Dipole Moment: [D]
     X:    -2.2327      Y:    -0.7971      Z:    -0.9476     Total:     2.5531

*** Psi4 exiting successfully. Buy a developer a beer!
