                               Psi4 1.4a3.dev225

  ==> Input File <==

--------------------------------------------------------------------------
#psi4
#
memory 32 gb

molecule  {
0 1
  O       -0.2343850     1.7978400    -0.4145210
  O        0.4791390    -1.3900560     0.9851260
  O       -1.8902550    -1.4798720    -0.4079610
  O        2.7489250    -0.2990660     0.0843650
  O       -1.6766260     0.6849030     1.0797040
  C        0.4758930    -0.9871420    -0.3839460
  C       -0.9153110    -0.5160320    -0.8112700
  C        1.5148540     0.1205520    -0.4811210
  C       -1.2794180     0.8705190    -0.2725550
  C        0.9914930     1.3693070     0.2124490
  H        0.7732420    -1.8350180    -1.0199460
  H       -0.9367810    -0.4539690    -1.9062570
  H        1.7061480     0.3550680    -1.5342930
  H       -2.1226688     1.3022900    -0.8648464
  H        0.8333730     1.1741050     1.2776920
  H        1.6908660     2.1982840     0.0933200
  H       -0.2684360    -2.0097880     1.0741120
  H       -2.2907410    -1.1048270     0.4011470
  H        2.5001980    -0.8049050     0.8819700
  H       -2.0397460     1.5332780     1.3914430
units angstrom
no_reorient  #important for SAPT in psi4, default
symmetry c1  #important for SAPT in psi4, default
}

set PROPERTIES_ORIGIN ["COM"]
properties('MP2/aug-cc-pvtz', properties = ['dipole'])
--------------------------------------------------------------------------

    Molecular point group: c1
  Charge       = 0
  Multiplicity = 1
  Basis Set: AUG-CC-PVTZ
    Blend: AUG-CC-PVTZ
  Basis Set: (AUG-CC-PVTZ AUX)
    Blend: AUG-CC-PVTZ-JKFIT

    Orbital Energies [Eh]
    ---------------------

    Doubly Occupied:

       1A    -20.592356     2A    -20.581459     3A    -20.575263
       4A    -20.570140     5A    -20.558745     6A    -11.357276
       7A    -11.299847     8A    -11.291342     9A    -11.286362
      10A    -11.279020    11A     -1.438185    12A     -1.391012
      13A     -1.375585    14A     -1.354125    15A     -1.347523
      16A     -1.058037    17A     -1.022049    18A     -0.898240
      19A     -0.869501    20A     -0.798141    21A     -0.750860
      22A     -0.726691    23A     -0.711850    24A     -0.695758
      25A     -0.668018    26A     -0.647270    27A     -0.620906
      28A     -0.614721    29A     -0.601600    30A     -0.584588
      31A     -0.571885    32A     -0.556732    33A     -0.542990
      34A     -0.515797    35A     -0.502152    36A     -0.490467
      37A     -0.487729    38A     -0.471148    39A     -0.440959
      40A     -0.416030

  @DF-RHF Final Energy:  -569.67383989839232

   => Energetics <=

    Nuclear Repulsion Energy =            633.0228789156057019
    One-Electron Energy =               -2040.2687237819393431
    Two-Electron Energy =                 837.5720049679414387
    Total Energy =                       -569.6738398983923162
  Basis Set: (AUG-CC-PVTZ AUX)
    Blend: AUG-CC-PVTZ-RI
    Molecular point group: c1

    Geometry (in Angstrom), charge = 0, multiplicity = 1:

       Center              X                  Y                   Z               Mass
    ------------   -----------------  -----------------  -----------------  -----------------
         O           -0.235225102982     1.800057792576    -0.415694436608    15.994914619570
         O            0.478298897018    -1.387838207424     0.983952563392    15.994914619570
         O           -1.891095102982    -1.477654207424    -0.409134436608    15.994914619570
         O            2.748084897018    -0.296848207424     0.083191563392    15.994914619570
         O           -1.677466102982     0.687120792576     1.078530563392    15.994914619570
         C            0.475052897018    -0.984924207424    -0.385119436608    12.000000000000
         C           -0.916151102982    -0.513814207424    -0.812443436608    12.000000000000
         C            1.514013897018     0.122769792576    -0.482294436608    12.000000000000
         C           -1.280258102982     0.872736792576    -0.273728436608    12.000000000000
         C            0.990652897018     1.371524792576     0.211275563392    12.000000000000
         H            0.772401897018    -1.832800207424    -1.021119436608     1.007825032230
         H           -0.937621102982    -0.451751207424    -1.907430436608     1.007825032230
         H            1.705307897018     0.357285792576    -1.535466436608     1.007825032230
         H           -2.123508902982     1.304507792576    -0.866019836608     1.007825032230
         H            0.832532897018     1.176322792576     1.276518563392     1.007825032230
         H            1.690025897018     2.200501792576     0.092146563392     1.007825032230
         H           -0.269276102982    -2.007570207424     1.072938563392     1.007825032230
         H           -2.291581102982    -1.102609207424     0.399973563392     1.007825032230
         H            2.499357897018    -0.802687207424     0.880796563392     1.007825032230
         H           -2.040586102982     1.535495792576     1.390269563392     1.007825032230

  Basis Set: AUG-CC-PVTZ
    Blend: AUG-CC-PVTZ
  Basis Set: (AUG-CC-PVTZ AUX)
    Blend: AUG-CC-PVTZ-JKFIT
	 Reference Energy          =    -569.6738398983923162 [Eh]
	 Singles Energy            =      -0.0000000000000000 [Eh]
	 Same-Spin Energy          =      -0.5545677560698374 [Eh]
	 Opposite-Spin Energy      =      -1.7041501590931669 [Eh]
	 Correlation Energy        =      -2.2587179151630044 [Eh]
	 Total Energy              =    -571.9325578135553769 [Eh]

	 ================> DF-SCS-MP2 Energies <==================
	-----------------------------------------------------------
	 SCS Same-Spin Scale       =       0.3333333333333333 [-]
	 SCS Opposite-Spin Scale   =       1.2000000000000000 [-]
	 SCS Same-Spin Energy      =      -0.1848559186899458 [Eh]
	 SCS Opposite-Spin Energy  =      -2.0449801909118004 [Eh]
	 SCS Correlation Energy    =      -2.2298361096017461 [Eh]
	 SCS Total Energy          =    -571.9036760079940223 [Eh]
	-----------------------------------------------------------

  Dipole Moment: [D]
     X:    -2.2835      Y:     0.9616      Z:     0.4064     Total:     2.5108

*** Psi4 exiting successfully. Buy a developer a beer!
