                               Psi4 1.3.2 release

  ==> Input File <==

--------------------------------------------------------------------------
#psi4
#
memory 32 gb

molecule  {
0 1
  O       -0.1147700    -1.8002930     0.4548730
  O        0.3584290     1.3939840    -1.0246780
  O       -1.9551560     1.3713260     0.4690830
  O        2.7148150     0.4505790    -0.2056670
  O       -1.6716310    -0.8002260    -0.9984850
  C        0.4315910     1.0135520     0.3497470
  C       -0.9093320     0.4742750     0.8400700
  C        1.7008088     0.0386612     0.3321930
  C       -1.2151430    -0.9364420     0.3397180
  C        1.0549700    -1.3167000    -0.2286510
  H        0.7042560     1.8874530     0.9605880
  H       -0.8818830     0.4322700     1.9353370
  H        1.7837760    -0.2316310     1.4680400
  H       -1.9939520    -1.3968640     0.9617720
  H        0.8436020    -1.1475360    -1.2899680
  H        1.8059140    -2.1013880    -0.1265130
  H       -0.3930520     2.0121160    -1.0836700
  H       -2.3417080     0.9766970    -0.3400740
  H        2.3997000     0.9352960    -0.9928030
  H       -1.9956420    -1.6762600    -1.2784950
units angstrom
no_reorient  #important for SAPT in psi4, default
symmetry c1  #important for SAPT in psi4, default
}

set PROPERTIES_ORIGIN ["COM"]
properties('MP2/aug-cc-pvtz', properties = ['dipole'])
--------------------------------------------------------------------------

    Molecular point group: c1
  Charge       = 0
  Multiplicity = 1
  Basis Set: AUG-CC-PVTZ
    Blend: AUG-CC-PVTZ
  Basis Set: (AUG-CC-PVTZ AUX)
    Blend: AUG-CC-PVTZ-JKFIT

    Orbital Energies [Eh]
    ---------------------

    Doubly Occupied:

       1A    -20.588377     2A    -20.582136     3A    -20.579882
       4A    -20.573255     5A    -20.568422     6A    -11.350283
       7A    -11.296711     8A    -11.295074     9A    -11.285370
      10A    -11.270142    11A     -1.472845    12A     -1.433136
      13A     -1.384006    14A     -1.361380    15A     -1.349588
      16A     -1.039475    17A     -1.006881    18A     -0.889472
      19A     -0.871485    20A     -0.816202    21A     -0.755465
      22A     -0.725669    23A     -0.710206    24A     -0.705908
      25A     -0.680565    26A     -0.653986    27A     -0.649246
      28A     -0.621413    29A     -0.599206    30A     -0.596329
      31A     -0.578436    32A     -0.564055    33A     -0.543188
      34A     -0.506883    35A     -0.500204    36A     -0.489259
      37A     -0.483310    38A     -0.442700    39A     -0.433020
      40A     -0.382382

  @DF-RHF Final Energy:  -569.62742126873320

   => Energetics <=

    Nuclear Repulsion Energy =            633.2527956607317492
    One-Electron Energy =               -2040.4893307861998437
    Two-Electron Energy =                 837.6091138567347798
    Total Energy =                       -569.6274212687332010
  Basis Set: (AUG-CC-PVTZ AUX)
    Blend: AUG-CC-PVTZ-RI
    Molecular point group: c1

    Geometry (in Angstrom), charge = 0, multiplicity = 1:

       Center              X                  Y                   Z               Mass
    ------------   -----------------  -----------------  -----------------  -----------------
         O           -0.128069312464    -1.805695587090     0.461927408999    15.994914619570
         O            0.345129687536     1.388581412910    -1.017623591001    15.994914619570
         O           -1.968455312464     1.365923412910     0.476137408999    15.994914619570
         O            2.701515687536     0.445176412910    -0.198612591001    15.994914619570
         O           -1.684930312464    -0.805628587090    -0.991430591001    15.994914619570
         C            0.418291687536     1.008149412910     0.356801408999    12.000000000000
         C           -0.922631312464     0.468872412910     0.847124408999    12.000000000000
         C            1.687509487536     0.033258612910     0.339247408999    12.000000000000
         C           -1.228442312464    -0.941844587090     0.346772408999    12.000000000000
         C            1.041670687536    -1.322102587090    -0.221596591001    12.000000000000
         H            0.690956687536     1.882050412910     0.967642408999     1.007825032230
         H           -0.895182312464     0.426867412910     1.942391408999     1.007825032230
         H            1.770476687536    -0.237033587090     1.475094408999     1.007825032230
         H           -2.007251312464    -1.402266587090     0.968826408999     1.007825032230
         H            0.830302687536    -1.152938587090    -1.282913591001     1.007825032230
         H            1.792614687536    -2.106790587090    -0.119458591001     1.007825032230
         H           -0.406351312464     2.006713412910    -1.076615591001     1.007825032230
         H           -2.355007312464     0.971294412910    -0.333019591001     1.007825032230
         H            2.386400687536     0.929893412910    -0.985748591001     1.007825032230
         H           -2.008941312464    -1.681662587090    -1.271440591001     1.007825032230

  Basis Set: AUG-CC-PVTZ
    Blend: AUG-CC-PVTZ
  Basis Set: (AUG-CC-PVTZ AUX)
    Blend: AUG-CC-PVTZ-JKFIT
	 Reference Energy          =    -569.6274212687332010 [Eh]
	 Singles Energy            =      -0.0000000000000000 [Eh]
	 Same-Spin Energy          =      -0.5557173946526386 [Eh]
	 Opposite-Spin Energy      =      -1.7038039416285082 [Eh]
	 Correlation Energy        =      -2.2595213362811468 [Eh]
	 Total Energy              =    -571.8869426050143829 [Eh]

	 ================> DF-SCS-MP2 Energies <==================
	-----------------------------------------------------------
	 SCS Same-Spin Scale       =       0.3333333333333333 [-]
	 SCS Opposite-Spin Scale   =       1.2000000000000000 [-]
	 SCS Same-Spin Energy      =      -0.1852391315508795 [Eh]
	 SCS Opposite-Spin Energy  =      -2.0445647299542098 [Eh]
	 SCS Correlation Energy    =      -2.2298038615050895 [Eh]
	 SCS Total Energy          =    -571.8572251302382483 [Eh]
	-----------------------------------------------------------

  Dipole Moment: [D]
     X:    -1.4897      Y:    -0.6284      Z:    -0.6378     Total:     1.7381

*** Psi4 exiting successfully. Buy a developer a beer!
