                               Psi4 1.3.2 release

  ==> Input File <==

--------------------------------------------------------------------------
#psi4
#
memory 32 gb

molecule  {
0 1
  O       -0.1147700    -1.8002930     0.4548730
  O        0.3584290     1.3939840    -1.0246780
  O       -1.9551560     1.3713260     0.4690830
  O        2.7148150     0.4505790    -0.2056670
  O       -1.6716310    -0.8002260    -0.9984850
  C        0.4315910     1.0135520     0.3497470
  C       -0.9093320     0.4742750     0.8400700
  C        1.5345100    -0.0288940     0.4204030
  C       -1.2156113    -0.9407494     0.3523263
  C        1.0549700    -1.3167000    -0.2286510
  H        0.7042560     1.8874530     0.9605880
  H       -0.8838152     0.4229058     1.9349845
  H        1.7837760    -0.2316310     1.4680400
  H       -1.9939520    -1.3968640     0.9617720
  H        0.8436020    -1.1475360    -1.2899680
  H        1.8059140    -2.1013880    -0.1265130
  H       -0.3930520     2.0121160    -1.0836700
  H       -2.3417080     0.9766970    -0.3400740
  H        2.3997000     0.9352960    -0.9928030
  H       -1.9956420    -1.6762600    -1.2784950
units angstrom
no_reorient  #important for SAPT in psi4, default
symmetry c1  #important for SAPT in psi4, default
}

set PROPERTIES_ORIGIN ["COM"]
properties('MP2/aug-cc-pvtz', properties = ['dipole'])
--------------------------------------------------------------------------

    Molecular point group: c1
  Charge       = 0
  Multiplicity = 1
  Basis Set: AUG-CC-PVTZ
    Blend: AUG-CC-PVTZ
  Basis Set: (AUG-CC-PVTZ AUX)
    Blend: AUG-CC-PVTZ-JKFIT

    Orbital Energies [Eh]
    ---------------------

    Doubly Occupied:

       1A    -20.589520     2A    -20.581309     3A    -20.574725
       4A    -20.571194     5A    -20.558432     6A    -11.353779
       7A    -11.298558     8A    -11.291390     9A    -11.285892
      10A    -11.278628    11A     -1.436979    12A     -1.391421
      13A     -1.375472    14A     -1.351859    15A     -1.347801
      16A     -1.059240    17A     -1.024050    18A     -0.898846
      19A     -0.870645    20A     -0.797562    21A     -0.751997
      22A     -0.727261    23A     -0.712091    24A     -0.695283
      25A     -0.669305    26A     -0.646224    27A     -0.620616
      28A     -0.614548    29A     -0.602444    30A     -0.584465
      31A     -0.571408    32A     -0.555921    33A     -0.542777
      34A     -0.516187    35A     -0.503370    36A     -0.491255
      37A     -0.486743    38A     -0.471688    39A     -0.441331
      40A     -0.416279

  @DF-RHF Final Energy:  -569.67435648817968

   => Energetics <=

    Nuclear Repulsion Energy =            633.6647745311951212
    One-Electron Energy =               -2041.5612731028606959
    Two-Electron Energy =                 838.2221420834860055
    Total Energy =                       -569.6743564881796829
  Basis Set: (AUG-CC-PVTZ AUX)
    Blend: AUG-CC-PVTZ-RI
    Molecular point group: c1

    Geometry (in Angstrom), charge = 0, multiplicity = 1:

       Center              X                  Y                   Z               Mass
    ------------   -----------------  -----------------  -----------------  -----------------
         O           -0.114719663494    -1.799885708574     0.453867151857    15.994914619570
         O            0.358479336506     1.394391291426    -1.025683848143    15.994914619570
         O           -1.955105663494     1.371733291426     0.468077151857    15.994914619570
         O            2.714865336506     0.450986291426    -0.206672848143    15.994914619570
         O           -1.671580663494    -0.799818708574    -0.999490848143    15.994914619570
         C            0.431641336506     1.013959291426     0.348741151857    12.000000000000
         C           -0.909281663494     0.474682291426     0.839064151857    12.000000000000
         C            1.534560336506    -0.028486708574     0.419397151857    12.000000000000
         C           -1.215560963494    -0.940342108574     0.351320451857    12.000000000000
         C            1.055020336506    -1.316292708574    -0.229656848143    12.000000000000
         H            0.704306336506     1.887860291426     0.959582151857     1.007825032230
         H           -0.883764863494     0.423313091426     1.933978651857     1.007825032230
         H            1.783826336506    -0.231223708574     1.467034151857     1.007825032230
         H           -1.993901663494    -1.396456708574     0.960766151857     1.007825032230
         H            0.843652336506    -1.147128708574    -1.290973848143     1.007825032230
         H            1.805964336506    -2.100980708574    -0.127518848143     1.007825032230
         H           -0.393001663494     2.012523291426    -1.084675848143     1.007825032230
         H           -2.341657663494     0.977104291426    -0.341079848143     1.007825032230
         H            2.399750336506     0.935703291426    -0.993808848143     1.007825032230
         H           -1.995591663494    -1.675852708574    -1.279500848143     1.007825032230

  Basis Set: AUG-CC-PVTZ
    Blend: AUG-CC-PVTZ
  Basis Set: (AUG-CC-PVTZ AUX)
    Blend: AUG-CC-PVTZ-JKFIT
	 Reference Energy          =    -569.6743564881796829 [Eh]
	 Singles Energy            =      -0.0000000000000000 [Eh]
	 Same-Spin Energy          =      -0.5546110843480436 [Eh]
	 Opposite-Spin Energy      =      -1.7040061475056305 [Eh]
	 Correlation Energy        =      -2.2586172318536741 [Eh]
	 Total Energy              =    -571.9329737200333739 [Eh]

	 ================> DF-SCS-MP2 Energies <==================
	-----------------------------------------------------------
	 SCS Same-Spin Scale       =       0.3333333333333333 [-]
	 SCS Opposite-Spin Scale   =       1.2000000000000000 [-]
	 SCS Same-Spin Energy      =      -0.1848703614493479 [Eh]
	 SCS Opposite-Spin Energy  =      -2.0448073770067565 [Eh]
	 SCS Correlation Energy    =      -2.2296777384561044 [Eh]
	 SCS Total Energy          =    -571.9040342266357584 [Eh]
	-----------------------------------------------------------

  Dipole Moment: [D]
     X:    -2.1564      Y:    -1.0040      Z:    -0.2507     Total:     2.3918

*** Psi4 exiting successfully. Buy a developer a beer!
