                               Psi4 1.4a3.dev225

  ==> Input File <==

--------------------------------------------------------------------------
#psi4
#
memory 32 gb

molecule  {
0 1
  O       -0.2343850     1.7978400    -0.4145210
  O        0.4791390    -1.3900560     0.9851260
  O       -1.8902550    -1.4798720    -0.4079610
  O        2.7489250    -0.2990660     0.0843650
  O       -1.6766260     0.6849030     1.0797040
  C        0.4758930    -0.9871420    -0.3839460
  C       -0.9153110    -0.5160320    -0.8112700
  C        1.5148540     0.1205520    -0.4811210
  C       -1.2794180     0.8705190    -0.2725550
  C        0.9914930     1.3693070     0.2124490
  H        0.7732420    -1.8350180    -1.0199460
  H       -0.9367810    -0.4539690    -1.9062570
  H        1.7026566     0.3507877    -1.5150709
  H       -2.1075740     1.2945610    -0.8542440
  H        0.8333730     1.1741050     1.2776920
  H        1.6908660     2.1982840     0.0933200
  H       -0.2684360    -2.0097880     1.0741120
  H       -2.2907410    -1.1048270     0.4011470
  H        2.5001980    -0.8049050     0.8819700
  H       -2.0397460     1.5332780     1.3914430
units angstrom
no_reorient  #important for SAPT in psi4, default
symmetry c1  #important for SAPT in psi4, default
}

set PROPERTIES_ORIGIN ["COM"]
properties('MP2/aug-cc-pvtz', properties = ['dipole'])
--------------------------------------------------------------------------

    Molecular point group: c1
  Charge       = 0
  Multiplicity = 1
  Basis Set: AUG-CC-PVTZ
    Blend: AUG-CC-PVTZ
  Basis Set: (AUG-CC-PVTZ AUX)
    Blend: AUG-CC-PVTZ-JKFIT

    Orbital Energies [Eh]
    ---------------------

    Doubly Occupied:

       1A    -20.592025     2A    -20.581213     3A    -20.575233
       4A    -20.569924     5A    -20.558364     6A    -11.354894
       7A    -11.299685     8A    -11.291047     9A    -11.283815
      10A    -11.278662    11A     -1.438107    12A     -1.390828
      13A     -1.375443    14A     -1.353914    15A     -1.347299
      16A     -1.058351    17A     -1.022934    18A     -0.898475
      19A     -0.871151    20A     -0.799314    21A     -0.752567
      22A     -0.726917    23A     -0.712241    24A     -0.695879
      25A     -0.668022    26A     -0.647427    27A     -0.620903
      28A     -0.614595    29A     -0.601582    30A     -0.585791
      31A     -0.572509    32A     -0.556535    33A     -0.543025
      34A     -0.516508    35A     -0.502976    36A     -0.490588
      37A     -0.487826    38A     -0.471604    39A     -0.440983
      40A     -0.415950

  @DF-RHF Final Energy:  -569.67458485783482

   => Energetics <=

    Nuclear Repulsion Energy =            633.2669769524914045
    One-Electron Energy =               -2040.7529106908152698
    Two-Electron Energy =                 837.8113488804890494
    Total Energy =                       -569.6745848578348159
  Basis Set: (AUG-CC-PVTZ AUX)
    Blend: AUG-CC-PVTZ-RI
    Molecular point group: c1

    Geometry (in Angstrom), charge = 0, multiplicity = 1:

       Center              X                  Y                   Z               Mass
    ------------   -----------------  -----------------  -----------------  -----------------
         O           -0.235303036850     1.800138452659    -0.415894751916    15.994914619570
         O            0.478220963150    -1.387757547341     0.983752248084    15.994914619570
         O           -1.891173036850    -1.477573547341    -0.409334751916    15.994914619570
         O            2.748006963150    -0.296767547341     0.082991248084    15.994914619570
         O           -1.677544036850     0.687201452659     1.078330248084    15.994914619570
         C            0.474974963150    -0.984843547341    -0.385319751916    12.000000000000
         C           -0.916229036850    -0.513733547341    -0.812643751916    12.000000000000
         C            1.513935963150     0.122850452659    -0.482494751916    12.000000000000
         C           -1.280336036850     0.872817452659    -0.273928751916    12.000000000000
         C            0.990574963150     1.371605452659     0.211075248084    12.000000000000
         H            0.772323963150    -1.832719547341    -1.021319751916     1.007825032230
         H           -0.937699036850    -0.451670547341    -1.907630751916     1.007825032230
         H            1.701738563150     0.353086152659    -1.516444651916     1.007825032230
         H           -2.108492036850     1.296859452659    -0.855617751916     1.007825032230
         H            0.832454963150     1.176403452659     1.276318248084     1.007825032230
         H            1.689947963150     2.200582452659     0.091946248084     1.007825032230
         H           -0.269354036850    -2.007489547341     1.072738248084     1.007825032230
         H           -2.291659036850    -1.102528547341     0.399773248084     1.007825032230
         H            2.499279963150    -0.802606547341     0.880596248084     1.007825032230
         H           -2.040664036850     1.535576452659     1.390069248084     1.007825032230

  Basis Set: AUG-CC-PVTZ
    Blend: AUG-CC-PVTZ
  Basis Set: (AUG-CC-PVTZ AUX)
    Blend: AUG-CC-PVTZ-JKFIT
	 Reference Energy          =    -569.6745848578348159 [Eh]
	 Singles Energy            =      -0.0000000000000000 [Eh]
	 Same-Spin Energy          =      -0.5544968348511201 [Eh]
	 Opposite-Spin Energy      =      -1.7038279742676941 [Eh]
	 Correlation Energy        =      -2.2583248091188142 [Eh]
	 Total Energy              =    -571.9329096669536057 [Eh]

	 ================> DF-SCS-MP2 Energies <==================
	-----------------------------------------------------------
	 SCS Same-Spin Scale       =       0.3333333333333333 [-]
	 SCS Opposite-Spin Scale   =       1.2000000000000000 [-]
	 SCS Same-Spin Energy      =      -0.1848322782837067 [Eh]
	 SCS Opposite-Spin Energy  =      -2.0445935691212327 [Eh]
	 SCS Correlation Energy    =      -2.2294258474049395 [Eh]
	 SCS Total Energy          =    -571.9040107052397843 [Eh]
	-----------------------------------------------------------

  Dipole Moment: [D]
     X:    -2.2955      Y:     0.9677      Z:     0.3886     Total:     2.5213

*** Psi4 exiting successfully. Buy a developer a beer!
