                               Psi4 1.3.2 release

  ==> Input File <==

--------------------------------------------------------------------------
#psi4
#
memory 32 gb

molecule  {
0 1
  O       -0.1147700    -1.8002930     0.4548730
  O        0.3584290     1.3939840    -1.0246780
  O       -1.9551560     1.3713260     0.4690830
  O        2.7148150     0.4505790    -0.2056670
  O       -1.6716310    -0.8002260    -0.9984850
  C        0.3861494     0.9599177     0.3125340
  C       -0.9093320     0.4742750     0.8400700
  C        1.5345100    -0.0288940     0.4204030
  C       -1.2151430    -0.9364420     0.3397180
  C        0.9855535    -1.2808290    -0.2436599
  H        0.7042560     1.8874530     0.9605880
  H       -0.8818830     0.4322700     1.9353370
  H        1.7837760    -0.2316310     1.4680400
  H       -1.9939520    -1.3968640     0.9617720
  H        0.8436020    -1.1475360    -1.2899680
  H        1.8059140    -2.1013880    -0.1265130
  H       -0.3930520     2.0121160    -1.0836700
  H       -2.3417080     0.9766970    -0.3400740
  H        2.3997000     0.9352960    -0.9928030
  H       -1.9956420    -1.6762600    -1.2784950
units angstrom
no_reorient  #important for SAPT in psi4, default
symmetry c1  #important for SAPT in psi4, default
}

set PROPERTIES_ORIGIN ["COM"]
properties('MP2/aug-cc-pvtz', properties = ['dipole'])
--------------------------------------------------------------------------

    Molecular point group: c1
  Charge       = 0
  Multiplicity = 1
  Basis Set: AUG-CC-PVTZ
    Blend: AUG-CC-PVTZ
  Basis Set: (AUG-CC-PVTZ AUX)
    Blend: AUG-CC-PVTZ-JKFIT

    Orbital Energies [Eh]
    ---------------------

    Doubly Occupied:

       1A    -20.594929     2A    -20.587823     3A    -20.576987
       4A    -20.574510     5A    -20.560687     6A    -11.355007
       7A    -11.299333     8A    -11.292759     9A    -11.285837
      10A    -11.277816    11A     -1.449079    12A     -1.399466
      13A     -1.381352    14A     -1.360296    15A     -1.351607
      16A     -1.068051    17A     -1.025136    18A     -0.892493
      19A     -0.874998    20A     -0.804068    21A     -0.758430
      22A     -0.726396    23A     -0.716888    24A     -0.699185
      25A     -0.675209    26A     -0.651118    27A     -0.628698
      28A     -0.615797    29A     -0.603251    30A     -0.583676
      31A     -0.573074    32A     -0.548307    33A     -0.547209
      34A     -0.520723    35A     -0.502750    36A     -0.493919
      37A     -0.488870    38A     -0.469947    39A     -0.445462
      40A     -0.403518

  @DF-RHF Final Energy:  -569.65822684633508

   => Energetics <=

    Nuclear Repulsion Energy =            636.5895143974211123
    One-Electron Energy =               -2047.1661611184692902
    Two-Electron Energy =                 840.9184198747132086
    Total Energy =                       -569.6582268463350829
  Basis Set: (AUG-CC-PVTZ AUX)
    Blend: AUG-CC-PVTZ-RI
    Molecular point group: c1

    Geometry (in Angstrom), charge = 0, multiplicity = 1:

       Center              X                  Y                   Z               Mass
    ------------   -----------------  -----------------  -----------------  -----------------
         O           -0.105584678565    -1.798872509879     0.459049374516    15.994914619570
         O            0.367614321435     1.395404490121    -1.020501625484    15.994914619570
         O           -1.945970678565     1.372746490121     0.473259374516    15.994914619570
         O            2.724000321435     0.451999490121    -0.201490625484    15.994914619570
         O           -1.662445678565    -0.798805509879    -0.994308625484    15.994914619570
         C            0.395334721435     0.961338190121     0.316710374516    12.000000000000
         C           -0.900146678565     0.475695490121     0.844246374516    12.000000000000
         C            1.543695321435    -0.027473509879     0.424579374516    12.000000000000
         C           -1.205957678565    -0.935021509879     0.343894374516    12.000000000000
         C            0.994738821435    -1.279408509879    -0.239483525484    12.000000000000
         H            0.713441321435     1.888873490121     0.964764374516     1.007825032230
         H           -0.872697678565     0.433690490121     1.939513374516     1.007825032230
         H            1.792961321435    -0.230210509879     1.472216374516     1.007825032230
         H           -1.984766678565    -1.395443509879     0.965948374516     1.007825032230
         H            0.852787321435    -1.146115509879    -1.285791625484     1.007825032230
         H            1.815099321435    -2.099967509879    -0.122336625484     1.007825032230
         H           -0.383866678565     2.013536490121    -1.079493625484     1.007825032230
         H           -2.332522678565     0.978117490121    -0.335897625484     1.007825032230
         H            2.408885321435     0.936716490121    -0.988626625484     1.007825032230
         H           -1.986456678565    -1.674839509879    -1.274318625484     1.007825032230

  Basis Set: AUG-CC-PVTZ
    Blend: AUG-CC-PVTZ
  Basis Set: (AUG-CC-PVTZ AUX)
    Blend: AUG-CC-PVTZ-JKFIT
	 Reference Energy          =    -569.6582268463350829 [Eh]
	 Singles Energy            =      -0.0000000000000000 [Eh]
	 Same-Spin Energy          =      -0.5559401280461840 [Eh]
	 Opposite-Spin Energy      =      -1.7053034893238987 [Eh]
	 Correlation Energy        =      -2.2612436173700825 [Eh]
	 Total Energy              =    -571.9194704637051245 [Eh]

	 ================> DF-SCS-MP2 Energies <==================
	-----------------------------------------------------------
	 SCS Same-Spin Scale       =       0.3333333333333333 [-]
	 SCS Opposite-Spin Scale   =       1.2000000000000000 [-]
	 SCS Same-Spin Energy      =      -0.1853133760153947 [Eh]
	 SCS Opposite-Spin Energy  =      -2.0463641871886784 [Eh]
	 SCS Correlation Energy    =      -2.2316775632040731 [Eh]
	 SCS Total Energy          =    -571.8899044095392128 [Eh]
	-----------------------------------------------------------

  Dipole Moment: [D]
     X:    -2.3973      Y:    -1.0417      Z:    -0.3996     Total:     2.6442

*** Psi4 exiting successfully. Buy a developer a beer!
