                               Psi4 1.3.2 release

  ==> Input File <==

--------------------------------------------------------------------------
#psi4
#
memory 32 gb

molecule  {
0 1
  O       -0.0774026    -1.7555310     0.4101454
  O        0.3584290     1.3939840    -1.0246780
  O       -1.9551560     1.3713260     0.4690830
  O        2.7148150     0.4505790    -0.2056670
  O       -1.6716310    -0.8002260    -0.9984850
  C        0.4315910     1.0135520     0.3497470
  C       -0.9093320     0.4742750     0.8400700
  C        1.5345100    -0.0288940     0.4204030
  C       -1.2151430    -0.9364420     0.3397180
  C        1.0549700    -1.3167000    -0.2286510
  H        0.7042560     1.8874530     0.9605880
  H       -0.8818830     0.4322700     1.9353370
  H        1.7837760    -0.2316310     1.4680400
  H       -2.0288345    -1.3534336     0.9475890
  H        0.8436020    -1.1475360    -1.2899680
  H        1.8059140    -2.1013880    -0.1265130
  H       -0.3930520     2.0121160    -1.0836700
  H       -2.3417080     0.9766970    -0.3400740
  H        2.3997000     0.9352960    -0.9928030
  H       -1.9956420    -1.6762600    -1.2784950
units angstrom
no_reorient  #important for SAPT in psi4, default
symmetry c1  #important for SAPT in psi4, default
}

set PROPERTIES_ORIGIN ["COM"]
properties('MP2/aug-cc-pvtz', properties = ['dipole'])
--------------------------------------------------------------------------

    Molecular point group: c1
  Charge       = 0
  Multiplicity = 1
  Basis Set: AUG-CC-PVTZ
    Blend: AUG-CC-PVTZ
  Basis Set: (AUG-CC-PVTZ AUX)
    Blend: AUG-CC-PVTZ-JKFIT

    Orbital Energies [Eh]
    ---------------------

    Doubly Occupied:

       1A    -20.591299     2A    -20.577999     3A    -20.574791
       4A    -20.570119     5A    -20.555023     6A    -11.357881
       7A    -11.298130     8A    -11.290006     9A    -11.281760
      10A    -11.272569    11A     -1.448262    12A     -1.391965
      13A     -1.379512    14A     -1.358100    15A     -1.345798
      16A     -1.057386    17A     -1.028524    18A     -0.896313
      19A     -0.873842    20A     -0.797808    21A     -0.752220
      22A     -0.730471    23A     -0.721180    24A     -0.695981
      25A     -0.669458    26A     -0.648607    27A     -0.627523
      28A     -0.615040    29A     -0.604797    30A     -0.586886
      31A     -0.570922    32A     -0.555067    33A     -0.542371
      34A     -0.516483    35A     -0.506754    36A     -0.489364
      37A     -0.485753    38A     -0.464776    39A     -0.439648
      40A     -0.410040

  @DF-RHF Final Energy:  -569.67308656978287

   => Energetics <=

    Nuclear Repulsion Energy =            635.8729277551900623
    One-Electron Energy =               -2045.9311675129547439
    Two-Electron Energy =                 840.3851531879817003
    Total Energy =                       -569.6730865697828676
  Basis Set: (AUG-CC-PVTZ AUX)
    Blend: AUG-CC-PVTZ-RI
    Molecular point group: c1

    Geometry (in Angstrom), charge = 0, multiplicity = 1:

       Center              X                  Y                   Z               Mass
    ------------   -----------------  -----------------  -----------------  -----------------
         O           -0.081151591107    -1.760594188028     0.415008501518    15.994914619570
         O            0.354680008893     1.388920811972    -1.019814898482    15.994914619570
         O           -1.958904991107     1.366262811972     0.473946101518    15.994914619570
         O            2.711066008893     0.445515811972    -0.200803898482    15.994914619570
         O           -1.675379991107    -0.805289188028    -0.993621898482    15.994914619570
         C            0.427842008893     1.008488811972     0.354610101518    12.000000000000
         C           -0.913080991107     0.469211811972     0.844933101518    12.000000000000
         C            1.530761008893    -0.033957188028     0.425266101518    12.000000000000
         C           -1.218891991107    -0.941505188028     0.344581101518    12.000000000000
         C            1.051221008893    -1.321763188028    -0.223787898482    12.000000000000
         H            0.700507008893     1.882389811972     0.965451101518     1.007825032230
         H           -0.885631991107     0.427206811972     1.940200101518     1.007825032230
         H            1.780027008893    -0.236694188028     1.472903101518     1.007825032230
         H           -2.032583491107    -1.358496788028     0.952452101518     1.007825032230
         H            0.839853008893    -1.152599188028    -1.285104898482     1.007825032230
         H            1.802165008893    -2.106451188028    -0.121649898482     1.007825032230
         H           -0.396800991107     2.007052811972    -1.078806898482     1.007825032230
         H           -2.345456991107     0.971633811972    -0.335210898482     1.007825032230
         H            2.395951008893     0.930232811972    -0.987939898482     1.007825032230
         H           -1.999390991107    -1.681323188028    -1.273631898482     1.007825032230

  Basis Set: AUG-CC-PVTZ
    Blend: AUG-CC-PVTZ
  Basis Set: (AUG-CC-PVTZ AUX)
    Blend: AUG-CC-PVTZ-JKFIT
	 Reference Energy          =    -569.6730865697828676 [Eh]
	 Singles Energy            =      -0.0000000000000000 [Eh]
	 Same-Spin Energy          =      -0.5542674332010947 [Eh]
	 Opposite-Spin Energy      =      -1.7020277465483340 [Eh]
	 Correlation Energy        =      -2.2562951797494288 [Eh]
	 Total Energy              =    -571.9293817495322401 [Eh]

	 ================> DF-SCS-MP2 Energies <==================
	-----------------------------------------------------------
	 SCS Same-Spin Scale       =       0.3333333333333333 [-]
	 SCS Opposite-Spin Scale   =       1.2000000000000000 [-]
	 SCS Same-Spin Energy      =      -0.1847558110670316 [Eh]
	 SCS Opposite-Spin Energy  =      -2.0424332958580007 [Eh]
	 SCS Correlation Energy    =      -2.2271891069250325 [Eh]
	 SCS Total Energy          =    -571.9002756767079063 [Eh]
	-----------------------------------------------------------

  Dipole Moment: [D]
     X:    -2.3885      Y:    -1.1090      Z:    -0.1719     Total:     2.6390

*** Psi4 exiting successfully. Buy a developer a beer!
