                               Psi4 1.4a3.dev225

  ==> Input File <==

--------------------------------------------------------------------------
#psi4
#
memory 32 gb

molecule  {
0 1
  O       -0.2343850     1.7978400    -0.4145210
  O        0.4791390    -1.3900560     0.9851260
  O       -1.8902550    -1.4798720    -0.4079610
  O        2.7489250    -0.2990660     0.0843650
  O       -1.6766260     0.6849030     1.0797040
  C        0.4758930    -0.9871420    -0.3839460
  C       -0.9153110    -0.5160320    -0.8112700
  C        1.5148540     0.1205520    -0.4811210
  C       -1.2794180     0.8705190    -0.2725550
  C        0.9914930     1.3693070     0.2124490
  H        0.7732420    -1.8350180    -1.0199460
  H       -0.9367810    -0.4539690    -1.9062570
  H        1.7061480     0.3550680    -1.5342930
  H       -2.1075740     1.2945610    -0.8542440
  H        0.8333730     1.1741050     1.2776920
  H        1.6908660     2.1982840     0.0933200
  H       -0.2684360    -2.0097880     1.0741120
  H       -2.2989342    -1.0971542     0.4176999
  H        2.5001980    -0.8049050     0.8819700
  H       -2.0397460     1.5332780     1.3914430
units angstrom
no_reorient  #important for SAPT in psi4, default
symmetry c1  #important for SAPT in psi4, default
}

set PROPERTIES_ORIGIN ["COM"]
properties('MP2/aug-cc-pvtz', properties = ['dipole'])
--------------------------------------------------------------------------

    Molecular point group: c1
  Charge       = 0
  Multiplicity = 1
  Basis Set: AUG-CC-PVTZ
    Blend: AUG-CC-PVTZ
  Basis Set: (AUG-CC-PVTZ AUX)
    Blend: AUG-CC-PVTZ-JKFIT

    Orbital Energies [Eh]
    ---------------------

    Doubly Occupied:

       1A    -20.592461     2A    -20.581195     3A    -20.576259
       4A    -20.569873     5A    -20.558567     6A    -11.354861
       7A    -11.299357     8A    -11.291020     9A    -11.286152
      10A    -11.278830    11A     -1.437984    12A     -1.389970
      13A     -1.373589    14A     -1.353302    15A     -1.346606
      16A     -1.057339    17A     -1.022330    18A     -0.898461
      19A     -0.869253    20A     -0.797469    21A     -0.752120
      22A     -0.726793    23A     -0.712037    24A     -0.693924
      25A     -0.667720    26A     -0.646500    27A     -0.620846
      28A     -0.614369    29A     -0.601115    30A     -0.584216
      31A     -0.571582    32A     -0.556330    33A     -0.542588
      34A     -0.515439    35A     -0.503125    36A     -0.490363
      37A     -0.487120    38A     -0.471094    39A     -0.440673
      40A     -0.415856

  @DF-RHF Final Energy:  -569.67285845383185

   => Energetics <=

    Nuclear Repulsion Energy =            633.0445145920191408
    One-Electron Energy =               -2040.3373670223513727
    Two-Electron Energy =                 837.6199939765003819
    Total Energy =                       -569.6728584538318501
  Basis Set: (AUG-CC-PVTZ AUX)
    Blend: AUG-CC-PVTZ-RI
    Molecular point group: c1

    Geometry (in Angstrom), charge = 0, multiplicity = 1:

       Center              X                  Y                   Z               Mass
    ------------   -----------------  -----------------  -----------------  -----------------
         O           -0.235271457359     1.800058170042    -0.415876824319    15.994914619570
         O            0.478252542641    -1.387837829958     0.983770175681    15.994914619570
         O           -1.891141457359    -1.477653829958    -0.409316824319    15.994914619570
         O            2.748038542641    -0.296847829958     0.083009175681    15.994914619570
         O           -1.677512457359     0.687121170042     1.078348175681    15.994914619570
         C            0.475006542641    -0.984923829958    -0.385301824319    12.000000000000
         C           -0.916197457359    -0.513813829958    -0.812625824319    12.000000000000
         C            1.513967542641     0.122770170042    -0.482476824319    12.000000000000
         C           -1.280304457359     0.872737170042    -0.273910824319    12.000000000000
         C            0.990606542641     1.371525170042     0.211093175681    12.000000000000
         H            0.772355542641    -1.832799829958    -1.021301824319     1.007825032230
         H           -0.937667457359    -0.451750829958    -1.907612824319     1.007825032230
         H            1.705261542641     0.357286170042    -1.535648824319     1.007825032230
         H           -2.108460457359     1.296779170042    -0.855599824319     1.007825032230
         H            0.832486542641     1.176323170042     1.276336175681     1.007825032230
         H            1.689979542641     2.200502170042     0.091964175681     1.007825032230
         H           -0.269322457359    -2.007569829958     1.072756175681     1.007825032230
         H           -2.299820657359    -1.094936029958     0.416344075681     1.007825032230
         H            2.499311542641    -0.802686829958     0.880614175681     1.007825032230
         H           -2.040632457359     1.535496170042     1.390087175681     1.007825032230

  Basis Set: AUG-CC-PVTZ
    Blend: AUG-CC-PVTZ
  Basis Set: (AUG-CC-PVTZ AUX)
    Blend: AUG-CC-PVTZ-JKFIT
	 Reference Energy          =    -569.6728584538318501 [Eh]
	 Singles Energy            =      -0.0000000000000000 [Eh]
	 Same-Spin Energy          =      -0.5548120458584112 [Eh]
	 Opposite-Spin Energy      =      -1.7046148643747692 [Eh]
	 Correlation Energy        =      -2.2594269102331803 [Eh]
	 Total Energy              =    -571.9322853640650237 [Eh]

	 ================> DF-SCS-MP2 Energies <==================
	-----------------------------------------------------------
	 SCS Same-Spin Scale       =       0.3333333333333333 [-]
	 SCS Opposite-Spin Scale   =       1.2000000000000000 [-]
	 SCS Same-Spin Energy      =      -0.1849373486194704 [Eh]
	 SCS Opposite-Spin Energy  =      -2.0455378372497228 [Eh]
	 SCS Correlation Energy    =      -2.2304751858691931 [Eh]
	 SCS Total Energy          =    -571.9033336397010316 [Eh]
	-----------------------------------------------------------

  Dipole Moment: [D]
     X:    -2.3072      Y:     0.9791      Z:     0.4189     Total:     2.5411

*** Psi4 exiting successfully. Buy a developer a beer!
