                               Psi4 1.3.2 release

  ==> Input File <==

--------------------------------------------------------------------------
#psi4
#
memory 32 gb

molecule  {
0 1
  O       -0.1147700    -1.8002930     0.4548730
  O        0.3584290     1.3939840    -1.0246780
  O       -1.9551560     1.3713260     0.4690830
  O        2.7148150     0.4505790    -0.2056670
  O       -1.6716310    -0.8002260    -0.9984850
  C        0.4393958     0.9677765     0.3236396
  C       -0.9093320     0.4742750     0.8400700
  C        1.5345100    -0.0288940     0.4204030
  C       -1.1685348    -0.9363483     0.3138089
  C        1.0549700    -1.3167000    -0.2286510
  H        0.7042560     1.8874530     0.9605880
  H       -0.8818830     0.4322700     1.9353370
  H        1.7837760    -0.2316310     1.4680400
  H       -1.9939520    -1.3968640     0.9617720
  H        0.8436020    -1.1475360    -1.2899680
  H        1.8059140    -2.1013880    -0.1265130
  H       -0.3930520     2.0121160    -1.0836700
  H       -2.3417080     0.9766970    -0.3400740
  H        2.3997000     0.9352960    -0.9928030
  H       -1.9956420    -1.6762600    -1.2784950
units angstrom
no_reorient  #important for SAPT in psi4, default
symmetry c1  #important for SAPT in psi4, default
}

set PROPERTIES_ORIGIN ["COM"]
properties('MP2/aug-cc-pvtz', properties = ['dipole'])
--------------------------------------------------------------------------

    Molecular point group: c1
  Charge       = 0
  Multiplicity = 1
  Basis Set: AUG-CC-PVTZ
    Blend: AUG-CC-PVTZ
  Basis Set: (AUG-CC-PVTZ AUX)
    Blend: AUG-CC-PVTZ-JKFIT

    Orbital Energies [Eh]
    ---------------------

    Doubly Occupied:

       1A    -20.591185     2A    -20.586764     3A    -20.576188
       4A    -20.572230     5A    -20.560369     6A    -11.353707
       7A    -11.298289     8A    -11.292464     9A    -11.286427
      10A    -11.280418    11A     -1.448709    12A     -1.395940
      13A     -1.380319    14A     -1.359111    15A     -1.350429
      16A     -1.066306    17A     -1.024595    18A     -0.897339
      19A     -0.870951    20A     -0.803148    21A     -0.751813
      22A     -0.726595    23A     -0.717196    24A     -0.697887
      25A     -0.674821    26A     -0.646585    27A     -0.623613
      28A     -0.618233    29A     -0.603532    30A     -0.586868
      31A     -0.570197    32A     -0.557969    33A     -0.543043
      34A     -0.520038    35A     -0.501574    36A     -0.491294
      37A     -0.487176    38A     -0.476291    39A     -0.441361
      40A     -0.408381

  @DF-RHF Final Energy:  -569.66735279635407

   => Energetics <=

    Nuclear Repulsion Energy =            635.6481010415074024
    One-Electron Energy =               -2045.3521981547787618
    Two-Electron Energy =                 840.0367443169174066
    Total Energy =                       -569.6673527963540664
  Basis Set: (AUG-CC-PVTZ AUX)
    Blend: AUG-CC-PVTZ-RI
    Molecular point group: c1

    Geometry (in Angstrom), charge = 0, multiplicity = 1:

       Center              X                  Y                   Z               Mass
    ------------   -----------------  -----------------  -----------------  -----------------
         O           -0.119121599456    -1.796639816136     0.459032948301    15.994914619570
         O            0.354077400544     1.397637183864    -1.020518051699    15.994914619570
         O           -1.959507599456     1.374979183864     0.473242948301    15.994914619570
         O            2.710463400544     0.454232183864    -0.201507051699    15.994914619570
         O           -1.675982599456    -0.796572816136    -0.994325051699    15.994914619570
         C            0.435044200544     0.971429683864     0.327799548301    12.000000000000
         C           -0.913683599456     0.477928183864     0.844229948301    12.000000000000
         C            1.530158400544    -0.025240816136     0.424562948301    12.000000000000
         C           -1.172886399456    -0.932695116136     0.317968848301    12.000000000000
         C            1.050618400544    -1.313046816136    -0.224491051699    12.000000000000
         H            0.699904400544     1.891106183864     0.964747948301     1.007825032230
         H           -0.886234599456     0.435923183864     1.939496948301     1.007825032230
         H            1.779424400544    -0.227977816136     1.472199948301     1.007825032230
         H           -1.998303599456    -1.393210816136     0.965931948301     1.007825032230
         H            0.839250400544    -1.143882816136    -1.285808051699     1.007825032230
         H            1.801562400544    -2.097734816136    -0.122353051699     1.007825032230
         H           -0.397403599456     2.015769183864    -1.079510051699     1.007825032230
         H           -2.346059599456     0.980350183864    -0.335914051699     1.007825032230
         H            2.395348400544     0.938949183864    -0.988643051699     1.007825032230
         H           -1.999993599456    -1.672606816136    -1.274335051699     1.007825032230

  Basis Set: AUG-CC-PVTZ
    Blend: AUG-CC-PVTZ
  Basis Set: (AUG-CC-PVTZ AUX)
    Blend: AUG-CC-PVTZ-JKFIT
	 Reference Energy          =    -569.6673527963540664 [Eh]
	 Singles Energy            =      -0.0000000000000000 [Eh]
	 Same-Spin Energy          =      -0.5552712866150145 [Eh]
	 Opposite-Spin Energy      =      -1.7041021856224945 [Eh]
	 Correlation Energy        =      -2.2593734722375087 [Eh]
	 Total Energy              =    -571.9267262685915512 [Eh]

	 ================> DF-SCS-MP2 Energies <==================
	-----------------------------------------------------------
	 SCS Same-Spin Scale       =       0.3333333333333333 [-]
	 SCS Opposite-Spin Scale   =       1.2000000000000000 [-]
	 SCS Same-Spin Energy      =      -0.1850904288716715 [Eh]
	 SCS Opposite-Spin Energy  =      -2.0449226227469932 [Eh]
	 SCS Correlation Energy    =      -2.2300130516186645 [Eh]
	 SCS Total Energy          =    -571.8973658479727646 [Eh]
	-----------------------------------------------------------

  Dipole Moment: [D]
     X:    -2.0250      Y:    -1.0817      Z:    -0.4208     Total:     2.3340

*** Psi4 exiting successfully. Buy a developer a beer!
