                               Psi4 1.3.2 release

  ==> Input File <==

--------------------------------------------------------------------------
#psi4
#
memory 32 gb

molecule  {
0 1
  O       -0.1147700    -1.8002930     0.4548730
  O        0.3584290     1.3939840    -1.0246780
  O       -1.9551560     1.3713260     0.4690830
  O        2.7148150     0.4505790    -0.2056670
  O       -1.6716310    -0.8002260    -0.9984850
  C        0.4315910     1.0135520     0.3497470
  C       -0.9270280     0.4322753     0.7808785
  C        1.5345100    -0.0288940     0.4204030
  C       -1.2151430    -0.9364420     0.3397180
  C        1.0549700    -1.3167000    -0.2286510
  H        0.7042560     1.8874530     0.9605880
  H       -0.8818830     0.4322700     1.9353370
  H        1.7837760    -0.2316310     1.4680400
  H       -1.9939520    -1.3968640     0.9617720
  H        0.8436020    -1.1475360    -1.2899680
  H        1.8059140    -2.1013880    -0.1265130
  H       -0.3930520     2.0121160    -1.0836700
  H       -2.3075960     0.9385913    -0.3361600
  H        2.3997000     0.9352960    -0.9928030
  H       -1.9956420    -1.6762600    -1.2784950
units angstrom
no_reorient  #important for SAPT in psi4, default
symmetry c1  #important for SAPT in psi4, default
}

set PROPERTIES_ORIGIN ["COM"]
properties('MP2/aug-cc-pvtz', properties = ['dipole'])
--------------------------------------------------------------------------

    Molecular point group: c1
  Charge       = 0
  Multiplicity = 1
  Basis Set: AUG-CC-PVTZ
    Blend: AUG-CC-PVTZ
  Basis Set: (AUG-CC-PVTZ AUX)
    Blend: AUG-CC-PVTZ-JKFIT

    Orbital Energies [Eh]
    ---------------------

    Doubly Occupied:

       1A    -20.593415     2A    -20.583210     3A    -20.577547
       4A    -20.570121     5A    -20.558506     6A    -11.354056
       7A    -11.299553     8A    -11.292638     9A    -11.285592
      10A    -11.279262    11A     -1.443625    12A     -1.392821
      13A     -1.378950    14A     -1.356364    15A     -1.348296
      16A     -1.059222    17A     -1.029684    18A     -0.905938
      19A     -0.865558    20A     -0.796171    21A     -0.757320
      22A     -0.728512    23A     -0.716623    24A     -0.692018
      25A     -0.669807    26A     -0.645382    27A     -0.623109
      28A     -0.617713    29A     -0.600137    30A     -0.585678
      31A     -0.569930    32A     -0.560400    33A     -0.540875
      34A     -0.513125    35A     -0.505239    36A     -0.496219
      37A     -0.487383    38A     -0.473518    39A     -0.435537
      40A     -0.421015

  @DF-RHF Final Energy:  -569.66489291497646

   => Energetics <=

    Nuclear Repulsion Energy =            635.0553114118456506
    One-Electron Energy =               -2044.2202727608362238
    Two-Electron Energy =                 839.5000684340141106
    Total Energy =                       -569.6648929149764626
  Basis Set: (AUG-CC-PVTZ AUX)
    Blend: AUG-CC-PVTZ-RI
    Molecular point group: c1

    Geometry (in Angstrom), charge = 0, multiplicity = 1:

       Center              X                  Y                   Z               Mass
    ------------   -----------------  -----------------  -----------------  -----------------
         O           -0.113584022397    -1.796678344712     0.459580457978    15.994914619570
         O            0.359614977603     1.397598655288    -1.019970542022    15.994914619570
         O           -1.953970022397     1.374940655288     0.473790457978    15.994914619570
         O            2.716000977603     0.454193655288    -0.200959542022    15.994914619570
         O           -1.670445022397    -0.796611344712    -0.993777542022    15.994914619570
         C            0.432776977603     1.017166655288     0.354454457978    12.000000000000
         C           -0.925842022397     0.435889955288     0.785585957978    12.000000000000
         C            1.535695977603    -0.025279344712     0.425110457978    12.000000000000
         C           -1.213957022397    -0.932827344712     0.344425457978    12.000000000000
         C            1.056155977603    -1.313085344712    -0.223943542022    12.000000000000
         H            0.705441977603     1.891067655288     0.965295457978     1.007825032230
         H           -0.880697022397     0.435884655288     1.940044457978     1.007825032230
         H            1.784961977603    -0.228016344712     1.472747457978     1.007825032230
         H           -1.992766022397    -1.393249344712     0.966479457978     1.007825032230
         H            0.844787977603    -1.143921344712    -1.285260542022     1.007825032230
         H            1.807099977603    -2.097773344712    -0.121805542022     1.007825032230
         H           -0.391866022397     2.015730655288    -1.078962542022     1.007825032230
         H           -2.306410022397     0.942205955288    -0.331452542022     1.007825032230
         H            2.400885977603     0.938910655288    -0.988095542022     1.007825032230
         H           -1.994456022397    -1.672645344712    -1.273787542022     1.007825032230

  Basis Set: AUG-CC-PVTZ
    Blend: AUG-CC-PVTZ
  Basis Set: (AUG-CC-PVTZ AUX)
    Blend: AUG-CC-PVTZ-JKFIT
	 Reference Energy          =    -569.6648929149764626 [Eh]
	 Singles Energy            =      -0.0000000000000000 [Eh]
	 Same-Spin Energy          =      -0.5556436794785005 [Eh]
	 Opposite-Spin Energy      =      -1.7056175037609140 [Eh]
	 Correlation Energy        =      -2.2612611832394145 [Eh]
	 Total Energy              =    -571.9261540982158749 [Eh]

	 ================> DF-SCS-MP2 Energies <==================
	-----------------------------------------------------------
	 SCS Same-Spin Scale       =       0.3333333333333333 [-]
	 SCS Opposite-Spin Scale   =       1.2000000000000000 [-]
	 SCS Same-Spin Energy      =      -0.1852145598261668 [Eh]
	 SCS Opposite-Spin Energy  =      -2.0467410045130969 [Eh]
	 SCS Correlation Energy    =      -2.2319555643392639 [Eh]
	 SCS Total Energy          =    -571.8968484793157359 [Eh]
	-----------------------------------------------------------

  Dipole Moment: [D]
     X:    -2.1397      Y:    -1.0669      Z:    -0.3543     Total:     2.4170

*** Psi4 exiting successfully. Buy a developer a beer!
