                               Psi4 1.3.2 release

  ==> Input File <==

--------------------------------------------------------------------------
#psi4
#
memory 32 gb

molecule  {
0 1
  O       -0.1147700    -1.8002930     0.4548730
  O        0.3584290     1.3939840    -1.0246780
  O       -1.9303062     1.4081963     0.4915267
  O        2.7148150     0.4505790    -0.2056670
  O       -1.6716310    -0.8002260    -0.9984850
  C        0.4315910     1.0135520     0.3497470
  C       -0.9093320     0.4742750     0.8400700
  C        1.5345100    -0.0288940     0.4204030
  C       -1.1692926    -0.9530312     0.3613087
  C        1.0549700    -1.3167000    -0.2286510
  H        0.7042560     1.8874530     0.9605880
  H       -0.8818830     0.4322700     1.9353370
  H        1.7837760    -0.2316310     1.4680400
  H       -1.9939520    -1.3968640     0.9617720
  H        0.8436020    -1.1475360    -1.2899680
  H        1.8059140    -2.1013880    -0.1265130
  H       -0.3930520     2.0121160    -1.0836700
  H       -2.3417080     0.9766970    -0.3400740
  H        2.3997000     0.9352960    -0.9928030
  H       -1.9956420    -1.6762600    -1.2784950
units angstrom
no_reorient  #important for SAPT in psi4, default
symmetry c1  #important for SAPT in psi4, default
}

set PROPERTIES_ORIGIN ["COM"]
properties('MP2/aug-cc-pvtz', properties = ['dipole'])
--------------------------------------------------------------------------

    Molecular point group: c1
  Charge       = 0
  Multiplicity = 1
  Basis Set: AUG-CC-PVTZ
    Blend: AUG-CC-PVTZ
  Basis Set: (AUG-CC-PVTZ AUX)
    Blend: AUG-CC-PVTZ-JKFIT

    Orbital Energies [Eh]
    ---------------------

    Doubly Occupied:

       1A    -20.589316     2A    -20.584519     3A    -20.578960
       4A    -20.570414     5A    -20.559492     6A    -11.355844
       7A    -11.296972     8A    -11.290017     9A    -11.287287
      10A    -11.282403    11A     -1.445853    12A     -1.391722
      13A     -1.372834    14A     -1.350600    15A     -1.345280
      16A     -1.060109    17A     -1.026610    18A     -0.898741
      19A     -0.870496    20A     -0.796158    21A     -0.747794
      22A     -0.727080    23A     -0.717851    24A     -0.689524
      25A     -0.669879    26A     -0.643419    27A     -0.622308
      28A     -0.619329    29A     -0.601269    30A     -0.585025
      31A     -0.566476    32A     -0.557875    33A     -0.542878
      34A     -0.515357    35A     -0.504250    36A     -0.491976
      37A     -0.485989    38A     -0.473238    39A     -0.439180
      40A     -0.417453

  @DF-RHF Final Energy:  -569.66662221300578

   => Energetics <=

    Nuclear Repulsion Energy =            633.7772268106759839
    One-Electron Energy =               -2041.7441486185998656
    Two-Electron Energy =                 838.3002995949181013
    Total Energy =                       -569.6666222130057804
  Basis Set: (AUG-CC-PVTZ AUX)
    Blend: AUG-CC-PVTZ-RI
    Molecular point group: c1

    Geometry (in Angstrom), charge = 0, multiplicity = 1:

       Center              X                  Y                   Z               Mass
    ------------   -----------------  -----------------  -----------------  -----------------
         O           -0.121085702647    -1.802896602773     0.450754053996    15.994914619570
         O            0.352113297353     1.391380397227    -1.028796946004    15.994914619570
         O           -1.936621902647     1.405592697227     0.487407753996    15.994914619570
         O            2.708499297353     0.447975397227    -0.209785946004    15.994914619570
         O           -1.677946702647    -0.802829602773    -1.002603946004    15.994914619570
         C            0.425275297353     1.010948397227     0.345628053996    12.000000000000
         C           -0.915647702647     0.471671397227     0.835951053996    12.000000000000
         C            1.528194297353    -0.031497602773     0.416284053996    12.000000000000
         C           -1.175608302647    -0.955634802773     0.357189753996    12.000000000000
         C            1.048654297353    -1.319303602773    -0.232769946004    12.000000000000
         H            0.697940297353     1.884849397227     0.956469053996     1.007825032230
         H           -0.888198702647     0.429666397227     1.931218053996     1.007825032230
         H            1.777460297353    -0.234234602773     1.463921053996     1.007825032230
         H           -2.000267702647    -1.399467602773     0.957653053996     1.007825032230
         H            0.837286297353    -1.150139602773    -1.294086946004     1.007825032230
         H            1.799598297353    -2.103991602773    -0.130631946004     1.007825032230
         H           -0.399367702647     2.009512397227    -1.087788946004     1.007825032230
         H           -2.348023702647     0.974093397227    -0.344192946004     1.007825032230
         H            2.393384297353     0.932692397227    -0.996921946004     1.007825032230
         H           -2.001957702647    -1.678863602773    -1.282613946004     1.007825032230

  Basis Set: AUG-CC-PVTZ
    Blend: AUG-CC-PVTZ
  Basis Set: (AUG-CC-PVTZ AUX)
    Blend: AUG-CC-PVTZ-JKFIT
	 Reference Energy          =    -569.6666222130057804 [Eh]
	 Singles Energy            =      -0.0000000000000000 [Eh]
	 Same-Spin Energy          =      -0.5555569068582276 [Eh]
	 Opposite-Spin Energy      =      -1.7057345259896681 [Eh]
	 Correlation Energy        =      -2.2612914328478957 [Eh]
	 Total Energy              =    -571.9279136458536641 [Eh]

	 ================> DF-SCS-MP2 Energies <==================
	-----------------------------------------------------------
	 SCS Same-Spin Scale       =       0.3333333333333333 [-]
	 SCS Opposite-Spin Scale   =       1.2000000000000000 [-]
	 SCS Same-Spin Energy      =      -0.1851856356194092 [Eh]
	 SCS Opposite-Spin Energy  =      -2.0468814311876016 [Eh]
	 SCS Correlation Energy    =      -2.2320670668070108 [Eh]
	 SCS Total Energy          =    -571.8986892798127428 [Eh]
	-----------------------------------------------------------

  Dipole Moment: [D]
     X:    -1.9743      Y:    -1.1471      Z:    -0.2117     Total:     2.2932

*** Psi4 exiting successfully. Buy a developer a beer!
