                               Psi4 1.3.2 release

  ==> Input File <==

--------------------------------------------------------------------------
#psi4
#
memory 32 gb

molecule  {
0 1
  O       -0.1081563    -1.7911471     0.4596330
  O        0.3584290     1.3939840    -1.0246780
  O       -1.9551560     1.3713260     0.4690830
  O        2.7148150     0.4505790    -0.2056670
  O       -1.6716310    -0.8002260    -0.9984850
  C        0.4315910     1.0135520     0.3497470
  C       -0.8969107     0.4704609     0.8430544
  C        1.5345100    -0.0288940     0.4204030
  C       -1.2151430    -0.9364420     0.3397180
  C        1.0549700    -1.3167000    -0.2286510
  H        0.7042560     1.8874530     0.9605880
  H       -0.8818830     0.4322700     1.9353370
  H        1.7837760    -0.2316310     1.4680400
  H       -1.9939520    -1.3968640     0.9617720
  H        0.8436020    -1.1475360    -1.2899680
  H        1.8059140    -2.1013880    -0.1265130
  H       -0.3930520     2.0121160    -1.0836700
  H       -2.3417080     0.9766970    -0.3400740
  H        2.3997000     0.9352960    -0.9928030
  H       -1.9956420    -1.6762600    -1.2784950
units angstrom
no_reorient  #important for SAPT in psi4, default
symmetry c1  #important for SAPT in psi4, default
}

set PROPERTIES_ORIGIN ["COM"]
properties('MP2/aug-cc-pvtz', properties = ['dipole'])
--------------------------------------------------------------------------

    Molecular point group: c1
  Charge       = 0
  Multiplicity = 1
  Basis Set: AUG-CC-PVTZ
    Blend: AUG-CC-PVTZ
  Basis Set: (AUG-CC-PVTZ AUX)
    Blend: AUG-CC-PVTZ-JKFIT

    Orbital Energies [Eh]
    ---------------------

    Doubly Occupied:

       1A    -20.592270     2A    -20.580337     3A    -20.573020
       4A    -20.571413     5A    -20.557870     6A    -11.354576
       7A    -11.298164     8A    -11.291126     9A    -11.285295
      10A    -11.277813    11A     -1.439280    12A     -1.390761
      13A     -1.374051    14A     -1.353885    15A     -1.346870
      16A     -1.060494    17A     -1.023979    18A     -0.898596
      19A     -0.870365    20A     -0.798381    21A     -0.752355
      22A     -0.728621    23A     -0.712260    24A     -0.694608
      25A     -0.669784    26A     -0.646156    27A     -0.621783
      28A     -0.614077    29A     -0.602408    30A     -0.583736
      31A     -0.571621    32A     -0.555665    33A     -0.542212
      34A     -0.515929    35A     -0.503287    36A     -0.490515
      37A     -0.488048    38A     -0.471703    39A     -0.442316
      40A     -0.415329

  @DF-RHF Final Energy:  -569.67435367940288

   => Energetics <=

    Nuclear Repulsion Energy =            634.0926361721925559
    One-Electron Energy =               -2042.4120614452901918
    Two-Electron Energy =                 838.6450715936948654
    Total Energy =                       -569.6743536794028842
  Basis Set: (AUG-CC-PVTZ AUX)
    Blend: AUG-CC-PVTZ-RI
    Molecular point group: c1

    Geometry (in Angstrom), charge = 0, multiplicity = 1:

       Center              X                  Y                   Z               Mass
    ------------   -----------------  -----------------  -----------------  -----------------
         O           -0.109854734896    -1.791817062311     0.458887031992    15.994914619570
         O            0.356730565104     1.393314037689    -1.025423968008    15.994914619570
         O           -1.956854434896     1.370656037689     0.468337031992    15.994914619570
         O            2.713116565104     0.449909037689    -0.206412968008    15.994914619570
         O           -1.673329434896    -0.800895962311    -0.999230968008    15.994914619570
         C            0.429892565104     1.012882037689     0.349001031992    12.000000000000
         C           -0.898609134896     0.469790937689     0.842308431992    12.000000000000
         C            1.532811565104    -0.029563962311     0.419657031992    12.000000000000
         C           -1.216841434896    -0.937111962311     0.338972031992    12.000000000000
         C            1.053271565104    -1.317369962311    -0.229396968008    12.000000000000
         H            0.702557565104     1.886783037689     0.959842031992     1.007825032230
         H           -0.883581434896     0.431600037689     1.934591031992     1.007825032230
         H            1.782077565104    -0.232300962311     1.467294031992     1.007825032230
         H           -1.995650434896    -1.397533962311     0.961026031992     1.007825032230
         H            0.841903565104    -1.148205962311    -1.290713968008     1.007825032230
         H            1.804215565104    -2.102057962311    -0.127258968008     1.007825032230
         H           -0.394750434896     2.011446037689    -1.084415968008     1.007825032230
         H           -2.343406434896     0.976027037689    -0.340819968008     1.007825032230
         H            2.398001565104     0.934626037689    -0.993548968008     1.007825032230
         H           -1.997340434896    -1.676929962311    -1.279240968008     1.007825032230

  Basis Set: AUG-CC-PVTZ
    Blend: AUG-CC-PVTZ
  Basis Set: (AUG-CC-PVTZ AUX)
    Blend: AUG-CC-PVTZ-JKFIT
	 Reference Energy          =    -569.6743536794028842 [Eh]
	 Singles Energy            =      -0.0000000000000000 [Eh]
	 Same-Spin Energy          =      -0.5546473069642164 [Eh]
	 Opposite-Spin Energy      =      -1.7039536298051885 [Eh]
	 Correlation Energy        =      -2.2586009367694047 [Eh]
	 Total Energy              =    -571.9329546161723101 [Eh]

	 ================> DF-SCS-MP2 Energies <==================
	-----------------------------------------------------------
	 SCS Same-Spin Scale       =       0.3333333333333333 [-]
	 SCS Opposite-Spin Scale   =       1.2000000000000000 [-]
	 SCS Same-Spin Energy      =      -0.1848824356547388 [Eh]
	 SCS Opposite-Spin Energy  =      -2.0447443557662259 [Eh]
	 SCS Correlation Energy    =      -2.2296267914209649 [Eh]
	 SCS Total Energy          =    -571.9039804708238535 [Eh]
	-----------------------------------------------------------

  Dipole Moment: [D]
     X:    -2.1731      Y:    -1.0406      Z:    -0.2972     Total:     2.4277

*** Psi4 exiting successfully. Buy a developer a beer!
