                               Psi4 1.3.2 release

  ==> Input File <==

--------------------------------------------------------------------------
#psi4
#
memory 32 gb

molecule  {
0 1
  O       -0.1147700    -1.8002930     0.4548730
  O        0.3584290     1.3939840    -1.0246780
  O       -1.9551560     1.3713260     0.4690830
  O        2.7148150     0.4505790    -0.2056670
  O       -1.6716310    -0.8002260    -0.9984850
  C        0.4315910     1.0135520     0.3497470
  C       -0.9093320     0.4742750     0.8400700
  C        1.5345100    -0.0288940     0.4204030
  C       -1.1367510    -0.9979838     0.3479218
  C        1.0549700    -1.3167000    -0.2286510
  H        0.7042560     1.8874530     0.9605880
  H       -0.8818830     0.4322700     1.9353370
  H        1.7837760    -0.2316310     1.4680400
  H       -1.9939520    -1.3968640     0.9617720
  H        0.8436020    -1.1475360    -1.2899680
  H        1.8059140    -2.1013880    -0.1265130
  H       -0.3930520     2.0121160    -1.0836700
  H       -2.3417080     0.9766970    -0.3400740
  H        2.3997000     0.9352960    -0.9928030
  H       -1.9956420    -1.6762600    -1.2784950
units angstrom
no_reorient  #important for SAPT in psi4, default
symmetry c1  #important for SAPT in psi4, default
}

set PROPERTIES_ORIGIN ["COM"]
properties('MP2/aug-cc-pvtz', properties = ['dipole'])
--------------------------------------------------------------------------

    Molecular point group: c1
  Charge       = 0
  Multiplicity = 1
  Basis Set: AUG-CC-PVTZ
    Blend: AUG-CC-PVTZ
  Basis Set: (AUG-CC-PVTZ AUX)
    Blend: AUG-CC-PVTZ-JKFIT

    Orbital Energies [Eh]
    ---------------------

    Doubly Occupied:

       1A    -20.594493     2A    -20.580686     3A    -20.572746
       4A    -20.570247     5A    -20.561188     6A    -11.354418
       7A    -11.295697     8A    -11.289726     9A    -11.289063
      10A    -11.286566    11A     -1.463999    12A     -1.393998
      13A     -1.375623    14A     -1.351651    15A     -1.346684
      16A     -1.061515    17A     -1.026105    18A     -0.894982
      19A     -0.874300    20A     -0.797764    21A     -0.747470
      22A     -0.728242    23A     -0.723803    24A     -0.694721
      25A     -0.671397    26A     -0.644354    27A     -0.625239
      28A     -0.624518    29A     -0.602133    30A     -0.586398
      31A     -0.568508    32A     -0.557238    33A     -0.542459
      34A     -0.516275    35A     -0.506092    36A     -0.489002
      37A     -0.482847    38A     -0.474320    39A     -0.439704
      40A     -0.411321

  @DF-RHF Final Energy:  -569.66511374098650

   => Energetics <=

    Nuclear Repulsion Energy =            634.4043375504039659
    One-Electron Energy =               -2042.9039180451225093
    Two-Electron Energy =                 838.8344667537319310
    Total Energy =                       -569.6651137409864987
  Basis Set: (AUG-CC-PVTZ AUX)
    Blend: AUG-CC-PVTZ-RI
    Molecular point group: c1

    Geometry (in Angstrom), charge = 0, multiplicity = 1:

       Center              X                  Y                   Z               Mass
    ------------   -----------------  -----------------  -----------------  -----------------
         O           -0.121039244145    -1.795371462794     0.454217020260    15.994914619570
         O            0.352159755855     1.398905537206    -1.025333979740    15.994914619570
         O           -1.961425244145     1.376247537206     0.468427020260    15.994914619570
         O            2.708545755855     0.455500537206    -0.206322979740    15.994914619570
         O           -1.677900244145    -0.795304462794    -0.999140979740    15.994914619570
         C            0.425321755855     1.018473537206     0.349091020260    12.000000000000
         C           -0.915601244145     0.479196537206     0.839414020260    12.000000000000
         C            1.528240755855    -0.023972462794     0.419747020260    12.000000000000
         C           -1.143020244145    -0.993062262794     0.347265820260    12.000000000000
         C            1.048700755855    -1.311778462794    -0.229306979740    12.000000000000
         H            0.697986755855     1.892374537206     0.959932020260     1.007825032230
         H           -0.888152244145     0.437191537206     1.934681020260     1.007825032230
         H            1.777506755855    -0.226709462794     1.467384020260     1.007825032230
         H           -2.000221244145    -1.391942462794     0.961116020260     1.007825032230
         H            0.837332755855    -1.142614462794    -1.290623979740     1.007825032230
         H            1.799644755855    -2.096466462794    -0.127168979740     1.007825032230
         H           -0.399321244145     2.017037537206    -1.084325979740     1.007825032230
         H           -2.347977244145     0.981618537206    -0.340729979740     1.007825032230
         H            2.393430755855     0.940217537206    -0.993458979740     1.007825032230
         H           -2.001911244145    -1.671338462794    -1.279150979740     1.007825032230

  Basis Set: AUG-CC-PVTZ
    Blend: AUG-CC-PVTZ
  Basis Set: (AUG-CC-PVTZ AUX)
    Blend: AUG-CC-PVTZ-JKFIT
	 Reference Energy          =    -569.6651137409864987 [Eh]
	 Singles Energy            =      -0.0000000000000000 [Eh]
	 Same-Spin Energy          =      -0.5549989639339806 [Eh]
	 Opposite-Spin Energy      =      -1.7038712015603894 [Eh]
	 Correlation Energy        =      -2.2588701654943701 [Eh]
	 Total Energy              =    -571.9239839064808848 [Eh]

	 ================> DF-SCS-MP2 Energies <==================
	-----------------------------------------------------------
	 SCS Same-Spin Scale       =       0.3333333333333333 [-]
	 SCS Opposite-Spin Scale   =       1.2000000000000000 [-]
	 SCS Same-Spin Energy      =      -0.1849996546446602 [Eh]
	 SCS Opposite-Spin Energy  =      -2.0446454418724671 [Eh]
	 SCS Correlation Energy    =      -2.2296450965171273 [Eh]
	 SCS Total Energy          =    -571.8947588375036730 [Eh]
	-----------------------------------------------------------

  Dipole Moment: [D]
     X:    -1.6985      Y:    -1.2387      Z:    -0.2037     Total:     2.1121

*** Psi4 exiting successfully. Buy a developer a beer!
