                               Psi4 1.3.2 release

  ==> Input File <==

--------------------------------------------------------------------------
#psi4
#
memory 32 gb

molecule  {
0 1
  O       -0.1147700    -1.8002930     0.4548730
  O        0.3584290     1.3939840    -1.0246780
  O       -1.9551560     1.3713260     0.4690830
  O        2.7148150     0.4505790    -0.2056670
  O       -1.6716310    -0.8002260    -0.9984850
  C        0.4332115     1.0103318     0.2968406
  C       -0.9093320     0.4742750     0.8400700
  C        1.5345100    -0.0288940     0.4204030
  C       -1.2151430    -0.9364420     0.3397180
  C        1.0549700    -1.3167000    -0.2286510
  H        0.7042560     1.8874530     0.9605880
  H       -0.8818830     0.4322700     1.9353370
  H        1.8099979    -0.2568450     1.4562234
  H       -1.9939520    -1.3968640     0.9617720
  H        0.8436020    -1.1475360    -1.2899680
  H        1.8059140    -2.1013880    -0.1265130
  H       -0.3930520     2.0121160    -1.0836700
  H       -2.3417080     0.9766970    -0.3400740
  H        2.3997000     0.9352960    -0.9928030
  H       -1.9956420    -1.6762600    -1.2784950
units angstrom
no_reorient  #important for SAPT in psi4, default
symmetry c1  #important for SAPT in psi4, default
}

set PROPERTIES_ORIGIN ["COM"]
properties('MP2/aug-cc-pvtz', properties = ['dipole'])
--------------------------------------------------------------------------

    Molecular point group: c1
  Charge       = 0
  Multiplicity = 1
  Basis Set: AUG-CC-PVTZ
    Blend: AUG-CC-PVTZ
  Basis Set: (AUG-CC-PVTZ AUX)
    Blend: AUG-CC-PVTZ-JKFIT

    Orbital Energies [Eh]
    ---------------------

    Doubly Occupied:

       1A    -20.591652     2A    -20.580309     3A    -20.577049
       4A    -20.574301     5A    -20.557379     6A    -11.352517
       7A    -11.297379     8A    -11.292395     9A    -11.284410
      10A    -11.277040    11A     -1.439348    12A     -1.405214
      13A     -1.376109    14A     -1.354700    15A     -1.352742
      16A     -1.054750    17A     -1.022174    18A     -0.896179
      19A     -0.867643    20A     -0.803233    21A     -0.754105
      22A     -0.727111    23A     -0.712660    24A     -0.697943
      25A     -0.675665    26A     -0.645678    27A     -0.621344
      28A     -0.618669    29A     -0.603040    30A     -0.584582
      31A     -0.570975    32A     -0.555084    33A     -0.548370
      34A     -0.519049    35A     -0.501973    36A     -0.491314
      37A     -0.487461    38A     -0.471096    39A     -0.435523
      40A     -0.409714

  @DF-RHF Final Energy:  -569.67231065694887

   => Energetics <=

    Nuclear Repulsion Energy =            634.3937095585098405
    One-Electron Energy =               -2042.9562800660385165
    Two-Electron Energy =                 838.8902598505796959
    Total Energy =                       -569.6723106569488664
  Basis Set: (AUG-CC-PVTZ AUX)
    Blend: AUG-CC-PVTZ-RI
    Molecular point group: c1

    Geometry (in Angstrom), charge = 0, multiplicity = 1:

       Center              X                  Y                   Z               Mass
    ------------   -----------------  -----------------  -----------------  -----------------
         O           -0.115075804788    -1.799866199276     0.459183481058    15.994914619570
         O            0.358123195212     1.394410800724    -1.020367518942    15.994914619570
         O           -1.955461804788     1.371752800724     0.473393481058    15.994914619570
         O            2.714509195212     0.451005800724    -0.201356518942    15.994914619570
         O           -1.671936804788    -0.799799199276    -0.994174518942    15.994914619570
         C            0.432905695212     1.010758600724     0.301151081058    12.000000000000
         C           -0.909637804788     0.474701800724     0.844380481058    12.000000000000
         C            1.534204195212    -0.028467199276     0.424713481058    12.000000000000
         C           -1.215448804788    -0.936015199276     0.344028481058    12.000000000000
         C            1.054664195212    -1.316273199276    -0.224340518942    12.000000000000
         H            0.703950195212     1.887879800724     0.964898481058     1.007825032230
         H           -0.882188804788     0.432696800724     1.939647481058     1.007825032230
         H            1.809692095212    -0.256418199276     1.460533881058     1.007825032230
         H           -1.994257804788    -1.396437199276     0.966082481058     1.007825032230
         H            0.843296195212    -1.147109199276    -1.285657518942     1.007825032230
         H            1.805608195212    -2.100961199276    -0.122202518942     1.007825032230
         H           -0.393357804788     2.012542800724    -1.079359518942     1.007825032230
         H           -2.342013804788     0.977123800724    -0.335763518942     1.007825032230
         H            2.399394195212     0.935722800724    -0.988492518942     1.007825032230
         H           -1.995947804788    -1.675833199276    -1.274184518942     1.007825032230

  Basis Set: AUG-CC-PVTZ
    Blend: AUG-CC-PVTZ
  Basis Set: (AUG-CC-PVTZ AUX)
    Blend: AUG-CC-PVTZ-JKFIT
	 Reference Energy          =    -569.6723106569488664 [Eh]
	 Singles Energy            =      -0.0000000000000000 [Eh]
	 Same-Spin Energy          =      -0.5546703278602815 [Eh]
	 Opposite-Spin Energy      =      -1.7033588372371073 [Eh]
	 Correlation Energy        =      -2.2580291650973887 [Eh]
	 Total Energy              =    -571.9303398220462213 [Eh]

	 ================> DF-SCS-MP2 Energies <==================
	-----------------------------------------------------------
	 SCS Same-Spin Scale       =       0.3333333333333333 [-]
	 SCS Opposite-Spin Scale   =       1.2000000000000000 [-]
	 SCS Same-Spin Energy      =      -0.1848901092867605 [Eh]
	 SCS Opposite-Spin Energy  =      -2.0440306046845289 [Eh]
	 SCS Correlation Energy    =      -2.2289207139712892 [Eh]
	 SCS Total Energy          =    -571.9012313709201862 [Eh]
	-----------------------------------------------------------

  Dipole Moment: [D]
     X:    -2.1946      Y:    -0.9677      Z:    -0.4432     Total:     2.4391

*** Psi4 exiting successfully. Buy a developer a beer!
