                               Psi4 1.3.2 release

  ==> Input File <==

--------------------------------------------------------------------------
#psi4
#
memory 32 gb

molecule  {
0 1
  O       -0.1282484    -1.8183868     0.4453270
  O        0.3584290     1.3939840    -1.0246780
  O       -1.9551560     1.3713260     0.4690830
  O        2.7148150     0.4505790    -0.2056670
  O       -1.6716310    -0.8002260    -0.9984850
  C        0.4315910     1.0135520     0.3497470
  C       -0.9342435     0.4815807     0.8339872
  C        1.5345100    -0.0288940     0.4204030
  C       -1.2151430    -0.9364420     0.3397180
  C        1.0549700    -1.3167000    -0.2286510
  H        0.7042560     1.8874530     0.9605880
  H       -0.8818830     0.4322700     1.9353370
  H        1.7837760    -0.2316310     1.4680400
  H       -1.9939520    -1.3968640     0.9617720
  H        0.8436020    -1.1475360    -1.2899680
  H        1.8059140    -2.1013880    -0.1265130
  H       -0.3930520     2.0121160    -1.0836700
  H       -2.3417080     0.9766970    -0.3400740
  H        2.3997000     0.9352960    -0.9928030
  H       -1.9956420    -1.6762600    -1.2784950
units angstrom
no_reorient  #important for SAPT in psi4, default
symmetry c1  #important for SAPT in psi4, default
}

set PROPERTIES_ORIGIN ["COM"]
properties('MP2/aug-cc-pvtz', properties = ['dipole'])
--------------------------------------------------------------------------

    Molecular point group: c1
  Charge       = 0
  Multiplicity = 1
  Basis Set: AUG-CC-PVTZ
    Blend: AUG-CC-PVTZ
  Basis Set: (AUG-CC-PVTZ AUX)
    Blend: AUG-CC-PVTZ-JKFIT

    Orbital Energies [Eh]
    ---------------------

    Doubly Occupied:

       1A    -20.590270     2A    -20.581606     3A    -20.577817
       4A    -20.570837     5A    -20.559048     6A    -11.352528
       7A    -11.299021     8A    -11.290833     9A    -11.286394
      10A    -11.278910    11A     -1.438035    12A     -1.394195
      13A     -1.379520    14A     -1.353282    15A     -1.348767
      16A     -1.056397    17A     -1.020992    18A     -0.898967
      19A     -0.869339    20A     -0.798573    21A     -0.752278
      22A     -0.725845    23A     -0.711625    24A     -0.698928
      25A     -0.669650    26A     -0.646448    27A     -0.619583
      28A     -0.615300    29A     -0.603475    30A     -0.586112
      31A     -0.571925    32A     -0.556693    33A     -0.544201
      34A     -0.516457    35A     -0.501620    36A     -0.491696
      37A     -0.486697    38A     -0.471428    39A     -0.437217
      40A     -0.416336

  @DF-RHF Final Energy:  -569.67352217167752

   => Energetics <=

    Nuclear Repulsion Energy =            633.3008958564307704
    One-Electron Energy =               -2040.8111418872679224
    Two-Electron Energy =                 837.8367238591596333
    Total Energy =                       -569.6735221716775186
  Basis Set: (AUG-CC-PVTZ AUX)
    Blend: AUG-CC-PVTZ-RI
    Molecular point group: c1

    Geometry (in Angstrom), charge = 0, multiplicity = 1:

       Center              X                  Y                   Z               Mass
    ------------   -----------------  -----------------  -----------------  -----------------
         O           -0.124819540344    -1.817042411172     0.446831103939    15.994914619570
         O            0.361857859656     1.395328388828    -1.023173896061    15.994914619570
         O           -1.951727140344     1.372670388828     0.470587103939    15.994914619570
         O            2.718243859656     0.451923388828    -0.204162896061    15.994914619570
         O           -1.668202140344    -0.798881611172    -0.996980896061    15.994914619570
         C            0.435019859656     1.014896388828     0.351251103939    12.000000000000
         C           -0.930814640344     0.482925088828     0.835491303939    12.000000000000
         C            1.537938859656    -0.027549611172     0.421907103939    12.000000000000
         C           -1.211714140344    -0.935097611172     0.341222103939    12.000000000000
         C            1.058398859656    -1.315355611172    -0.227146896061    12.000000000000
         H            0.707684859656     1.888797388828     0.962092103939     1.007825032230
         H           -0.878454140344     0.433614388828     1.936841103939     1.007825032230
         H            1.787204859656    -0.230286611172     1.469544103939     1.007825032230
         H           -1.990523140344    -1.395519611172     0.963276103939     1.007825032230
         H            0.847030859656    -1.146191611172    -1.288463896061     1.007825032230
         H            1.809342859656    -2.100043611172    -0.125008896061     1.007825032230
         H           -0.389623140344     2.013460388828    -1.082165896061     1.007825032230
         H           -2.338279140344     0.978041388828    -0.338569896061     1.007825032230
         H            2.403128859656     0.936640388828    -0.991298896061     1.007825032230
         H           -1.992213140344    -1.674915611172    -1.276990896061     1.007825032230

  Basis Set: AUG-CC-PVTZ
    Blend: AUG-CC-PVTZ
  Basis Set: (AUG-CC-PVTZ AUX)
    Blend: AUG-CC-PVTZ-JKFIT
	 Reference Energy          =    -569.6735221716775186 [Eh]
	 Singles Energy            =      -0.0000000000000000 [Eh]
	 Same-Spin Energy          =      -0.5546523017081229 [Eh]
	 Opposite-Spin Energy      =      -1.7039997922340266 [Eh]
	 Correlation Energy        =      -2.2586520939421497 [Eh]
	 Total Energy              =    -571.9321742656196648 [Eh]

	 ================> DF-SCS-MP2 Energies <==================
	-----------------------------------------------------------
	 SCS Same-Spin Scale       =       0.3333333333333333 [-]
	 SCS Opposite-Spin Scale   =       1.2000000000000000 [-]
	 SCS Same-Spin Energy      =      -0.1848841005693743 [Eh]
	 SCS Opposite-Spin Energy  =      -2.0447997506808320 [Eh]
	 SCS Correlation Energy    =      -2.2296838512502064 [Eh]
	 SCS Total Energy          =    -571.9032060229277477 [Eh]
	-----------------------------------------------------------

  Dipole Moment: [D]
     X:    -2.1997      Y:    -0.9018      Z:    -0.3054     Total:     2.3969

*** Psi4 exiting successfully. Buy a developer a beer!
