                               Psi4 1.3.2 release

  ==> Input File <==

--------------------------------------------------------------------------
#psi4
#
memory 32 gb

molecule  {
0 1
  O       -0.1147700    -1.8002930     0.4548730
  O        0.3584290     1.3939840    -1.0246780
  O       -1.9551560     1.3713260     0.4690830
  O        2.7148150     0.4505790    -0.2056670
  O       -1.6716310    -0.8002260    -0.9984850
  C        0.4315910     1.0135520     0.3497470
  C       -0.9458853     0.4676238     0.8783222
  C        1.5345100    -0.0288940     0.4204030
  C       -1.2151430    -0.9364420     0.3397180
  C        1.0549700    -1.3167000    -0.2286510
  H        0.7042560     1.8874530     0.9605880
  H       -0.8818830     0.4322700     1.9353370
  H        1.7837760    -0.2316310     1.4680400
  H       -1.9952565    -1.3647864     0.9827010
  H        0.8436020    -1.1475360    -1.2899680
  H        1.8059140    -2.1013880    -0.1265130
  H       -0.3930520     2.0121160    -1.0836700
  H       -2.3417080     0.9766970    -0.3400740
  H        2.3997000     0.9352960    -0.9928030
  H       -1.9956420    -1.6762600    -1.2784950
units angstrom
no_reorient  #important for SAPT in psi4, default
symmetry c1  #important for SAPT in psi4, default
}

set PROPERTIES_ORIGIN ["COM"]
properties('MP2/aug-cc-pvtz', properties = ['dipole'])
--------------------------------------------------------------------------

    Molecular point group: c1
  Charge       = 0
  Multiplicity = 1
  Basis Set: AUG-CC-PVTZ
    Blend: AUG-CC-PVTZ
  Basis Set: (AUG-CC-PVTZ AUX)
    Blend: AUG-CC-PVTZ-JKFIT

    Orbital Energies [Eh]
    ---------------------

    Doubly Occupied:

       1A    -20.592873     2A    -20.581308     3A    -20.575665
       4A    -20.570862     5A    -20.557064     6A    -11.353264
       7A    -11.297221     8A    -11.290512     9A    -11.284201
      10A    -11.277640    11A     -1.438526    12A     -1.390993
      13A     -1.377193    14A     -1.354873    15A     -1.347123
      16A     -1.052909    17A     -1.023618    18A     -0.897562
      19A     -0.869177    20A     -0.799958    21A     -0.751071
      22A     -0.725249    23A     -0.713442    24A     -0.696799
      25A     -0.667729    26A     -0.647884    27A     -0.620821
      28A     -0.613425    29A     -0.603901    30A     -0.586286
      31A     -0.572797    32A     -0.555951    33A     -0.543837
      34A     -0.518968    35A     -0.503993    36A     -0.490002
      37A     -0.488615    38A     -0.470809    39A     -0.432609
      40A     -0.412522

  @DF-RHF Final Energy:  -569.67225035477441

   => Energetics <=

    Nuclear Repulsion Energy =            633.0396704971724375
    One-Electron Energy =               -2040.3253458989343017
    Two-Electron Energy =                 837.6134250469874587
    Total Energy =                       -569.6722503547744054
  Basis Set: (AUG-CC-PVTZ AUX)
    Blend: AUG-CC-PVTZ-RI
    Molecular point group: c1

    Geometry (in Angstrom), charge = 0, multiplicity = 1:

       Center              X                  Y                   Z               Mass
    ------------   -----------------  -----------------  -----------------  -----------------
         O           -0.111838095668    -1.799976613117     0.451673425535    15.994914619570
         O            0.361360904332     1.394300386883    -1.027877574465    15.994914619570
         O           -1.952224095668     1.371642386883     0.465883425535    15.994914619570
         O            2.717746904332     0.450895386883    -0.208866574465    15.994914619570
         O           -1.668699095668    -0.799909613117    -1.001684574465    15.994914619570
         C            0.434522904332     1.013868386883     0.346547425535    12.000000000000
         C           -0.942953395668     0.467940186883     0.875122625535    12.000000000000
         C            1.537441904332    -0.028577613117     0.417203425535    12.000000000000
         C           -1.212211095668    -0.936125613117     0.336518425535    12.000000000000
         C            1.057901904332    -1.316383613117    -0.231850574465    12.000000000000
         H            0.707187904332     1.887769386883     0.957388425535     1.007825032230
         H           -0.878951095668     0.432586386883     1.932137425535     1.007825032230
         H            1.786707904332    -0.231314613117     1.464840425535     1.007825032230
         H           -1.992324595668    -1.364470013117     0.979501425535     1.007825032230
         H            0.846533904332    -1.147219613117    -1.293167574465     1.007825032230
         H            1.808845904332    -2.101071613117    -0.129712574465     1.007825032230
         H           -0.390120095668     2.012432386883    -1.086869574465     1.007825032230
         H           -2.338776095668     0.977013386883    -0.343273574465     1.007825032230
         H            2.402631904332     0.935612386883    -0.996002574465     1.007825032230
         H           -1.992710095668    -1.675943613117    -1.281694574465     1.007825032230

  Basis Set: AUG-CC-PVTZ
    Blend: AUG-CC-PVTZ
  Basis Set: (AUG-CC-PVTZ AUX)
    Blend: AUG-CC-PVTZ-JKFIT
	 Reference Energy          =    -569.6722503547744054 [Eh]
	 Singles Energy            =      -0.0000000000000000 [Eh]
	 Same-Spin Energy          =      -0.5544018248582548 [Eh]
	 Opposite-Spin Energy      =      -1.7035507216060299 [Eh]
	 Correlation Energy        =      -2.2579525464642849 [Eh]
	 Total Energy              =    -571.9302029012386583 [Eh]

	 ================> DF-SCS-MP2 Energies <==================
	-----------------------------------------------------------
	 SCS Same-Spin Scale       =       0.3333333333333333 [-]
	 SCS Opposite-Spin Scale   =       1.2000000000000000 [-]
	 SCS Same-Spin Energy      =      -0.1848006082860849 [Eh]
	 SCS Opposite-Spin Energy  =      -2.0442608659272357 [Eh]
	 SCS Correlation Energy    =      -2.2290614742133208 [Eh]
	 SCS Total Energy          =    -571.9013118289876729 [Eh]
	-----------------------------------------------------------

  Dipole Moment: [D]
     X:    -2.2684      Y:    -0.9681      Z:    -0.2694     Total:     2.4810

*** Psi4 exiting successfully. Buy a developer a beer!
