                               Psi4 1.3.2 release

  ==> Input File <==

--------------------------------------------------------------------------
#psi4
#
memory 32 gb

molecule  {
0 1
  O       -0.1147700    -1.8002930     0.4548730
  O        0.3344964     1.3870422    -1.0250995
  O       -1.9551560     1.3713260     0.4690830
  O        2.7148150     0.4505790    -0.2056670
  O       -1.6716310    -0.8002260    -0.9984850
  C        0.4315910     1.0135520     0.3497470
  C       -0.9195721     0.4783456     0.8158192
  C        1.5345100    -0.0288940     0.4204030
  C       -1.2151430    -0.9364420     0.3397180
  C        1.0549700    -1.3167000    -0.2286510
  H        0.7042560     1.8874530     0.9605880
  H       -0.8818830     0.4322700     1.9353370
  H        1.7837760    -0.2316310     1.4680400
  H       -1.9939520    -1.3968640     0.9617720
  H        0.8436020    -1.1475360    -1.2899680
  H        1.8059140    -2.1013880    -0.1265130
  H       -0.3930520     2.0121160    -1.0836700
  H       -2.3417080     0.9766970    -0.3400740
  H        2.3997000     0.9352960    -0.9928030
  H       -1.9956420    -1.6762600    -1.2784950
units angstrom
no_reorient  #important for SAPT in psi4, default
symmetry c1  #important for SAPT in psi4, default
}

set PROPERTIES_ORIGIN ["COM"]
properties('MP2/aug-cc-pvtz', properties = ['dipole'])
--------------------------------------------------------------------------

    Molecular point group: c1
  Charge       = 0
  Multiplicity = 1
  Basis Set: AUG-CC-PVTZ
    Blend: AUG-CC-PVTZ
  Basis Set: (AUG-CC-PVTZ AUX)
    Blend: AUG-CC-PVTZ-JKFIT

    Orbital Energies [Eh]
    ---------------------

    Doubly Occupied:

       1A    -20.590696     2A    -20.581058     3A    -20.576170
       4A    -20.568787     5A    -20.559126     6A    -11.353231
       7A    -11.298062     8A    -11.290949     9A    -11.286228
      10A    -11.278294    11A     -1.439409    12A     -1.394391
      13A     -1.378565    14A     -1.354734    15A     -1.349932
      16A     -1.058609    17A     -1.022771    18A     -0.899827
      19A     -0.869347    20A     -0.798719    21A     -0.753112
      22A     -0.727292    23A     -0.712452    24A     -0.697915
      25A     -0.671903    26A     -0.645967    27A     -0.621258
      28A     -0.615372    29A     -0.603422    30A     -0.585730
      31A     -0.571185    32A     -0.556627    33A     -0.541862
      34A     -0.515188    35A     -0.502494    36A     -0.491780
      37A     -0.486251    38A     -0.472227    39A     -0.438639
      40A     -0.416742

  @DF-RHF Final Energy:  -569.67426201351736

   => Energetics <=

    Nuclear Repulsion Energy =            634.3939719261239816
    One-Electron Energy =               -2042.9838185610706205
    Two-Electron Energy =                 838.9155846214293888
    Total Energy =                       -569.6742620135173638
  Basis Set: (AUG-CC-PVTZ AUX)
    Blend: AUG-CC-PVTZ-RI
    Molecular point group: c1

    Geometry (in Angstrom), charge = 0, multiplicity = 1:

       Center              X                  Y                   Z               Mass
    ------------   -----------------  -----------------  -----------------  -----------------
         O           -0.111400071348    -1.799878644240     0.456857404142    15.994914619570
         O            0.337866328652     1.387456555760    -1.023115095858    15.994914619570
         O           -1.951786071348     1.371740355760     0.471067404142    15.994914619570
         O            2.718184928652     0.450993355760    -0.203682595858    15.994914619570
         O           -1.668261071348    -0.799811644240    -0.996500595858    15.994914619570
         C            0.434960928652     1.013966355760     0.351731404142    12.000000000000
         C           -0.916202171348     0.478759955760     0.817803604142    12.000000000000
         C            1.537879928652    -0.028479644240     0.422387404142    12.000000000000
         C           -1.211773071348    -0.936027644240     0.341702404142    12.000000000000
         C            1.058339928652    -1.316285644240    -0.226666595858    12.000000000000
         H            0.707625928652     1.887867355760     0.962572404142     1.007825032230
         H           -0.878513071348     0.432684355760     1.937321404142     1.007825032230
         H            1.787145928652    -0.231216644240     1.470024404142     1.007825032230
         H           -1.990582071348    -1.396449644240     0.963756404142     1.007825032230
         H            0.846971928652    -1.147121644240    -1.287983595858     1.007825032230
         H            1.809283928652    -2.100973644240    -0.124528595858     1.007825032230
         H           -0.389682071348     2.012530355760    -1.081685595858     1.007825032230
         H           -2.338338071348     0.977111355760    -0.338089595858     1.007825032230
         H            2.403069928652     0.935710355760    -0.990818595858     1.007825032230
         H           -1.992272071348    -1.675845644240    -1.276510595858     1.007825032230

  Basis Set: AUG-CC-PVTZ
    Blend: AUG-CC-PVTZ
  Basis Set: (AUG-CC-PVTZ AUX)
    Blend: AUG-CC-PVTZ-JKFIT
	 Reference Energy          =    -569.6742620135173638 [Eh]
	 Singles Energy            =      -0.0000000000000000 [Eh]
	 Same-Spin Energy          =      -0.5545394412938647 [Eh]
	 Opposite-Spin Energy      =      -1.7034944750208991 [Eh]
	 Correlation Energy        =      -2.2580339163147638 [Eh]
	 Total Energy              =    -571.9322959298320939 [Eh]

	 ================> DF-SCS-MP2 Energies <==================
	-----------------------------------------------------------
	 SCS Same-Spin Scale       =       0.3333333333333333 [-]
	 SCS Opposite-Spin Scale   =       1.2000000000000000 [-]
	 SCS Same-Spin Energy      =      -0.1848464804312882 [Eh]
	 SCS Opposite-Spin Energy  =      -2.0441933700250789 [Eh]
	 SCS Correlation Energy    =      -2.2290398504563673 [Eh]
	 SCS Total Energy          =    -571.9033018639737520 [Eh]
	-----------------------------------------------------------

  Dipole Moment: [D]
     X:    -2.1536      Y:    -0.9502      Z:    -0.3332     Total:     2.3774

*** Psi4 exiting successfully. Buy a developer a beer!
