                               Psi4 1.4a3.dev225

  ==> Input File <==

--------------------------------------------------------------------------
#psi4
#
memory 32 gb

molecule  {
0 1
  O       -0.2343850     1.7978400    -0.4145210
  O        0.4791390    -1.3900560     0.9851260
  O       -1.8902550    -1.4798720    -0.4079610
  O        2.7489250    -0.2990660     0.0843650
  O       -1.6766260     0.6849030     1.0797040
  C        0.4758930    -0.9871420    -0.3839460
  C       -0.9494228    -0.5497553    -0.7971588
  C        1.5148540     0.1205520    -0.4811210
  C       -1.2794180     0.8705190    -0.2725550
  C        0.9914930     1.3693070     0.2124490
  H        0.7732420    -1.8350180    -1.0199460
  H       -0.9367810    -0.4539690    -1.9062570
  H        1.7061480     0.3550680    -1.5342930
  H       -2.1075740     1.2945610    -0.8542440
  H        0.8333730     1.1741050     1.2776920
  H        1.6908660     2.1982840     0.0933200
  H       -0.2684360    -2.0097880     1.0741120
  H       -2.2907410    -1.1048270     0.4011470
  H        2.5001980    -0.8049050     0.8819700
  H       -2.0397460     1.5332780     1.3914430
units angstrom
no_reorient  #important for SAPT in psi4, default
symmetry c1  #important for SAPT in psi4, default
}

set PROPERTIES_ORIGIN ["COM"]
properties('MP2/aug-cc-pvtz', properties = ['dipole'])
--------------------------------------------------------------------------

    Molecular point group: c1
  Charge       = 0
  Multiplicity = 1
  Basis Set: AUG-CC-PVTZ
    Blend: AUG-CC-PVTZ
  Basis Set: (AUG-CC-PVTZ AUX)
    Blend: AUG-CC-PVTZ-JKFIT

    Orbital Energies [Eh]
    ---------------------

    Doubly Occupied:

       1A    -20.591346     2A    -20.581492     3A    -20.580458
       4A    -20.568964     5A    -20.558407     6A    -11.353842
       7A    -11.300118     8A    -11.289599     9A    -11.285785
      10A    -11.278178    11A     -1.439301    12A     -1.399495
      13A     -1.381353    14A     -1.355999    15A     -1.348112
      16A     -1.052433    17A     -1.019246    18A     -0.896117
      19A     -0.870805    20A     -0.798436    21A     -0.753065
      22A     -0.725147    23A     -0.713361    24A     -0.702352
      25A     -0.668598    26A     -0.648656    27A     -0.620263
      28A     -0.617098    29A     -0.603724    30A     -0.587776
      31A     -0.572602    32A     -0.555502    33A     -0.545632
      34A     -0.515592    35A     -0.502551    36A     -0.489653
      37A     -0.484012    38A     -0.470493    39A     -0.436422
      40A     -0.412808

  @DF-RHF Final Energy:  -569.67290881580357

   => Energetics <=

    Nuclear Repulsion Energy =            633.0649583555700701
    One-Electron Energy =               -2040.3261485314210404
    Two-Electron Energy =                 837.5882813600474037
    Total Energy =                       -569.6729088158035665
  Basis Set: (AUG-CC-PVTZ AUX)
    Blend: AUG-CC-PVTZ-RI
    Molecular point group: c1

    Geometry (in Angstrom), charge = 0, multiplicity = 1:

       Center              X                  Y                   Z               Mass
    ------------   -----------------  -----------------  -----------------  -----------------
         O           -0.232598503403     1.802806618425    -0.416894145883    15.994914619570
         O            0.480925496597    -1.385089381575     0.982752854117    15.994914619570
         O           -1.888468503403    -1.474905381575    -0.410334145883    15.994914619570
         O            2.750711496597    -0.294099381575     0.081991854117    15.994914619570
         O           -1.674839503403     0.689869618425     1.077330854117    15.994914619570
         C            0.477679496597    -0.982175381575    -0.386319145883    12.000000000000
         C           -0.947636303403    -0.544788681575    -0.799531945883    12.000000000000
         C            1.516640496597     0.125518618425    -0.483494145883    12.000000000000
         C           -1.277631503403     0.875485618425    -0.274928145883    12.000000000000
         C            0.993279496597     1.374273618425     0.210075854117    12.000000000000
         H            0.775028496597    -1.830051381575    -1.022319145883     1.007825032230
         H           -0.934994503403    -0.449002381575    -1.908630145883     1.007825032230
         H            1.707934496597     0.360034618425    -1.536666145883     1.007825032230
         H           -2.105787503403     1.299527618425    -0.856617145883     1.007825032230
         H            0.835159496597     1.179071618425     1.275318854117     1.007825032230
         H            1.692652496597     2.203250618425     0.090946854117     1.007825032230
         H           -0.266649503403    -2.004821381575     1.071738854117     1.007825032230
         H           -2.288954503403    -1.099860381575     0.398773854117     1.007825032230
         H            2.501984496597    -0.799938381575     0.879596854117     1.007825032230
         H           -2.037959503403     1.538244618425     1.389069854117     1.007825032230

  Basis Set: AUG-CC-PVTZ
    Blend: AUG-CC-PVTZ
  Basis Set: (AUG-CC-PVTZ AUX)
    Blend: AUG-CC-PVTZ-JKFIT
	 Reference Energy          =    -569.6729088158035665 [Eh]
	 Singles Energy            =      -0.0000000000000000 [Eh]
	 Same-Spin Energy          =      -0.5544745108777447 [Eh]
	 Opposite-Spin Energy      =      -1.7033879597075217 [Eh]
	 Correlation Energy        =      -2.2578624705852661 [Eh]
	 Total Energy              =    -571.9307712863887900 [Eh]

	 ================> DF-SCS-MP2 Energies <==================
	-----------------------------------------------------------
	 SCS Same-Spin Scale       =       0.3333333333333333 [-]
	 SCS Opposite-Spin Scale   =       1.2000000000000000 [-]
	 SCS Same-Spin Energy      =      -0.1848248369592482 [Eh]
	 SCS Opposite-Spin Energy  =      -2.0440655516490258 [Eh]
	 SCS Correlation Energy    =      -2.2288903886082738 [Eh]
	 SCS Total Energy          =    -571.9017992044118728 [Eh]
	-----------------------------------------------------------

  Dipole Moment: [D]
     X:    -2.4156      Y:     0.8740      Z:     0.4465     Total:     2.6073

*** Psi4 exiting successfully. Buy a developer a beer!
