                               Psi4 1.3.2 release

  ==> Input File <==

--------------------------------------------------------------------------
#psi4
#
memory 32 gb

molecule  {
0 1
  O       -0.1147700    -1.8002930     0.4548730
  O        0.3584290     1.3939840    -1.0246780
  O       -1.9551560     1.3713260     0.4690830
  O        2.7148150     0.4505790    -0.2056670
  O       -1.6716310    -0.8002260    -0.9984850
  C        0.4315910     1.0135520     0.3497470
  C       -0.9093320     0.4742750     0.8400700
  C        1.5345100    -0.0288940     0.4204030
  C       -1.2090266    -0.9124172     0.3398474
  C        1.0549700    -1.3167000    -0.2286510
  H        0.7042560     1.8874530     0.9605880
  H       -0.8818830     0.4322700     1.9353370
  H        1.7837760    -0.2316310     1.4680400
  H       -1.9939520    -1.3968640     0.9617720
  H        0.8436020    -1.1475360    -1.2899680
  H        1.8059140    -2.1013880    -0.1265130
  H       -0.3930520     2.0121160    -1.0836700
  H       -2.3417080     0.9766970    -0.3400740
  H        2.3997000     0.9352960    -0.9928030
  H       -1.9995883    -1.6697676    -1.2937235
units angstrom
no_reorient  #important for SAPT in psi4, default
symmetry c1  #important for SAPT in psi4, default
}

set PROPERTIES_ORIGIN ["COM"]
properties('MP2/aug-cc-pvtz', properties = ['dipole'])
--------------------------------------------------------------------------

    Molecular point group: c1
  Charge       = 0
  Multiplicity = 1
  Basis Set: AUG-CC-PVTZ
    Blend: AUG-CC-PVTZ
  Basis Set: (AUG-CC-PVTZ AUX)
    Blend: AUG-CC-PVTZ-JKFIT

    Orbital Energies [Eh]
    ---------------------

    Doubly Occupied:

       1A    -20.590744     2A    -20.580225     3A    -20.575633
       4A    -20.571755     5A    -20.558287     6A    -11.354656
       7A    -11.298924     8A    -11.291570     9A    -11.285698
      10A    -11.277245    11A     -1.437097    12A     -1.391692
      13A     -1.375839    14A     -1.352605    15A     -1.348097
      16A     -1.061267    17A     -1.024119    18A     -0.900777
      19A     -0.869084    20A     -0.799434    21A     -0.751249
      22A     -0.728519    23A     -0.710813    24A     -0.696849
      25A     -0.670093    26A     -0.646574    27A     -0.618995
      28A     -0.613793    29A     -0.603862    30A     -0.584071
      31A     -0.569630    32A     -0.557451    33A     -0.543166
      34A     -0.516962    35A     -0.499931    36A     -0.493092
      37A     -0.488340    38A     -0.470912    39A     -0.440449
      40A     -0.417306

  @DF-RHF Final Energy:  -569.67332850445950

   => Energetics <=

    Nuclear Repulsion Energy =            634.1208488895397295
    One-Electron Energy =               -2042.4547421705567558
    Two-Electron Energy =                 838.6605647765575213
    Total Energy =                       -569.6733285044595050
  Basis Set: (AUG-CC-PVTZ AUX)
    Blend: AUG-CC-PVTZ-RI
    Molecular point group: c1

    Geometry (in Angstrom), charge = 0, multiplicity = 1:

       Center              X                  Y                   Z               Mass
    ------------   -----------------  -----------------  -----------------  -----------------
         O           -0.115232726413    -1.802257987017     0.454965026601    15.994914619570
         O            0.357966273587     1.392019012983    -1.024585973399    15.994914619570
         O           -1.955618726413     1.369361012983     0.469175026601    15.994914619570
         O            2.714352273587     0.448614012983    -0.205574973399    15.994914619570
         O           -1.672093726413    -0.802190987017    -0.998392973399    15.994914619570
         C            0.431128273587     1.011587012983     0.349839026601    12.000000000000
         C           -0.909794726413     0.472310012983     0.840162026601    12.000000000000
         C            1.534047273587    -0.030858987017     0.420495026601    12.000000000000
         C           -1.209489326413    -0.914382187017     0.339939426601    12.000000000000
         C            1.054507273587    -1.318664987017    -0.228558973399    12.000000000000
         H            0.703793273587     1.885488012983     0.960680026601     1.007825032230
         H           -0.882345726413     0.430305012983     1.935429026601     1.007825032230
         H            1.783313273587    -0.233595987017     1.468132026601     1.007825032230
         H           -1.994414726413    -1.398828987017     0.961864026601     1.007825032230
         H            0.843139273587    -1.149500987017    -1.289875973399     1.007825032230
         H            1.805451273587    -2.103352987017    -0.126420973399     1.007825032230
         H           -0.393514726413     2.010151012983    -1.083577973399     1.007825032230
         H           -2.342170726413     0.974732012983    -0.339981973399     1.007825032230
         H            2.399237273587     0.933331012983    -0.992710973399     1.007825032230
         H           -2.000051026413    -1.671732587017    -1.293631473399     1.007825032230

  Basis Set: AUG-CC-PVTZ
    Blend: AUG-CC-PVTZ
  Basis Set: (AUG-CC-PVTZ AUX)
    Blend: AUG-CC-PVTZ-JKFIT
	 Reference Energy          =    -569.6733285044595050 [Eh]
	 Singles Energy            =      -0.0000000000000000 [Eh]
	 Same-Spin Energy          =      -0.5547956452222307 [Eh]
	 Opposite-Spin Energy      =      -1.7042244931612833 [Eh]
	 Correlation Energy        =      -2.2590201383835140 [Eh]
	 Total Energy              =    -571.9323486428430670 [Eh]

	 ================> DF-SCS-MP2 Energies <==================
	-----------------------------------------------------------
	 SCS Same-Spin Scale       =       0.3333333333333333 [-]
	 SCS Opposite-Spin Scale   =       1.2000000000000000 [-]
	 SCS Same-Spin Energy      =      -0.1849318817407435 [Eh]
	 SCS Opposite-Spin Energy  =      -2.0450693917935401 [Eh]
	 SCS Correlation Energy    =      -2.2300012735342838 [Eh]
	 SCS Total Energy          =    -571.9033297779938039 [Eh]
	-----------------------------------------------------------

  Dipole Moment: [D]
     X:    -2.1912      Y:    -0.9266      Z:    -0.3143     Total:     2.3997

*** Psi4 exiting successfully. Buy a developer a beer!
