                               Psi4 1.3.2 release

  ==> Input File <==

--------------------------------------------------------------------------
#psi4
#
memory 32 gb

molecule  {
0 1
  O       -0.1147700    -1.8002930     0.4548730
  O        0.3584290     1.3939840    -1.0246780
  O       -1.9551560     1.3713260     0.4690830
  O        2.7148150     0.4505790    -0.2056670
  O       -1.6716310    -0.8002260    -0.9984850
  C        0.4356983     0.9907429     0.3366166
  C       -0.9093320     0.4742750     0.8400700
  C        1.5345100    -0.0288940     0.4204030
  C       -1.1918819    -0.9366100     0.3266852
  C        1.0549700    -1.3167000    -0.2286510
  H        0.7042560     1.8874530     0.9605880
  H       -0.8818830     0.4322700     1.9353370
  H        1.7837760    -0.2316310     1.4680400
  H       -1.9939520    -1.3968640     0.9617720
  H        0.8436020    -1.1475360    -1.2899680
  H        1.8059140    -2.1013880    -0.1265130
  H       -0.3930520     2.0121160    -1.0836700
  H       -2.3417080     0.9766970    -0.3400740
  H        2.3997000     0.9352960    -0.9928030
  H       -1.9956420    -1.6762600    -1.2784950
units angstrom
no_reorient  #important for SAPT in psi4, default
symmetry c1  #important for SAPT in psi4, default
}

set PROPERTIES_ORIGIN ["COM"]
properties('MP2/aug-cc-pvtz', properties = ['dipole'])
--------------------------------------------------------------------------

    Molecular point group: c1
  Charge       = 0
  Multiplicity = 1
  Basis Set: AUG-CC-PVTZ
    Blend: AUG-CC-PVTZ
  Basis Set: (AUG-CC-PVTZ AUX)
    Blend: AUG-CC-PVTZ-JKFIT

    Orbital Energies [Eh]
    ---------------------

    Doubly Occupied:

       1A    -20.591346     2A    -20.583719     3A    -20.575375
       4A    -20.571683     5A    -20.559285     6A    -11.353613
       7A    -11.298191     8A    -11.291642     9A    -11.285984
      10A    -11.279247    11A     -1.443485    12A     -1.393720
      13A     -1.377943    14A     -1.356733    15A     -1.349106
      16A     -1.062460    17A     -1.023750    18A     -0.897558
      19A     -0.870714    20A     -0.800695    21A     -0.751634
      22A     -0.726791    23A     -0.714532    24A     -0.697370
      25A     -0.672161    26A     -0.646309    27A     -0.622107
      28A     -0.616440    29A     -0.603145    30A     -0.585712
      31A     -0.570827    32A     -0.556874    33A     -0.543003
      34A     -0.517999    35A     -0.501059    36A     -0.490495
      37A     -0.489421    38A     -0.474005    39A     -0.440975
      40A     -0.412737

  @DF-RHF Final Energy:  -569.67273899884083

   => Energetics <=

    Nuclear Repulsion Energy =            634.7367160129786043
    One-Electron Energy =               -2043.6192179463753291
    Two-Electron Energy =                 839.2097629345558971
    Total Energy =                       -569.6727389988408277
  Basis Set: (AUG-CC-PVTZ AUX)
    Blend: AUG-CC-PVTZ-RI
    Molecular point group: c1

    Geometry (in Angstrom), charge = 0, multiplicity = 1:

       Center              X                  Y                   Z               Mass
    ------------   -----------------  -----------------  -----------------  -----------------
         O           -0.116958793101    -1.798455552713     0.456965412396    15.994914619570
         O            0.356240206899     1.395821447287    -1.022585587604    15.994914619570
         O           -1.957344793101     1.373163447287     0.471175412396    15.994914619570
         O            2.712626206899     0.452416447287    -0.203574587604    15.994914619570
         O           -1.673819793101    -0.798388552713    -0.996392587604    15.994914619570
         C            0.433509506899     0.992580347287     0.338709012396    12.000000000000
         C           -0.911520793101     0.476112447287     0.842162412396    12.000000000000
         C            1.532321206899    -0.027056552713     0.422495412396    12.000000000000
         C           -1.194070693101    -0.934772552713     0.328777612396    12.000000000000
         C            1.052781206899    -1.314862552713    -0.226558587604    12.000000000000
         H            0.702067206899     1.889290447287     0.962680412396     1.007825032230
         H           -0.884071793101     0.434107447287     1.937429412396     1.007825032230
         H            1.781587206899    -0.229793552713     1.470132412396     1.007825032230
         H           -1.996140793101    -1.395026552713     0.963864412396     1.007825032230
         H            0.841413206899    -1.145698552713    -1.287875587604     1.007825032230
         H            1.803725206899    -2.099550552713    -0.124420587604     1.007825032230
         H           -0.395240793101     2.013953447287    -1.081577587604     1.007825032230
         H           -2.343896793101     0.978534447287    -0.337981587604     1.007825032230
         H            2.397511206899     0.937133447287    -0.990710587604     1.007825032230
         H           -1.997830793101    -1.674422552713    -1.276402587604     1.007825032230

  Basis Set: AUG-CC-PVTZ
    Blend: AUG-CC-PVTZ
  Basis Set: (AUG-CC-PVTZ AUX)
    Blend: AUG-CC-PVTZ-JKFIT
	 Reference Energy          =    -569.6727389988408277 [Eh]
	 Singles Energy            =      -0.0000000000000000 [Eh]
	 Same-Spin Energy          =      -0.5548912562270104 [Eh]
	 Opposite-Spin Energy      =      -1.7038859997536655 [Eh]
	 Correlation Energy        =      -2.2587772559806760 [Eh]
	 Total Energy              =    -571.9315162548215312 [Eh]

	 ================> DF-SCS-MP2 Energies <==================
	-----------------------------------------------------------
	 SCS Same-Spin Scale       =       0.3333333333333333 [-]
	 SCS Opposite-Spin Scale   =       1.2000000000000000 [-]
	 SCS Same-Spin Energy      =      -0.1849637520756701 [Eh]
	 SCS Opposite-Spin Energy  =      -2.0446631997043987 [Eh]
	 SCS Correlation Energy    =      -2.2296269517800686 [Eh]
	 SCS Total Energy          =    -571.9023659506209469 [Eh]
	-----------------------------------------------------------

  Dipole Moment: [D]
     X:    -2.1047      Y:    -1.0373      Z:    -0.3583     Total:     2.3736

*** Psi4 exiting successfully. Buy a developer a beer!
