                               Psi4 1.3.2 release

  ==> Input File <==

--------------------------------------------------------------------------
#psi4
#
memory 32 gb

molecule  {
0 1
  O       -0.1147700    -1.8002930     0.4548730
  O        0.3584290     1.3939840    -1.0246780
  O       -1.9551560     1.3713260     0.4690830
  O        2.7148150     0.4505790    -0.2056670
  O       -1.6716310    -0.8002260    -0.9984850
  C        0.4315910     1.0135520     0.3497470
  C       -0.9093320     0.4742750     0.8400700
  C        1.5078440    -0.0075851     0.3844893
  C       -1.2151430    -0.9364420     0.3397180
  C        1.0549700    -1.3167000    -0.2286510
  H        0.7042560     1.8874530     0.9605880
  H       -0.8818830     0.4322700     1.9353370
  H        1.7837760    -0.2316310     1.4680400
  H       -1.9939520    -1.3968640     0.9617720
  H        0.8436020    -1.1475360    -1.2899680
  H        1.8059140    -2.1013880    -0.1265130
  H       -0.3930520     2.0121160    -1.0836700
  H       -2.3417080     0.9766970    -0.3400740
  H        2.3676853     0.9275527    -0.9840167
  H       -1.9956420    -1.6762600    -1.2784950
units angstrom
no_reorient  #important for SAPT in psi4, default
symmetry c1  #important for SAPT in psi4, default
}

set PROPERTIES_ORIGIN ["COM"]
properties('MP2/aug-cc-pvtz', properties = ['dipole'])
--------------------------------------------------------------------------

    Molecular point group: c1
  Charge       = 0
  Multiplicity = 1
  Basis Set: AUG-CC-PVTZ
    Blend: AUG-CC-PVTZ
  Basis Set: (AUG-CC-PVTZ AUX)
    Blend: AUG-CC-PVTZ-JKFIT

    Orbital Energies [Eh]
    ---------------------

    Doubly Occupied:

       1A    -20.592173     2A    -20.581199     3A    -20.575941
       4A    -20.572323     5A    -20.560237     6A    -11.354641
       7A    -11.299840     8A    -11.291141     9A    -11.286359
      10A    -11.278604    11A     -1.439557    12A     -1.394400
      13A     -1.377553    14A     -1.354881    15A     -1.349714
      16A     -1.064095    17A     -1.023518    18A     -0.902328
      19A     -0.869932    20A     -0.795457    21A     -0.752765
      22A     -0.730821    23A     -0.713714    24A     -0.697146
      25A     -0.669876    26A     -0.644702    27A     -0.622026
      28A     -0.616253    29A     -0.604061    30A     -0.579959
      31A     -0.573278    32A     -0.559304    33A     -0.543318
      34A     -0.515065    35A     -0.503468    36A     -0.493094
      37A     -0.486968    38A     -0.470629    39A     -0.444629
      40A     -0.416924

  @DF-RHF Final Energy:  -569.66973881329636

   => Energetics <=

    Nuclear Repulsion Energy =            634.7227220783810253
    One-Electron Energy =               -2043.5811355319922313
    Two-Electron Energy =                 839.1886746403149573
    Total Energy =                       -569.6697388132963624
  Basis Set: (AUG-CC-PVTZ AUX)
    Blend: AUG-CC-PVTZ-RI
    Molecular point group: c1

    Geometry (in Angstrom), charge = 0, multiplicity = 1:

       Center              X                  Y                   Z               Mass
    ------------   -----------------  -----------------  -----------------  -----------------
         O           -0.112422537131    -1.801945177876     0.457686164892    15.994914619570
         O            0.360776462869     1.392331822124    -1.021864835108    15.994914619570
         O           -1.952808537131     1.369673822124     0.471896164892    15.994914619570
         O            2.717162462869     0.448926822124    -0.202853835108    15.994914619570
         O           -1.669283537131    -0.801878177876    -0.995671835108    15.994914619570
         C            0.433938462869     1.011899822124     0.352560164892    12.000000000000
         C           -0.906984537131     0.472622822124     0.842883164892    12.000000000000
         C            1.510191462869    -0.009237277876     0.387302464892    12.000000000000
         C           -1.212795537131    -0.938094177876     0.342531164892    12.000000000000
         C            1.057317462869    -1.318352177876    -0.225837835108    12.000000000000
         H            0.706603462869     1.885800822124     0.963401164892     1.007825032230
         H           -0.879535537131     0.430617822124     1.938150164892     1.007825032230
         H            1.786123462869    -0.233283177876     1.470853164892     1.007825032230
         H           -1.991604537131    -1.398516177876     0.964585164892     1.007825032230
         H            0.845949462869    -1.149188177876    -1.287154835108     1.007825032230
         H            1.808261462869    -2.103040177876    -0.123699835108     1.007825032230
         H           -0.390704537131     2.010463822124    -1.080856835108     1.007825032230
         H           -2.339360537131     0.975044822124    -0.337260835108     1.007825032230
         H            2.370032762869     0.925900522124    -0.981203535108     1.007825032230
         H           -1.993294537131    -1.677912177876    -1.275681835108     1.007825032230

  Basis Set: AUG-CC-PVTZ
    Blend: AUG-CC-PVTZ
  Basis Set: (AUG-CC-PVTZ AUX)
    Blend: AUG-CC-PVTZ-JKFIT
	 Reference Energy          =    -569.6697388132963624 [Eh]
	 Singles Energy            =      -0.0000000000000000 [Eh]
	 Same-Spin Energy          =      -0.5552504822869901 [Eh]
	 Opposite-Spin Energy      =      -1.7049320467737847 [Eh]
	 Correlation Energy        =      -2.2601825290607751 [Eh]
	 Total Energy              =    -571.9299213423571473 [Eh]

	 ================> DF-SCS-MP2 Energies <==================
	-----------------------------------------------------------
	 SCS Same-Spin Scale       =       0.3333333333333333 [-]
	 SCS Opposite-Spin Scale   =       1.2000000000000000 [-]
	 SCS Same-Spin Energy      =      -0.1850834940956634 [Eh]
	 SCS Opposite-Spin Energy  =      -2.0459184561285415 [Eh]
	 SCS Correlation Energy    =      -2.2310019502242051 [Eh]
	 SCS Total Energy          =    -571.9007407635206164 [Eh]
	-----------------------------------------------------------

  Dipole Moment: [D]
     X:    -2.2746      Y:    -0.9748      Z:    -0.3245     Total:     2.4959

*** Psi4 exiting successfully. Buy a developer a beer!
