                               Psi4 1.3.2 release

  ==> Input File <==

--------------------------------------------------------------------------
#psi4
#
memory 32 gb

molecule  {
0 1
  O       -0.1147700    -1.8002930     0.4548730
  O        0.3584290     1.3939840    -1.0246780
  O       -1.9551560     1.3713260     0.4690830
  O        2.7148150     0.4505790    -0.2056670
  O       -1.6716310    -0.8002260    -0.9984850
  C        0.4315910     1.0135520     0.3497470
  C       -1.0559176     0.6000081     0.7880714
  C        1.5345100    -0.0288940     0.4204030
  C       -1.2151430    -0.9364420     0.3397180
  C        1.0549700    -1.3167000    -0.2286510
  H        0.7042560     1.8874530     0.9605880
  H       -0.8818830     0.4322700     1.9353370
  H        1.7837760    -0.2316310     1.4680400
  H       -1.9939520    -1.3968640     0.9617720
  H        0.8436020    -1.1475360    -1.2899680
  H        1.8059140    -2.1013880    -0.1265130
  H       -0.3930520     2.0121160    -1.0836700
  H       -2.3417080     0.9766970    -0.3400740
  H        2.3997000     0.9352960    -0.9928030
  H       -1.9956420    -1.6762600    -1.2784950
units angstrom
no_reorient  #important for SAPT in psi4, default
symmetry c1  #important for SAPT in psi4, default
}

set PROPERTIES_ORIGIN ["COM"]
properties('MP2/aug-cc-pvtz', properties = ['dipole'])
--------------------------------------------------------------------------

    Molecular point group: c1
  Charge       = 0
  Multiplicity = 1
  Basis Set: AUG-CC-PVTZ
    Blend: AUG-CC-PVTZ
  Basis Set: (AUG-CC-PVTZ AUX)
    Blend: AUG-CC-PVTZ-JKFIT

    Orbital Energies [Eh]
    ---------------------

    Doubly Occupied:

       1A    -20.597301     2A    -20.589252     3A    -20.581783
       4A    -20.566816     5A    -20.556785     6A    -11.349267
       7A    -11.305374     8A    -11.283698     9A    -11.282993
      10A    -11.275290    11A     -1.486921    12A     -1.426038
      13A     -1.382941    14A     -1.357093    15A     -1.347129
      16A     -1.039777    17A     -1.005952    18A     -0.888976
      19A     -0.877953    20A     -0.808214    21A     -0.759921
      22A     -0.725266    23A     -0.723692    24A     -0.710340
      25A     -0.681278    26A     -0.653285    27A     -0.641454
      28A     -0.618523    29A     -0.604392    30A     -0.588854
      31A     -0.571762    32A     -0.562678    33A     -0.545500
      34A     -0.512274    35A     -0.499980    36A     -0.487949
      37A     -0.470165    38A     -0.460668    39A     -0.421653
      40A     -0.391109

  @DF-RHF Final Energy:  -569.62886957370279

   => Energetics <=

    Nuclear Repulsion Energy =            633.6824684911675831
    One-Electron Energy =               -2041.3420880368241797
    Two-Electron Energy =                 838.0307499719538100
    Total Energy =                       -569.6288695737027865
  Basis Set: (AUG-CC-PVTZ AUX)
    Blend: AUG-CC-PVTZ-RI
    Molecular point group: c1

    Geometry (in Angstrom), charge = 0, multiplicity = 1:

       Center              X                  Y                   Z               Mass
    ------------   -----------------  -----------------  -----------------  -----------------
         O           -0.103047372093    -1.810348180651     0.459031516805    15.994914619570
         O            0.370151627907     1.383928819349    -1.020519483195    15.994914619570
         O           -1.943433372093     1.361270819349     0.473241516805    15.994914619570
         O            2.726537627907     0.440523819349    -0.201508483195    15.994914619570
         O           -1.659908372093    -0.810281180651    -0.994326483195    15.994914619570
         C            0.443313627907     1.003496819349     0.353905516805    12.000000000000
         C           -1.044194972093     0.589952919349     0.792229916805    12.000000000000
         C            1.546232627907    -0.038949180651     0.424561516805    12.000000000000
         C           -1.203420372093    -0.946497180651     0.343876516805    12.000000000000
         C            1.066692627907    -1.326755180651    -0.224492483195    12.000000000000
         H            0.715978627907     1.877397819349     0.964746516805     1.007825032230
         H           -0.870160372093     0.422214819349     1.939495516805     1.007825032230
         H            1.795498627907    -0.241686180651     1.472198516805     1.007825032230
         H           -1.982229372093    -1.406919180651     0.965930516805     1.007825032230
         H            0.855324627907    -1.157591180651    -1.285809483195     1.007825032230
         H            1.817636627907    -2.111443180651    -0.122354483195     1.007825032230
         H           -0.381329372093     2.002060819349    -1.079511483195     1.007825032230
         H           -2.329985372093     0.966641819349    -0.335915483195     1.007825032230
         H            2.411422627907     0.925240819349    -0.988644483195     1.007825032230
         H           -1.983919372093    -1.686315180651    -1.274336483195     1.007825032230

  Basis Set: AUG-CC-PVTZ
    Blend: AUG-CC-PVTZ
  Basis Set: (AUG-CC-PVTZ AUX)
    Blend: AUG-CC-PVTZ-JKFIT
	 Reference Energy          =    -569.6288695737027865 [Eh]
	 Singles Energy            =      -0.0000000000000000 [Eh]
	 Same-Spin Energy          =      -0.5557374317999448 [Eh]
	 Opposite-Spin Energy      =      -1.7038104036170973 [Eh]
	 Correlation Energy        =      -2.2595478354170422 [Eh]
	 Total Energy              =    -571.8884174091198247 [Eh]

	 ================> DF-SCS-MP2 Energies <==================
	-----------------------------------------------------------
	 SCS Same-Spin Scale       =       0.3333333333333333 [-]
	 SCS Opposite-Spin Scale   =       1.2000000000000000 [-]
	 SCS Same-Spin Energy      =      -0.1852458105999816 [Eh]
	 SCS Opposite-Spin Energy  =      -2.0445724843405166 [Eh]
	 SCS Correlation Energy    =      -2.2298182949404981 [Eh]
	 SCS Total Energy          =    -571.8586878686433010 [Eh]
	-----------------------------------------------------------

  Dipole Moment: [D]
     X:    -2.7836      Y:    -0.6118      Z:    -0.5348     Total:     2.8997

*** Psi4 exiting successfully. Buy a developer a beer!
