                               Psi4 1.4a3.dev225

  ==> Input File <==

--------------------------------------------------------------------------
#psi4
#
memory 32 gb

molecule  {
0 1
  O       -0.2343850     1.7978400    -0.4145210
  O        0.4791390    -1.3900560     0.9851260
  O       -1.8902550    -1.4798720    -0.4079610
  O        2.7489250    -0.2990660     0.0843650
  O       -1.6766260     0.6849030     1.0797040
  C        0.4758930    -0.9871420    -0.3839460
  C       -0.9153110    -0.5160320    -0.8112700
  C        1.5148540     0.1205520    -0.4811210
  C       -1.2738297     0.8731304    -0.2915800
  C        0.9914930     1.3693070     0.2124490
  H        0.7732420    -1.8350180    -1.0199460
  H       -0.9367810    -0.4539690    -1.9062570
  H        1.7061480     0.3550680    -1.5342930
  H       -2.1075740     1.2945610    -0.8542440
  H        0.8333730     1.1741050     1.2776920
  H        1.6908660     2.1982840     0.0933200
  H       -0.2684360    -2.0097880     1.0741120
  H       -2.2907410    -1.1048270     0.4011470
  H        2.5001980    -0.8049050     0.8819700
  H       -2.0397460     1.5332780     1.3914430
units angstrom
no_reorient  #important for SAPT in psi4, default
symmetry c1  #important for SAPT in psi4, default
}

set PROPERTIES_ORIGIN ["COM"]
properties('MP2/aug-cc-pvtz', properties = ['dipole'])
--------------------------------------------------------------------------

    Molecular point group: c1
  Charge       = 0
  Multiplicity = 1
  Basis Set: AUG-CC-PVTZ
    Blend: AUG-CC-PVTZ
  Basis Set: (AUG-CC-PVTZ AUX)
    Blend: AUG-CC-PVTZ-JKFIT

    Orbital Energies [Eh]
    ---------------------

    Doubly Occupied:

       1A    -20.588369     2A    -20.582777     3A    -20.575506
       4A    -20.570044     5A    -20.559083     6A    -11.355136
       7A    -11.299933     8A    -11.291661     9A    -11.286837
      10A    -11.279768    11A     -1.436065    12A     -1.391037
      13A     -1.375397    14A     -1.350739    15A     -1.347605
      16A     -1.058881    17A     -1.024693    18A     -0.899095
      19A     -0.871222    20A     -0.797105    21A     -0.751263
      22A     -0.726293    23A     -0.712770    24A     -0.694905
      25A     -0.667452    26A     -0.647261    27A     -0.620118
      28A     -0.615715    29A     -0.601194    30A     -0.584317
      31A     -0.571192    32A     -0.557106    33A     -0.542831
      34A     -0.516012    35A     -0.503375    36A     -0.491681
      37A     -0.486794    38A     -0.471353    39A     -0.441733
      40A     -0.417138

  @DF-RHF Final Energy:  -569.67400130691749

   => Energetics <=

    Nuclear Repulsion Energy =            633.0547989842772267
    One-Electron Energy =               -2040.3346902230280193
    Two-Electron Energy =                 837.6058899318331896
    Total Energy =                       -569.6740013069174893
  Basis Set: (AUG-CC-PVTZ AUX)
    Blend: AUG-CC-PVTZ-RI
    Molecular point group: c1

    Geometry (in Angstrom), charge = 0, multiplicity = 1:

       Center              X                  Y                   Z               Mass
    ------------   -----------------  -----------------  -----------------  -----------------
         O           -0.235773393347     1.799900865703    -0.414244183084    15.994914619570
         O            0.477750606653    -1.387995134297     0.985402816916    15.994914619570
         O           -1.891643393347    -1.477811134297    -0.407684183084    15.994914619570
         O            2.747536606653    -0.297005134297     0.084641816916    15.994914619570
         O           -1.678014393347     0.686963865703     1.079980816916    15.994914619570
         C            0.474504606653    -0.985081134297    -0.383669183084    12.000000000000
         C           -0.916699393347    -0.513971134297    -0.810993183084    12.000000000000
         C            1.513465606653     0.122612865703    -0.480844183084    12.000000000000
         C           -1.275218093347     0.875191265703    -0.291303183084    12.000000000000
         C            0.990104606653     1.371367865703     0.212725816916    12.000000000000
         H            0.771853606653    -1.832957134297    -1.019669183084     1.007825032230
         H           -0.938169393347    -0.451908134297    -1.905980183084     1.007825032230
         H            1.704759606653     0.357128865703    -1.534016183084     1.007825032230
         H           -2.108962393347     1.296621865703    -0.853967183084     1.007825032230
         H            0.831984606653     1.176165865703     1.277968816916     1.007825032230
         H            1.689477606653     2.200344865703     0.093596816916     1.007825032230
         H           -0.269824393347    -2.007727134297     1.074388816916     1.007825032230
         H           -2.292129393347    -1.102766134297     0.401423816916     1.007825032230
         H            2.498809606653    -0.802844134297     0.882246816916     1.007825032230
         H           -2.041134393347     1.535338865703     1.391719816916     1.007825032230

  Basis Set: AUG-CC-PVTZ
    Blend: AUG-CC-PVTZ
  Basis Set: (AUG-CC-PVTZ AUX)
    Blend: AUG-CC-PVTZ-JKFIT
	 Reference Energy          =    -569.6740013069174893 [Eh]
	 Singles Energy            =      -0.0000000000000000 [Eh]
	 Same-Spin Energy          =      -0.5545470660636214 [Eh]
	 Opposite-Spin Energy      =      -1.7041332305121875 [Eh]
	 Correlation Energy        =      -2.2586802965758088 [Eh]
	 Total Energy              =    -571.9326816034932790 [Eh]

	 ================> DF-SCS-MP2 Energies <==================
	-----------------------------------------------------------
	 SCS Same-Spin Scale       =       0.3333333333333333 [-]
	 SCS Opposite-Spin Scale   =       1.2000000000000000 [-]
	 SCS Same-Spin Energy      =      -0.1848490220212071 [Eh]
	 SCS Opposite-Spin Energy  =      -2.0449598766146249 [Eh]
	 SCS Correlation Energy    =      -2.2298088986358318 [Eh]
	 SCS Total Energy          =    -571.9038102055533273 [Eh]
	-----------------------------------------------------------

  Dipole Moment: [D]
     X:    -2.2329      Y:     0.9766      Z:     0.3165     Total:     2.4575

*** Psi4 exiting successfully. Buy a developer a beer!
