                               Psi4 1.3.2 release

  ==> Input File <==

--------------------------------------------------------------------------
#psi4
#
memory 32 gb

molecule  {
0 1
  O       -0.1147700    -1.8002930     0.4548730
  O        0.3584290     1.3939840    -1.0246780
  O       -1.9551560     1.3713260     0.4690830
  O        2.7023773     0.4527193    -0.2269861
  O       -1.6716310    -0.8002260    -0.9984850
  C        0.4315910     1.0135520     0.3497470
  C       -0.9093320     0.4742750     0.8400700
  C        1.5345100    -0.0288940     0.4204030
  C       -1.2151430    -0.9364420     0.3397180
  C        1.0549700    -1.3167000    -0.2286510
  H        0.7042560     1.8874530     0.9605880
  H       -0.8818830     0.4322700     1.9353370
  H        1.7657524    -0.2372683     1.4710629
  H       -1.9939520    -1.3968640     0.9617720
  H        0.8436020    -1.1475360    -1.2899680
  H        1.8059140    -2.1013880    -0.1265130
  H       -0.3930520     2.0121160    -1.0836700
  H       -2.3417080     0.9766970    -0.3400740
  H        2.3997000     0.9352960    -0.9928030
  H       -1.9956420    -1.6762600    -1.2784950
units angstrom
no_reorient  #important for SAPT in psi4, default
symmetry c1  #important for SAPT in psi4, default
}

set PROPERTIES_ORIGIN ["COM"]
properties('MP2/aug-cc-pvtz', properties = ['dipole'])
--------------------------------------------------------------------------

    Molecular point group: c1
  Charge       = 0
  Multiplicity = 1
  Basis Set: AUG-CC-PVTZ
    Blend: AUG-CC-PVTZ
  Basis Set: (AUG-CC-PVTZ AUX)
    Blend: AUG-CC-PVTZ-JKFIT

    Orbital Energies [Eh]
    ---------------------

    Doubly Occupied:

       1A    -20.591458     2A    -20.580576     3A    -20.574478
       4A    -20.570693     5A    -20.556066     6A    -11.353757
       7A    -11.298234     8A    -11.290801     9A    -11.286341
      10A    -11.277883    11A     -1.438625    12A     -1.392091
      13A     -1.376740    14A     -1.354337    15A     -1.349203
      16A     -1.059759    17A     -1.023385    18A     -0.898648
      19A     -0.871004    20A     -0.799006    21A     -0.752056
      22A     -0.727796    23A     -0.712045    24A     -0.696473
      25A     -0.671922    26A     -0.648052    27A     -0.620759
      28A     -0.613951    29A     -0.602815    30A     -0.586348
      31A     -0.571343    32A     -0.556123    33A     -0.543068
      34A     -0.516266    35A     -0.502531    36A     -0.490816
      37A     -0.487444    38A     -0.471341    39A     -0.440618
      40A     -0.415721

  @DF-RHF Final Energy:  -569.67550497703246

   => Energetics <=

    Nuclear Repulsion Energy =            634.1804008043804970
    One-Electron Energy =               -2042.5706669108349161
    Two-Electron Energy =                 838.7147611294219587
    Total Energy =                       -569.6755049770324604
  Basis Set: (AUG-CC-PVTZ AUX)
    Blend: AUG-CC-PVTZ-RI
    Molecular point group: c1

    Geometry (in Angstrom), charge = 0, multiplicity = 1:

       Center              X                  Y                   Z               Mass
    ------------   -----------------  -----------------  -----------------  -----------------
         O           -0.113323237486    -1.800483356634     0.457125304289    15.994914619570
         O            0.359875762514     1.393793643366    -1.022425695711    15.994914619570
         O           -1.953709237486     1.371135643366     0.471335304289    15.994914619570
         O            2.703824062514     0.452528943366    -0.224733795711    15.994914619570
         O           -1.670184237486    -0.800416356634    -0.996232695711    15.994914619570
         C            0.433037762514     1.013361643366     0.351999304289    12.000000000000
         C           -0.907885237486     0.474084643366     0.842322304289    12.000000000000
         C            1.535956762514    -0.029084356634     0.422655304289    12.000000000000
         C           -1.213696237486    -0.936632356634     0.341970304289    12.000000000000
         C            1.056416762514    -1.316890356634    -0.226398695711    12.000000000000
         H            0.705702762514     1.887262643366     0.962840304289     1.007825032230
         H           -0.880436237486     0.432079643366     1.937589304289     1.007825032230
         H            1.767199162514    -0.237458656634     1.473315204289     1.007825032230
         H           -1.992505237486    -1.397054356634     0.964024304289     1.007825032230
         H            0.845048762514    -1.147726356634    -1.287715695711     1.007825032230
         H            1.807360762514    -2.101578356634    -0.124260695711     1.007825032230
         H           -0.391605237486     2.011925643366    -1.081417695711     1.007825032230
         H           -2.340261237486     0.976506643366    -0.337821695711     1.007825032230
         H            2.401146762514     0.935105643366    -0.990550695711     1.007825032230
         H           -1.994195237486    -1.676450356634    -1.276242695711     1.007825032230

  Basis Set: AUG-CC-PVTZ
    Blend: AUG-CC-PVTZ
  Basis Set: (AUG-CC-PVTZ AUX)
    Blend: AUG-CC-PVTZ-JKFIT
	 Reference Energy          =    -569.6755049770324604 [Eh]
	 Singles Energy            =      -0.0000000000000000 [Eh]
	 Same-Spin Energy          =      -0.5543177138459585 [Eh]
	 Opposite-Spin Energy      =      -1.7031524517119196 [Eh]
	 Correlation Energy        =      -2.2574701655578782 [Eh]
	 Total Energy              =    -571.9329751425902941 [Eh]

	 ================> DF-SCS-MP2 Energies <==================
	-----------------------------------------------------------
	 SCS Same-Spin Scale       =       0.3333333333333333 [-]
	 SCS Opposite-Spin Scale   =       1.2000000000000000 [-]
	 SCS Same-Spin Energy      =      -0.1847725712819862 [Eh]
	 SCS Opposite-Spin Energy  =      -2.0437829420543037 [Eh]
	 SCS Correlation Energy    =      -2.2285555133362900 [Eh]
	 SCS Total Energy          =    -571.9040604903688063 [Eh]
	-----------------------------------------------------------

  Dipole Moment: [D]
     X:    -2.1633      Y:    -0.9959      Z:    -0.2639     Total:     2.3961

*** Psi4 exiting successfully. Buy a developer a beer!
