                               Psi4 1.4a3.dev225

  ==> Input File <==

--------------------------------------------------------------------------
#psi4
#
memory 32 gb

molecule  {
0 1
  O       -0.2343850     1.7978400    -0.4145210
  O        0.4791390    -1.3900560     0.9851260
  O       -1.8902550    -1.4798720    -0.4079610
  O        2.7489250    -0.2990660     0.0843650
  O       -1.6766260     0.6849030     1.0797040
  C        0.4758930    -0.9871420    -0.3839460
  C       -0.9153110    -0.5160320    -0.8112700
  C        1.5148540     0.1205520    -0.4811210
  C       -1.2746629     0.8524112    -0.2795904
  C        0.9914930     1.3693070     0.2124490
  H        0.7732420    -1.8350180    -1.0199460
  H       -0.9367810    -0.4539690    -1.9062570
  H        1.7061480     0.3550680    -1.5342930
  H       -2.1075740     1.2945610    -0.8542440
  H        0.8333730     1.1741050     1.2776920
  H        1.6908660     2.1982840     0.0933200
  H       -0.2684360    -2.0097880     1.0741120
  H       -2.2907410    -1.1048270     0.4011470
  H        2.5001980    -0.8049050     0.8819700
  H       -2.0397460     1.5332780     1.3914430
units angstrom
no_reorient  #important for SAPT in psi4, default
symmetry c1  #important for SAPT in psi4, default
}

set PROPERTIES_ORIGIN ["COM"]
properties('MP2/aug-cc-pvtz', properties = ['dipole'])
--------------------------------------------------------------------------

    Molecular point group: c1
  Charge       = 0
  Multiplicity = 1
  Basis Set: AUG-CC-PVTZ
    Blend: AUG-CC-PVTZ
  Basis Set: (AUG-CC-PVTZ AUX)
    Blend: AUG-CC-PVTZ-JKFIT

    Orbital Energies [Eh]
    ---------------------

    Doubly Occupied:

       1A    -20.590791     2A    -20.581071     3A    -20.576174
       4A    -20.570504     5A    -20.558767     6A    -11.355492
       7A    -11.300213     8A    -11.291836     9A    -11.286419
      10A    -11.278331    11A     -1.436077    12A     -1.391066
      13A     -1.375548    14A     -1.352038    15A     -1.347784
      16A     -1.059838    17A     -1.024093    18A     -0.900267
      19A     -0.869730    20A     -0.798312    21A     -0.751654
      22A     -0.727189    23A     -0.711350    24A     -0.696086
      25A     -0.667987    26A     -0.647607    27A     -0.619542
      28A     -0.614597    29A     -0.602022    30A     -0.583982
      31A     -0.571051    32A     -0.557820    33A     -0.543223
      34A     -0.516411    35A     -0.501454    36A     -0.492653
      37A     -0.487767    38A     -0.470715    39A     -0.441353
      40A     -0.417549

  @DF-RHF Final Energy:  -569.67361965861016

   => Energetics <=

    Nuclear Repulsion Energy =            633.3264876313435252
    One-Electron Energy =               -2040.8674919586528631
    Two-Electron Energy =                 837.8673846686991737
    Total Energy =                       -569.6736196586101642
  Basis Set: (AUG-CC-PVTZ AUX)
    Blend: AUG-CC-PVTZ-RI
    Molecular point group: c1

    Geometry (in Angstrom), charge = 0, multiplicity = 1:

       Center              X                  Y                   Z               Mass
    ------------   -----------------  -----------------  -----------------  -----------------
         O           -0.235706760812     1.801557818197    -0.415203013426    15.994914619570
         O            0.477817239188    -1.386338181803     0.984443986574    15.994914619570
         O           -1.891576760812    -1.476154181803    -0.408643013426    15.994914619570
         O            2.747603239188    -0.295348181803     0.083682986574    15.994914619570
         O           -1.677947760812     0.688620818197     1.079021986574    15.994914619570
         C            0.474571239188    -0.983424181803    -0.384628013426    12.000000000000
         C           -0.916632760812    -0.512314181803    -0.811952013426    12.000000000000
         C            1.513532239188     0.124269818197    -0.481803013426    12.000000000000
         C           -1.275984660812     0.856129018197    -0.280272413426    12.000000000000
         C            0.990171239188     1.373024818197     0.211766986574    12.000000000000
         H            0.771920239188    -1.831300181803    -1.020628013426     1.007825032230
         H           -0.938102760812    -0.450251181803    -1.906939013426     1.007825032230
         H            1.704826239188     0.358785818197    -1.534975013426     1.007825032230
         H           -2.108895760812     1.298278818197    -0.854926013426     1.007825032230
         H            0.832051239188     1.177822818197     1.277009986574     1.007825032230
         H            1.689544239188     2.202001818197     0.092637986574     1.007825032230
         H           -0.269757760812    -2.006070181803     1.073429986574     1.007825032230
         H           -2.292062760812    -1.101109181803     0.400464986574     1.007825032230
         H            2.498876239188    -0.801187181803     0.881287986574     1.007825032230
         H           -2.041067760812     1.536995818197     1.390760986574     1.007825032230

  Basis Set: AUG-CC-PVTZ
    Blend: AUG-CC-PVTZ
  Basis Set: (AUG-CC-PVTZ AUX)
    Blend: AUG-CC-PVTZ-JKFIT
	 Reference Energy          =    -569.6736196586101642 [Eh]
	 Singles Energy            =      -0.0000000000000000 [Eh]
	 Same-Spin Energy          =      -0.5546667450552039 [Eh]
	 Opposite-Spin Energy      =      -1.7043021019917455 [Eh]
	 Correlation Energy        =      -2.2589688470469493 [Eh]
	 Total Energy              =    -571.9325885056571224 [Eh]

	 ================> DF-SCS-MP2 Energies <==================
	-----------------------------------------------------------
	 SCS Same-Spin Scale       =       0.3333333333333333 [-]
	 SCS Opposite-Spin Scale   =       1.2000000000000000 [-]
	 SCS Same-Spin Energy      =      -0.1848889150184013 [Eh]
	 SCS Opposite-Spin Energy  =      -2.0451625223900947 [Eh]
	 SCS Correlation Energy    =      -2.2300514374084961 [Eh]
	 SCS Total Energy          =    -571.9036710960186838 [Eh]
	-----------------------------------------------------------

  Dipole Moment: [D]
     X:    -2.2858      Y:     0.9146      Z:     0.3673     Total:     2.4892

*** Psi4 exiting successfully. Buy a developer a beer!
