                               Psi4 1.3.2 release

  ==> Input File <==

--------------------------------------------------------------------------
#psi4
#
memory 32 gb

molecule  {
0 1
  O       -0.0743454    -1.8024465     0.5183804
  O        0.3584290     1.3939840    -1.0246780
  O       -1.9551560     1.3713260     0.4690830
  O        2.7148150     0.4505790    -0.2056670
  O       -1.6716310    -0.8002260    -0.9984850
  C        0.4315910     1.0135520     0.3497470
  C       -0.9093320     0.4742750     0.8400700
  C        1.5345100    -0.0288940     0.4204030
  C       -1.2151430    -0.9364420     0.3397180
  C        1.0549700    -1.3167000    -0.2286510
  H        0.7042560     1.8874530     0.9605880
  H       -0.8818830     0.4322700     1.9353370
  H        1.7837760    -0.2316310     1.4680400
  H       -1.9939520    -1.3968640     0.9617720
  H        0.8979667    -1.1305175    -1.2965334
  H        1.8059140    -2.1013880    -0.1265130
  H       -0.3930520     2.0121160    -1.0836700
  H       -2.3417080     0.9766970    -0.3400740
  H        2.3997000     0.9352960    -0.9928030
  H       -1.9956420    -1.6762600    -1.2784950
units angstrom
no_reorient  #important for SAPT in psi4, default
symmetry c1  #important for SAPT in psi4, default
}

set PROPERTIES_ORIGIN ["COM"]
properties('MP2/aug-cc-pvtz', properties = ['dipole'])
--------------------------------------------------------------------------

    Molecular point group: c1
  Charge       = 0
  Multiplicity = 1
  Basis Set: AUG-CC-PVTZ
    Blend: AUG-CC-PVTZ
  Basis Set: (AUG-CC-PVTZ AUX)
    Blend: AUG-CC-PVTZ-JKFIT

    Orbital Energies [Eh]
    ---------------------

    Doubly Occupied:

       1A    -20.597991     2A    -20.583886     3A    -20.575182
       4A    -20.571223     5A    -20.556624     6A    -11.357736
       7A    -11.299035     8A    -11.290582     9A    -11.283157
      10A    -11.276429    11A     -1.433714    12A     -1.390529
      13A     -1.374795    14A     -1.355146    15A     -1.346920
      16A     -1.058132    17A     -1.020453    18A     -0.899942
      19A     -0.866253    20A     -0.798297    21A     -0.754105
      22A     -0.727838    23A     -0.707576    24A     -0.695783
      25A     -0.669088    26A     -0.645979    27A     -0.621925
      28A     -0.611397    29A     -0.601916    30A     -0.582797
      31A     -0.570423    32A     -0.554922    33A     -0.541948
      34A     -0.516605    35A     -0.503906    36A     -0.492150
      37A     -0.488549    38A     -0.472939    39A     -0.440266
      40A     -0.414646

  @DF-RHF Final Energy:  -569.66910655130141

   => Energetics <=

    Nuclear Repulsion Energy =            632.8224716984962015
    One-Electron Energy =               -2039.8815852850332249
    Two-Electron Energy =                 837.3900070352356124
    Total Energy =                       -569.6691065513014109
  Basis Set: (AUG-CC-PVTZ AUX)
    Blend: AUG-CC-PVTZ-RI
    Molecular point group: c1

    Geometry (in Angstrom), charge = 0, multiplicity = 1:

       Center              X                  Y                   Z               Mass
    ------------   -----------------  -----------------  -----------------  -----------------
         O           -0.079019700022    -1.802331325015     0.511655003867    15.994914619570
         O            0.353754699978     1.394099174985    -1.031403396133    15.994914619570
         O           -1.959830300022     1.371441174985     0.462357603867    15.994914619570
         O            2.710140699978     0.450694174985    -0.212392396133    15.994914619570
         O           -1.676305300022    -0.800110825015    -1.005210396133    15.994914619570
         C            0.426916699978     1.013667174985     0.343021603867    12.000000000000
         C           -0.914006300022     0.474390174985     0.833344603867    12.000000000000
         C            1.529835699978    -0.028778825015     0.413677603867    12.000000000000
         C           -1.219817300022    -0.936326825015     0.332992603867    12.000000000000
         C            1.050295699978    -1.316584825015    -0.235376396133    12.000000000000
         H            0.699581699978     1.887568174985     0.953862603867     1.007825032230
         H           -0.886557300022     0.432385174985     1.928611603867     1.007825032230
         H            1.779101699978    -0.231515825015     1.461314603867     1.007825032230
         H           -1.998626300022    -1.396748825015     0.955046603867     1.007825032230
         H            0.893292399978    -1.130402325015    -1.303258796133     1.007825032230
         H            1.801239699978    -2.101272825015    -0.133238396133     1.007825032230
         H           -0.397726300022     2.012231174985    -1.090395396133     1.007825032230
         H           -2.346382300022     0.976812174985    -0.346799396133     1.007825032230
         H            2.395025699978     0.935411174985    -0.999528396133     1.007825032230
         H           -2.000316300022    -1.676144825015    -1.285220396133     1.007825032230

  Basis Set: AUG-CC-PVTZ
    Blend: AUG-CC-PVTZ
  Basis Set: (AUG-CC-PVTZ AUX)
    Blend: AUG-CC-PVTZ-JKFIT
	 Reference Energy          =    -569.6691065513014109 [Eh]
	 Singles Energy            =      -0.0000000000000000 [Eh]
	 Same-Spin Energy          =      -0.5551732890929544 [Eh]
	 Opposite-Spin Energy      =      -1.7056742801283613 [Eh]
	 Correlation Energy        =      -2.2608475692213155 [Eh]
	 Total Energy              =    -571.9299541205227797 [Eh]

	 ================> DF-SCS-MP2 Energies <==================
	-----------------------------------------------------------
	 SCS Same-Spin Scale       =       0.3333333333333333 [-]
	 SCS Opposite-Spin Scale   =       1.2000000000000000 [-]
	 SCS Same-Spin Energy      =      -0.1850577630309848 [Eh]
	 SCS Opposite-Spin Energy  =      -2.0468091361540335 [Eh]
	 SCS Correlation Energy    =      -2.2318668991850181 [Eh]
	 SCS Total Energy          =    -571.9009734504863900 [Eh]
	-----------------------------------------------------------

  Dipole Moment: [D]
     X:    -2.3627      Y:    -0.9869      Z:    -0.4386     Total:     2.5978

*** Psi4 exiting successfully. Buy a developer a beer!
