                               Psi4 1.3.2 release

  ==> Input File <==

--------------------------------------------------------------------------
#psi4
#
memory 32 gb

molecule  {
0 1
  O       -0.1147700    -1.8002930     0.4548730
  O        0.3584290     1.3939840    -1.0246780
  O       -1.9551560     1.3713260     0.4690830
  O        2.7148150     0.4505790    -0.2056670
  O       -1.6716310    -0.8002260    -0.9984850
  C        0.4315910     1.0135520     0.3497470
  C       -0.8214722     0.5096094     0.8079431
  C        1.5345100    -0.0288940     0.4204030
  C       -1.2151430    -0.9364420     0.3397180
  C        1.0549700    -1.3167000    -0.2286510
  H        0.7042560     1.8874530     0.9605880
  H       -0.8818830     0.4322700     1.9353370
  H        1.7837760    -0.2316310     1.4680400
  H       -1.9939520    -1.3968640     0.9617720
  H        0.8436020    -1.1475360    -1.2899680
  H        1.8059140    -2.1013880    -0.1265130
  H       -0.3930520     2.0121160    -1.0836700
  H       -2.3417080     0.9766970    -0.3400740
  H        2.3997000     0.9352960    -0.9928030
  H       -1.9956420    -1.6762600    -1.2784950
units angstrom
no_reorient  #important for SAPT in psi4, default
symmetry c1  #important for SAPT in psi4, default
}

set PROPERTIES_ORIGIN ["COM"]
properties('MP2/aug-cc-pvtz', properties = ['dipole'])
--------------------------------------------------------------------------

    Molecular point group: c1
  Charge       = 0
  Multiplicity = 1
  Basis Set: AUG-CC-PVTZ
    Blend: AUG-CC-PVTZ
  Basis Set: (AUG-CC-PVTZ AUX)
    Blend: AUG-CC-PVTZ-JKFIT

    Orbital Energies [Eh]
    ---------------------

    Doubly Occupied:

       1A    -20.590516     2A    -20.579393     3A    -20.572872
       4A    -20.570348     5A    -20.560487     6A    -11.356522
       7A    -11.300402     8A    -11.289487     9A    -11.288684
      10A    -11.279349    11A     -1.437337    12A     -1.393383
      13A     -1.370029    14A     -1.352618    15A     -1.344595
      16A     -1.075492    17A     -1.019959    18A     -0.898803
      19A     -0.873887    20A     -0.796755    21A     -0.751068
      22A     -0.731692    23A     -0.711310    24A     -0.694118
      25A     -0.674942    26A     -0.644178    27A     -0.622463
      28A     -0.616375    29A     -0.601201    30A     -0.579856
      31A     -0.571617    32A     -0.554321    33A     -0.540265
      34A     -0.511271    35A     -0.502038    36A     -0.490438
      37A     -0.484385    38A     -0.470664    39A     -0.456886
      40A     -0.413818

  @DF-RHF Final Energy:  -569.66194918412691

   => Energetics <=

    Nuclear Repulsion Energy =            634.6919680628316200
    One-Electron Energy =               -2043.5601812287009125
    Two-Electron Energy =                 839.2062639817423815
    Total Energy =                       -569.6619491841269109
  Basis Set: (AUG-CC-PVTZ AUX)
    Blend: AUG-CC-PVTZ-RI
    Molecular point group: c1

    Geometry (in Angstrom), charge = 0, multiplicity = 1:

       Center              X                  Y                   Z               Mass
    ------------   -----------------  -----------------  -----------------  -----------------
         O           -0.121796401508    -1.803118830511     0.457442340443    15.994914619570
         O            0.351402598492     1.391158169489    -1.022108659557    15.994914619570
         O           -1.962182401508     1.368500169489     0.471652340443    15.994914619570
         O            2.707788598492     0.447753169489    -0.203097659557    15.994914619570
         O           -1.678657401508    -0.803051830511    -0.995915659557    15.994914619570
         C            0.424564598492     1.010726169489     0.352316340443    12.000000000000
         C           -0.828498601508     0.506783569489     0.810512440443    12.000000000000
         C            1.527483598492    -0.031719830511     0.422972340443    12.000000000000
         C           -1.222169401508    -0.939267830511     0.342287340443    12.000000000000
         C            1.047943598492    -1.319525830511    -0.226081659557    12.000000000000
         H            0.697229598492     1.884627169489     0.963157340443     1.007825032230
         H           -0.888909401508     0.429444169489     1.937906340443     1.007825032230
         H            1.776749598492    -0.234456830511     1.470609340443     1.007825032230
         H           -2.000978401508    -1.399689830511     0.964341340443     1.007825032230
         H            0.836575598492    -1.150361830511    -1.287398659557     1.007825032230
         H            1.798887598492    -2.104213830511    -0.123943659557     1.007825032230
         H           -0.400078401508     2.009290169489    -1.081100659557     1.007825032230
         H           -2.348734401508     0.973871169489    -0.337504659557     1.007825032230
         H            2.392673598492     0.932470169489    -0.990233659557     1.007825032230
         H           -2.002668401508    -1.679085830511    -1.275925659557     1.007825032230

  Basis Set: AUG-CC-PVTZ
    Blend: AUG-CC-PVTZ
  Basis Set: (AUG-CC-PVTZ AUX)
    Blend: AUG-CC-PVTZ-JKFIT
	 Reference Energy          =    -569.6619491841269109 [Eh]
	 Singles Energy            =      -0.0000000000000000 [Eh]
	 Same-Spin Energy          =      -0.5555658466067458 [Eh]
	 Opposite-Spin Energy      =      -1.7057176920594548 [Eh]
	 Correlation Energy        =      -2.2612835386662007 [Eh]
	 Total Energy              =    -571.9232327227931592 [Eh]

	 ================> DF-SCS-MP2 Energies <==================
	-----------------------------------------------------------
	 SCS Same-Spin Scale       =       0.3333333333333333 [-]
	 SCS Opposite-Spin Scale   =       1.2000000000000000 [-]
	 SCS Same-Spin Energy      =      -0.1851886155355819 [Eh]
	 SCS Opposite-Spin Energy  =      -2.0468612304713458 [Eh]
	 SCS Correlation Energy    =      -2.2320498460069276 [Eh]
	 SCS Total Energy          =    -571.8939990301338412 [Eh]
	-----------------------------------------------------------

  Dipole Moment: [D]
     X:    -1.9902      Y:    -1.0468      Z:    -0.3182     Total:     2.2711

*** Psi4 exiting successfully. Buy a developer a beer!
