                               Psi4 1.3.2 release

  ==> Input File <==

--------------------------------------------------------------------------
#psi4
#
memory 32 gb

molecule  {
0 1
  O       -0.1147700    -1.8002930     0.4548730
  O        0.3584290     1.3939840    -1.0246780
  O       -1.9551560     1.3713260     0.4690830
  O        2.7148150     0.4505790    -0.2056670
  O       -1.6716310    -0.8002260    -0.9984850
  C        0.4426826     0.9446598     0.3108199
  C       -0.9093320     0.4742750     0.8400700
  C        1.5345100    -0.0288940     0.4204030
  C       -1.1451088    -0.9356569     0.3010928
  C        1.0549700    -1.3167000    -0.2286510
  H        0.7042560     1.8874530     0.9605880
  H       -0.8818830     0.4322700     1.9353370
  H        1.7837760    -0.2316310     1.4680400
  H       -1.9939520    -1.3968640     0.9617720
  H        0.8436020    -1.1475360    -1.2899680
  H        1.8059140    -2.1013880    -0.1265130
  H       -0.3930520     2.0121160    -1.0836700
  H       -2.3417080     0.9766970    -0.3400740
  H        2.3997000     0.9352960    -0.9928030
  H       -1.9956420    -1.6762600    -1.2784950
units angstrom
no_reorient  #important for SAPT in psi4, default
symmetry c1  #important for SAPT in psi4, default
}

set PROPERTIES_ORIGIN ["COM"]
properties('MP2/aug-cc-pvtz', properties = ['dipole'])
--------------------------------------------------------------------------

    Molecular point group: c1
  Charge       = 0
  Multiplicity = 1
  Basis Set: AUG-CC-PVTZ
    Blend: AUG-CC-PVTZ
  Basis Set: (AUG-CC-PVTZ AUX)
    Blend: AUG-CC-PVTZ-JKFIT

    Orbital Energies [Eh]
    ---------------------

    Doubly Occupied:

       1A    -20.591121     2A    -20.589899     3A    -20.577078
       4A    -20.572875     5A    -20.561519     6A    -11.354171
       7A    -11.298681     8A    -11.293534     9A    -11.286996
      10A    -11.281684    11A     -1.454428    12A     -1.398169
      13A     -1.382761    14A     -1.361146    15A     -1.351736
      16A     -1.070583    17A     -1.025550    18A     -0.898048
      19A     -0.870729    20A     -0.805729    21A     -0.752616
      22A     -0.727203    23A     -0.720038    24A     -0.697739
      25A     -0.677577    26A     -0.647065    27A     -0.625741
      28A     -0.619350    29A     -0.604043    30A     -0.588127
      31A     -0.569879    32A     -0.559275    33A     -0.543005
      34A     -0.522255    35A     -0.503330    36A     -0.493176
      37A     -0.482425    38A     -0.478248    39A     -0.441658
      40A     -0.402912

  @DF-RHF Final Energy:  -569.65853791474524

   => Energetics <=

    Nuclear Repulsion Energy =            636.5576091221601018
    One-Electron Energy =               -2047.0680970436092139
    Two-Electron Energy =                 840.8519500067038734
    Total Energy =                       -569.6585379147452386
  Basis Set: (AUG-CC-PVTZ AUX)
    Blend: AUG-CC-PVTZ-RI
    Molecular point group: c1

    Geometry (in Angstrom), charge = 0, multiplicity = 1:

       Center              X                  Y                   Z               Mass
    ------------   -----------------  -----------------  -----------------  -----------------
         O           -0.121257871154    -1.794846423690     0.461075093147    15.994914619570
         O            0.351941128846     1.399430576310    -1.018475906853    15.994914619570
         O           -1.961643871154     1.376772576310     0.475285093147    15.994914619570
         O            2.708327128846     0.456025576310    -0.199464906853    15.994914619570
         O           -1.678118871154    -0.794779423690    -0.992282906853    15.994914619570
         C            0.436194728846     0.950106376310     0.317021993147    12.000000000000
         C           -0.915819871154     0.479721576310     0.846272093147    12.000000000000
         C            1.528022128846    -0.023447423690     0.426605093147    12.000000000000
         C           -1.151596671154    -0.930210323690     0.307294893147    12.000000000000
         C            1.048482128846    -1.311253423690    -0.222448906853    12.000000000000
         H            0.697768128846     1.892899576310     0.966790093147     1.007825032230
         H           -0.888370871154     0.437716576310     1.941539093147     1.007825032230
         H            1.777288128846    -0.226184423690     1.474242093147     1.007825032230
         H           -2.000439871154    -1.391417423690     0.967974093147     1.007825032230
         H            0.837114128846    -1.142089423690    -1.283765906853     1.007825032230
         H            1.799426128846    -2.095941423690    -0.120310906853     1.007825032230
         H           -0.399539871154     2.017562576310    -1.077467906853     1.007825032230
         H           -2.348195871154     0.982143576310    -0.333871906853     1.007825032230
         H            2.393212128846     0.940742576310    -0.986600906853     1.007825032230
         H           -2.002129871154    -1.670813423690    -1.272292906853     1.007825032230

  Basis Set: AUG-CC-PVTZ
    Blend: AUG-CC-PVTZ
  Basis Set: (AUG-CC-PVTZ AUX)
    Blend: AUG-CC-PVTZ-JKFIT
	 Reference Energy          =    -569.6585379147452386 [Eh]
	 Singles Energy            =      -0.0000000000000000 [Eh]
	 Same-Spin Energy          =      -0.5557656356942677 [Eh]
	 Opposite-Spin Energy      =      -1.7045732388777346 [Eh]
	 Correlation Energy        =      -2.2603388745720023 [Eh]
	 Total Energy              =    -571.9188767893172098 [Eh]

	 ================> DF-SCS-MP2 Energies <==================
	-----------------------------------------------------------
	 SCS Same-Spin Scale       =       0.3333333333333333 [-]
	 SCS Opposite-Spin Scale   =       1.2000000000000000 [-]
	 SCS Same-Spin Energy      =      -0.1852552118980892 [Eh]
	 SCS Opposite-Spin Energy  =      -2.0454878866532815 [Eh]
	 SCS Correlation Energy    =      -2.2307430985513710 [Eh]
	 SCS Total Energy          =    -571.8892810132965678 [Eh]
	-----------------------------------------------------------

  Dipole Moment: [D]
     X:    -1.9425      Y:    -1.1269      Z:    -0.4869     Total:     2.2979

*** Psi4 exiting successfully. Buy a developer a beer!
