                               Psi4 1.3.2 release

  ==> Input File <==

--------------------------------------------------------------------------
#psi4
#
memory 32 gb

molecule  {
0 1
  O       -0.1147700    -1.8002930     0.4548730
  O        0.3584290     1.3939840    -1.0246780
  O       -1.9551560     1.3713260     0.4690830
  O        2.7148150     0.4505790    -0.2056670
  O       -1.6716310    -0.8002260    -0.9984850
  C        0.4315910     1.0135520     0.3497470
  C       -0.9826248     0.5371416     0.8140707
  C        1.5345100    -0.0288940     0.4204030
  C       -1.2151430    -0.9364420     0.3397180
  C        1.0549700    -1.3167000    -0.2286510
  H        0.7042560     1.8874530     0.9605880
  H       -0.8818830     0.4322700     1.9353370
  H        1.7837760    -0.2316310     1.4680400
  H       -1.9939520    -1.3968640     0.9617720
  H        0.8436020    -1.1475360    -1.2899680
  H        1.8059140    -2.1013880    -0.1265130
  H       -0.3930520     2.0121160    -1.0836700
  H       -2.3417080     0.9766970    -0.3400740
  H        2.3997000     0.9352960    -0.9928030
  H       -1.9956420    -1.6762600    -1.2784950
units angstrom
no_reorient  #important for SAPT in psi4, default
symmetry c1  #important for SAPT in psi4, default
}

set PROPERTIES_ORIGIN ["COM"]
properties('MP2/aug-cc-pvtz', properties = ['dipole'])
--------------------------------------------------------------------------

    Molecular point group: c1
  Charge       = 0
  Multiplicity = 1
  Basis Set: AUG-CC-PVTZ
    Blend: AUG-CC-PVTZ
  Basis Set: (AUG-CC-PVTZ AUX)
    Blend: AUG-CC-PVTZ-JKFIT

    Orbital Energies [Eh]
    ---------------------

    Doubly Occupied:

       1A    -20.590256     2A    -20.585128     3A    -20.581330
       4A    -20.569022     5A    -20.557710     6A    -11.351716
       7A    -11.300155     8A    -11.287679     9A    -11.284696
      10A    -11.276790    11A     -1.444886    12A     -1.413758
      13A     -1.383593    14A     -1.356938    15A     -1.348210
      16A     -1.048402    17A     -1.015586    18A     -0.893787
      19A     -0.871652    20A     -0.800387    21A     -0.754756
      22A     -0.724315    23A     -0.715405    24A     -0.707647
      25A     -0.671870    26A     -0.649075    27A     -0.624751
      28A     -0.619803    29A     -0.604665    30A     -0.589225
      31A     -0.571822    32A     -0.554703    33A     -0.548299
      34A     -0.514667    35A     -0.501447    36A     -0.489664
      37A     -0.478533    38A     -0.470065    39A     -0.431376
      40A     -0.407425

  @DF-RHF Final Energy:  -569.66569442366040

   => Energetics <=

    Nuclear Repulsion Energy =            633.6778641343785239
    One-Electron Energy =               -2041.5047284557588227
    Two-Electron Energy =                 838.1611698977199012
    Total Energy =                       -569.6656944236603977
  Basis Set: (AUG-CC-PVTZ AUX)
    Blend: AUG-CC-PVTZ-RI
    Molecular point group: c1

    Geometry (in Angstrom), charge = 0, multiplicity = 1:

       Center              X                  Y                   Z               Mass
    ------------   -----------------  -----------------  -----------------  -----------------
         O           -0.108908731980    -1.805320631133     0.456952305012    15.994914619570
         O            0.364290268020     1.388956368867    -1.022598694988    15.994914619570
         O           -1.949294731980     1.366298368867     0.471162305012    15.994914619570
         O            2.720676268020     0.445551368867    -0.203587694988    15.994914619570
         O           -1.665769731980    -0.805253631133    -0.996405694988    15.994914619570
         C            0.437452268020     1.008524368867     0.351826305012    12.000000000000
         C           -0.976763531980     0.532113968867     0.816150005012    12.000000000000
         C            1.540371268020    -0.033921631133     0.422482305012    12.000000000000
         C           -1.209281731980    -0.941469631133     0.341797305012    12.000000000000
         C            1.060831268020    -1.321727631133    -0.226571694988    12.000000000000
         H            0.710117268020     1.882425368867     0.962667305012     1.007825032230
         H           -0.876021731980     0.427242368867     1.937416305012     1.007825032230
         H            1.789637268020    -0.236658631133     1.470119305012     1.007825032230
         H           -1.988090731980    -1.401891631133     0.963851305012     1.007825032230
         H            0.849463268020    -1.152563631133    -1.287888694988     1.007825032230
         H            1.811775268020    -2.106415631133    -0.124433694988     1.007825032230
         H           -0.387190731980     2.007088368867    -1.081590694988     1.007825032230
         H           -2.335846731980     0.971669368867    -0.337994694988     1.007825032230
         H            2.405561268020     0.930268368867    -0.990723694988     1.007825032230
         H           -1.989780731980    -1.681287631133    -1.276415694988     1.007825032230

  Basis Set: AUG-CC-PVTZ
    Blend: AUG-CC-PVTZ
  Basis Set: (AUG-CC-PVTZ AUX)
    Blend: AUG-CC-PVTZ-JKFIT
	 Reference Energy          =    -569.6656944236603977 [Eh]
	 Singles Energy            =      -0.0000000000000000 [Eh]
	 Same-Spin Energy          =      -0.5547406967239492 [Eh]
	 Opposite-Spin Energy      =      -1.7031098654716175 [Eh]
	 Correlation Energy        =      -2.2578505621955669 [Eh]
	 Total Energy              =    -571.9235449858559832 [Eh]

	 ================> DF-SCS-MP2 Energies <==================
	-----------------------------------------------------------
	 SCS Same-Spin Scale       =       0.3333333333333333 [-]
	 SCS Opposite-Spin Scale   =       1.2000000000000000 [-]
	 SCS Same-Spin Energy      =      -0.1849135655746497 [Eh]
	 SCS Opposite-Spin Energy  =      -2.0437318385659409 [Eh]
	 SCS Correlation Energy    =      -2.2286454041405905 [Eh]
	 SCS Total Energy          =    -571.8943398278009909 [Eh]
	-----------------------------------------------------------

  Dipole Moment: [D]
     X:    -2.4499      Y:    -0.8200      Z:    -0.3966     Total:     2.6137

*** Psi4 exiting successfully. Buy a developer a beer!
