                               Psi4 1.3.2 release

  ==> Input File <==

--------------------------------------------------------------------------
#psi4
#
memory 32 gb

molecule  {
0 1
  O       -0.1147700    -1.8002930     0.4548730
  O        0.3584290     1.3939840    -1.0246780
  O       -1.9551560     1.3713260     0.4690830
  O        2.7148150     0.4505790    -0.2056670
  O       -1.6716310    -0.8002260    -0.9984850
  C        0.4315910     1.0135520     0.3497470
  C       -0.9093320     0.4742750     0.8400700
  C        1.5345100    -0.0288940     0.4204030
  C       -1.2284519    -0.9519396     0.3532412
  C        1.0674930    -1.3371568    -0.2212320
  H        0.7042560     1.8874530     0.9605880
  H       -0.8818830     0.4322700     1.9353370
  H        1.7837760    -0.2316310     1.4680400
  H       -1.9939520    -1.3968640     0.9617720
  H        0.8436020    -1.1475360    -1.2899680
  H        1.8059140    -2.1013880    -0.1265130
  H       -0.3930520     2.0121160    -1.0836700
  H       -2.3417080     0.9766970    -0.3400740
  H        2.3997000     0.9352960    -0.9928030
  H       -1.9956420    -1.6762600    -1.2784950
units angstrom
no_reorient  #important for SAPT in psi4, default
symmetry c1  #important for SAPT in psi4, default
}

set PROPERTIES_ORIGIN ["COM"]
properties('MP2/aug-cc-pvtz', properties = ['dipole'])
--------------------------------------------------------------------------

    Molecular point group: c1
  Charge       = 0
  Multiplicity = 1
  Basis Set: AUG-CC-PVTZ
    Blend: AUG-CC-PVTZ
  Basis Set: (AUG-CC-PVTZ AUX)
    Blend: AUG-CC-PVTZ-JKFIT

    Orbital Energies [Eh]
    ---------------------

    Doubly Occupied:

       1A    -20.590587     2A    -20.579209     3A    -20.573968
       4A    -20.570663     5A    -20.557754     6A    -11.353889
       7A    -11.298327     8A    -11.291429     9A    -11.285695
      10A    -11.278459    11A     -1.435736    12A     -1.390700
      13A     -1.374469    14A     -1.351649    15A     -1.347170
      16A     -1.056712    17A     -1.022931    18A     -0.898040
      19A     -0.871311    20A     -0.796141    21A     -0.753348
      22A     -0.727434    23A     -0.711264    24A     -0.694744
      25A     -0.668838    26A     -0.644068    27A     -0.620722
      28A     -0.613155    29A     -0.603101    30A     -0.586254
      31A     -0.572045    32A     -0.557289    33A     -0.542018
      34A     -0.515831    35A     -0.505823    36A     -0.489276
      37A     -0.485016    38A     -0.470274    39A     -0.441470
      40A     -0.413454

  @DF-RHF Final Energy:  -569.67360893552143

   => Energetics <=

    Nuclear Repulsion Energy =            632.9263137033952944
    One-Electron Energy =               -2040.1193213501592254
    Two-Electron Energy =                 837.5193987112423883
    Total Energy =                       -569.6736089355214290
  Basis Set: (AUG-CC-PVTZ AUX)
    Blend: AUG-CC-PVTZ-RI
    Molecular point group: c1

    Geometry (in Angstrom), charge = 0, multiplicity = 1:

       Center              X                  Y                   Z               Mass
    ------------   -----------------  -----------------  -----------------  -----------------
         O           -0.114707241999    -1.797417734187     0.453198307006    15.994914619570
         O            0.358491758001     1.396859265813    -1.026352692994    15.994914619570
         O           -1.955093241999     1.374201265813     0.467408307006    15.994914619570
         O            2.714877758001     0.453454265813    -0.207341692994    15.994914619570
         O           -1.671568241999    -0.797350734187    -1.000159692994    15.994914619570
         C            0.431653758001     1.016427265813     0.348072307006    12.000000000000
         C           -0.909269241999     0.477150265813     0.838395307006    12.000000000000
         C            1.534572758001    -0.026018734187     0.418728307006    12.000000000000
         C           -1.228389141999    -0.949064334187     0.351566507006    12.000000000000
         C            1.067555758001    -1.334281534187    -0.222906692994    12.000000000000
         H            0.704318758001     1.890328265813     0.958913307006     1.007825032230
         H           -0.881820241999     0.435145265813     1.933662307006     1.007825032230
         H            1.783838758001    -0.228755734187     1.466365307006     1.007825032230
         H           -1.993889241999    -1.393988734187     0.960097307006     1.007825032230
         H            0.843664758001    -1.144660734187    -1.291642692994     1.007825032230
         H            1.805976758001    -2.098512734187    -0.128187692994     1.007825032230
         H           -0.392989241999     2.014991265813    -1.085344692994     1.007825032230
         H           -2.341645241999     0.979572265813    -0.341748692994     1.007825032230
         H            2.399762758001     0.938171265813    -0.994477692994     1.007825032230
         H           -1.995579241999    -1.673384734187    -1.280169692994     1.007825032230

  Basis Set: AUG-CC-PVTZ
    Blend: AUG-CC-PVTZ
  Basis Set: (AUG-CC-PVTZ AUX)
    Blend: AUG-CC-PVTZ-JKFIT
	 Reference Energy          =    -569.6736089355214290 [Eh]
	 Singles Energy            =      -0.0000000000000000 [Eh]
	 Same-Spin Energy          =      -0.5543445871074688 [Eh]
	 Opposite-Spin Energy      =      -1.7037018679667497 [Eh]
	 Correlation Energy        =      -2.2580464550742185 [Eh]
	 Total Energy              =    -571.9316553905956653 [Eh]

	 ================> DF-SCS-MP2 Energies <==================
	-----------------------------------------------------------
	 SCS Same-Spin Scale       =       0.3333333333333333 [-]
	 SCS Opposite-Spin Scale   =       1.2000000000000000 [-]
	 SCS Same-Spin Energy      =      -0.1847815290358229 [Eh]
	 SCS Opposite-Spin Energy  =      -2.0444422415600996 [Eh]
	 SCS Correlation Energy    =      -2.2292237705959224 [Eh]
	 SCS Total Energy          =    -571.9028327061173513 [Eh]
	-----------------------------------------------------------

  Dipole Moment: [D]
     X:    -2.1841      Y:    -1.0428      Z:    -0.2488     Total:     2.4330

*** Psi4 exiting successfully. Buy a developer a beer!
