                               Psi4 1.3.2 release

  ==> Input File <==

--------------------------------------------------------------------------
#psi4
#
memory 32 gb

molecule  {
0 1
  O       -0.1147700    -1.8002930     0.4548730
  O        0.3584290     1.3939840    -1.0246780
  O       -1.9551560     1.3713260     0.4690830
  O        2.7148150     0.4505790    -0.2056670
  O       -1.6716310    -0.8002260    -0.9984850
  C        0.4315910     1.0135520     0.3497470
  C       -0.9093320     0.4742750     0.8400700
  C        1.5345100    -0.0288940     0.4204030
  C       -1.2151430    -0.9364420     0.3397180
  C        1.0549700    -1.3167000    -0.2286510
  H        0.7042560     1.8874530     0.9605880
  H       -0.8818830     0.4322700     1.9353370
  H        1.7837760    -0.2316310     1.4680400
  H       -1.9939520    -1.3968640     0.9617720
  H        0.8436020    -1.1475360    -1.2899680
  H        1.8059140    -2.1013880    -0.1265130
  H       -0.3930520     2.0121160    -1.0836700
  H       -2.2627989     1.0572549    -0.1748960
  H        2.3997000     0.9352960    -0.9928030
  H       -1.9956420    -1.6762600    -1.2784950
units angstrom
no_reorient  #important for SAPT in psi4, default
symmetry c1  #important for SAPT in psi4, default
}

set PROPERTIES_ORIGIN ["COM"]
properties('MP2/aug-cc-pvtz', properties = ['dipole'])
--------------------------------------------------------------------------

    Molecular point group: c1
  Charge       = 0
  Multiplicity = 1
  Basis Set: AUG-CC-PVTZ
    Blend: AUG-CC-PVTZ
  Basis Set: (AUG-CC-PVTZ AUX)
    Blend: AUG-CC-PVTZ-JKFIT

    Orbital Energies [Eh]
    ---------------------

    Doubly Occupied:

       1A    -20.588391     2A    -20.581190     3A    -20.572787
       4A    -20.559158     5A    -20.558716     6A    -11.354575
       7A    -11.301566     8A    -11.292937     9A    -11.286727
      10A    -11.278589    11A     -1.453248    12A     -1.422420
      13A     -1.387004    14A     -1.357569    15A     -1.350236
      16A     -1.066911    17A     -1.027308    18A     -0.900176
      19A     -0.883015    20A     -0.805754    21A     -0.756214
      22A     -0.729691    23A     -0.720443    24A     -0.709657
      25A     -0.671859    26A     -0.653229    27A     -0.620971
      28A     -0.616887    29A     -0.606581    30A     -0.588650
      31A     -0.578275    32A     -0.558149    33A     -0.546305
      34A     -0.520320    35A     -0.501340    36A     -0.493524
      37A     -0.491005    38A     -0.472266    39A     -0.444534
      40A     -0.417454

  @DF-RHF Final Energy:  -569.63235625386437

   => Energetics <=

    Nuclear Repulsion Energy =            635.0814817956008937
    One-Electron Energy =               -2043.9764129496065834
    Two-Electron Energy =                 839.2625749001413169
    Total Energy =                       -569.6323562538643728
  Basis Set: (AUG-CC-PVTZ AUX)
    Blend: AUG-CC-PVTZ-RI
    Molecular point group: c1

    Geometry (in Angstrom), charge = 0, multiplicity = 1:

       Center              X                  Y                   Z               Mass
    ------------   -----------------  -----------------  -----------------  -----------------
         O           -0.115300082335    -1.800834138201     0.453763680418    15.994914619570
         O            0.357898917665     1.393442861799    -1.025787319582    15.994914619570
         O           -1.955686082335     1.370784861799     0.467973680418    15.994914619570
         O            2.714284917665     0.450037861799    -0.206776319582    15.994914619570
         O           -1.672161082335    -0.800767138201    -0.999594319582    15.994914619570
         C            0.431060917665     1.013010861799     0.348637680418    12.000000000000
         C           -0.909862082335     0.473733861799     0.838960680418    12.000000000000
         C            1.533979917665    -0.029435138201     0.419293680418    12.000000000000
         C           -1.215673082335    -0.936983138201     0.338608680418    12.000000000000
         C            1.054439917665    -1.317241138201    -0.229760319582    12.000000000000
         H            0.703725917665     1.886911861799     0.959478680418     1.007825032230
         H           -0.882413082335     0.431728861799     1.934227680418     1.007825032230
         H            1.783245917665    -0.232172138201     1.466930680418     1.007825032230
         H           -1.994482082335    -1.397405138201     0.960662680418     1.007825032230
         H            0.843071917665    -1.148077138201    -1.291077319582     1.007825032230
         H            1.805383917665    -2.101929138201    -0.127622319582     1.007825032230
         H           -0.393582082335     2.011574861799    -1.084779319582     1.007825032230
         H           -2.263328982335     1.056713761799    -0.176005319582     1.007825032230
         H            2.399169917665     0.934754861799    -0.993912319582     1.007825032230
         H           -1.996172082335    -1.676801138201    -1.279604319582     1.007825032230

  Basis Set: AUG-CC-PVTZ
    Blend: AUG-CC-PVTZ
  Basis Set: (AUG-CC-PVTZ AUX)
    Blend: AUG-CC-PVTZ-JKFIT
	 Reference Energy          =    -569.6323562538643728 [Eh]
	 Singles Energy            =      -0.0000000000000000 [Eh]
	 Same-Spin Energy          =      -0.5518624211436920 [Eh]
	 Opposite-Spin Energy      =      -1.6982159849971192 [Eh]
	 Correlation Energy        =      -2.2500784061408110 [Eh]
	 Total Energy              =    -571.8824346600051740 [Eh]

	 ================> DF-SCS-MP2 Energies <==================
	-----------------------------------------------------------
	 SCS Same-Spin Scale       =       0.3333333333333333 [-]
	 SCS Opposite-Spin Scale   =       1.2000000000000000 [-]
	 SCS Same-Spin Energy      =      -0.1839541403812306 [Eh]
	 SCS Opposite-Spin Energy  =      -2.0378591819965428 [Eh]
	 SCS Correlation Energy    =      -2.2218133223777734 [Eh]
	 SCS Total Energy          =    -571.8541695762421568 [Eh]
	-----------------------------------------------------------

  Dipole Moment: [D]
     X:    -2.0472      Y:    -0.8914      Z:    -0.1124     Total:     2.2357

*** Psi4 exiting successfully. Buy a developer a beer!
