                               Psi4 1.3.2 release

  ==> Input File <==

--------------------------------------------------------------------------
#psi4
#
memory 32 gb

molecule  {
0 1
  O       -0.1147700    -1.8002930     0.4548730
  O        0.3584290     1.3939840    -1.0246780
  O       -1.9551560     1.3713260     0.4690830
  O        2.7148150     0.4505790    -0.2056670
  O       -1.6716310    -0.8002260    -0.9984850
  C        0.4315910     1.0135520     0.3497470
  C       -0.9093320     0.4742750     0.8400700
  C        1.5345100    -0.0288940     0.4204030
  C       -1.2151430    -0.9364420     0.3397180
  C        1.0549700    -1.3167000    -0.2286510
  H        0.7042560     1.8874530     0.9605880
  H       -0.8818830     0.4322700     1.9353370
  H        1.7837760    -0.2316310     1.4680400
  H       -1.9939520    -1.3968640     0.9617720
  H        0.8050066    -1.1166470    -1.4837624
  H        1.8059140    -2.1013880    -0.1265130
  H       -0.3930520     2.0121160    -1.0836700
  H       -2.3417080     0.9766970    -0.3400740
  H        2.3997000     0.9352960    -0.9928030
  H       -1.9956420    -1.6762600    -1.2784950
units angstrom
no_reorient  #important for SAPT in psi4, default
symmetry c1  #important for SAPT in psi4, default
}

set PROPERTIES_ORIGIN ["COM"]
properties('MP2/aug-cc-pvtz', properties = ['dipole'])
--------------------------------------------------------------------------

    Molecular point group: c1
  Charge       = 0
  Multiplicity = 1
  Basis Set: AUG-CC-PVTZ
    Blend: AUG-CC-PVTZ
  Basis Set: (AUG-CC-PVTZ AUX)
    Blend: AUG-CC-PVTZ-JKFIT

    Orbital Energies [Eh]
    ---------------------

    Doubly Occupied:

       1A    -20.591362     2A    -20.584486     3A    -20.574975
       4A    -20.570651     5A    -20.558254     6A    -11.354851
       7A    -11.298939     8A    -11.298841     9A    -11.291523
      10A    -11.288063    11A     -1.439582    12A     -1.391545
      13A     -1.376167    14A     -1.354658    15A     -1.347626
      16A     -1.059351    17A     -1.019780    18A     -0.894224
      19A     -0.869433    20A     -0.794834    21A     -0.747923
      22A     -0.727674    23A     -0.708931    24A     -0.696070
      25A     -0.669915    26A     -0.639457    27A     -0.621620
      28A     -0.612239    29A     -0.603116    30A     -0.585598
      31A     -0.564835    32A     -0.554036    33A     -0.542976
      34A     -0.516754    35A     -0.503007    36A     -0.489398
      37A     -0.486205    38A     -0.457591    39A     -0.441012
      40A     -0.414723

  @DF-RHF Final Energy:  -569.65333440049699

   => Energetics <=

    Nuclear Repulsion Energy =            632.9365960289364921
    One-Electron Energy =               -2040.0954098863189756
    Two-Electron Energy =                 837.5054794568854959
    Total Energy =                       -569.6533344004969877
  Basis Set: (AUG-CC-PVTZ AUX)
    Blend: AUG-CC-PVTZ-RI
    Molecular point group: c1

    Geometry (in Angstrom), charge = 0, multiplicity = 1:

       Center              X                  Y                   Z               Mass
    ------------   -----------------  -----------------  -----------------  -----------------
         O           -0.114510867085    -1.800500538608     0.456174707164    15.994914619570
         O            0.358688132915     1.393776461392    -1.023376292836    15.994914619570
         O           -1.954896867085     1.371118461392     0.470384707164    15.994914619570
         O            2.715074132915     0.450371461392    -0.204365292836    15.994914619570
         O           -1.671371867085    -0.800433538608    -0.997183292836    15.994914619570
         C            0.431850132915     1.013344461392     0.351048707164    12.000000000000
         C           -0.909072867085     0.474067461392     0.841371707164    12.000000000000
         C            1.534769132915    -0.029101538608     0.421704707164    12.000000000000
         C           -1.214883867085    -0.936649538608     0.341019707164    12.000000000000
         C            1.055229132915    -1.316907538608    -0.227349292836    12.000000000000
         H            0.704515132915     1.887245461392     0.961889707164     1.007825032230
         H           -0.881623867085     0.432062461392     1.936638707164     1.007825032230
         H            1.784035132915    -0.231838538608     1.469341707164     1.007825032230
         H           -1.993692867085    -1.397071538608     0.963073707164     1.007825032230
         H            0.805265732915    -1.116854538608    -1.482460692836     1.007825032230
         H            1.806173132915    -2.101595538608    -0.125211292836     1.007825032230
         H           -0.392792867085     2.011908461392    -1.082368292836     1.007825032230
         H           -2.341448867085     0.976489461392    -0.338772292836     1.007825032230
         H            2.399959132915     0.935088461392    -0.991501292836     1.007825032230
         H           -1.995382867085    -1.676467538608    -1.277193292836     1.007825032230

  Basis Set: AUG-CC-PVTZ
    Blend: AUG-CC-PVTZ
  Basis Set: (AUG-CC-PVTZ AUX)
    Blend: AUG-CC-PVTZ-JKFIT
	 Reference Energy          =    -569.6533344004969877 [Eh]
	 Singles Energy            =      -0.0000000000000000 [Eh]
	 Same-Spin Energy          =      -0.5552851344135525 [Eh]
	 Opposite-Spin Energy      =      -1.7062518898791037 [Eh]
	 Correlation Energy        =      -2.2615370242926565 [Eh]
	 Total Energy              =    -571.9148714247896805 [Eh]

	 ================> DF-SCS-MP2 Energies <==================
	-----------------------------------------------------------
	 SCS Same-Spin Scale       =       0.3333333333333333 [-]
	 SCS Opposite-Spin Scale   =       1.2000000000000000 [-]
	 SCS Same-Spin Energy      =      -0.1850950448045175 [Eh]
	 SCS Opposite-Spin Energy  =      -2.0475022678549242 [Eh]
	 SCS Correlation Energy    =      -2.2325973126594416 [Eh]
	 SCS Total Energy          =    -571.8859317131564239 [Eh]
	-----------------------------------------------------------

  Dipole Moment: [D]
     X:    -2.2317      Y:    -0.9779      Z:    -0.1897     Total:     2.4439

*** Psi4 exiting successfully. Buy a developer a beer!
