                               Psi4 1.3.2 release

  ==> Input File <==

--------------------------------------------------------------------------
#psi4
#
memory 32 gb

molecule  {
0 1
  O       -0.1156664    -1.8197918     0.4390825
  O        0.3584290     1.3939840    -1.0246780
  O       -1.9551560     1.3713260     0.4690830
  O        2.7148150     0.4505790    -0.2056670
  O       -1.6716310    -0.8002260    -0.9984850
  C        0.4315910     1.0135520     0.3497470
  C       -0.9093320     0.4742750     0.8400700
  C        1.5543470    -0.0276998     0.4028355
  C       -1.2151430    -0.9364420     0.3397180
  C        1.0549700    -1.3167000    -0.2286510
  H        0.7042560     1.8874530     0.9605880
  H       -0.8818830     0.4322700     1.9353370
  H        1.7837760    -0.2316310     1.4680400
  H       -1.9939520    -1.3968640     0.9617720
  H        0.8436020    -1.1475360    -1.2899680
  H        1.8059140    -2.1013880    -0.1265130
  H       -0.3930520     2.0121160    -1.0836700
  H       -2.3417080     0.9766970    -0.3400740
  H        2.3997000     0.9352960    -0.9928030
  H       -1.9956420    -1.6762600    -1.2784950
units angstrom
no_reorient  #important for SAPT in psi4, default
symmetry c1  #important for SAPT in psi4, default
}

set PROPERTIES_ORIGIN ["COM"]
properties('MP2/aug-cc-pvtz', properties = ['dipole'])
--------------------------------------------------------------------------

    Molecular point group: c1
  Charge       = 0
  Multiplicity = 1
  Basis Set: AUG-CC-PVTZ
    Blend: AUG-CC-PVTZ
  Basis Set: (AUG-CC-PVTZ AUX)
    Blend: AUG-CC-PVTZ-JKFIT

    Orbital Energies [Eh]
    ---------------------

    Doubly Occupied:

       1A    -20.591188     2A    -20.581234     3A    -20.575422
       4A    -20.570961     5A    -20.561477     6A    -11.354396
       7A    -11.299308     8A    -11.290832     9A    -11.286633
      10A    -11.276619    11A     -1.436861    12A     -1.393525
      13A     -1.378423    14A     -1.354656    15A     -1.351267
      16A     -1.056847    17A     -1.021264    18A     -0.898540
      19A     -0.869533    20A     -0.798603    21A     -0.751828
      22A     -0.726863    23A     -0.711174    24A     -0.697070
      25A     -0.670993    26A     -0.647673    27A     -0.621844
      28A     -0.614587    29A     -0.602874    30A     -0.584493
      31A     -0.573279    32A     -0.558858    33A     -0.543451
      34A     -0.514243    35A     -0.502111    36A     -0.492116
      37A     -0.487943    38A     -0.467294    39A     -0.440076
      40A     -0.415742

  @DF-RHF Final Energy:  -569.67350160791227

   => Energetics <=

    Nuclear Repulsion Energy =            633.3367003386366605
    One-Electron Energy =               -2040.8761960300566898
    Two-Electron Energy =                 837.8659940835078714
    Total Energy =                       -569.6735016079122715
  Basis Set: (AUG-CC-PVTZ AUX)
    Blend: AUG-CC-PVTZ-RI
    Molecular point group: c1

    Geometry (in Angstrom), charge = 0, multiplicity = 1:

       Center              X                  Y                   Z               Mass
    ------------   -----------------  -----------------  -----------------  -----------------
         O           -0.117157341244    -1.817808896995     0.442170690389    15.994914619570
         O            0.356938058756     1.395966903005    -1.021589809611    15.994914619570
         O           -1.956646941244     1.373308903005     0.472171190389    15.994914619570
         O            2.713324058756     0.452561903005    -0.202578809611    15.994914619570
         O           -1.673121941244    -0.798243096995    -0.995396809611    15.994914619570
         C            0.430100058756     1.015534903005     0.352835190389    12.000000000000
         C           -0.910822941244     0.476257903005     0.843158190389    12.000000000000
         C            1.552856058756    -0.025716896995     0.405923690389    12.000000000000
         C           -1.216633941244    -0.934459096995     0.342806190389    12.000000000000
         C            1.053479058756    -1.314717096995    -0.225562809611    12.000000000000
         H            0.702765058756     1.889435903005     0.963676190389     1.007825032230
         H           -0.883373941244     0.434252903005     1.938425190389     1.007825032230
         H            1.782285058756    -0.229648096995     1.471128190389     1.007825032230
         H           -1.995442941244    -1.394881096995     0.964860190389     1.007825032230
         H            0.842111058756    -1.145553096995    -1.286879809611     1.007825032230
         H            1.804423058756    -2.099405096995    -0.123424809611     1.007825032230
         H           -0.394542941244     2.014098903005    -1.080581809611     1.007825032230
         H           -2.343198941244     0.978679903005    -0.336985809611     1.007825032230
         H            2.398209058756     0.937278903005    -0.989714809611     1.007825032230
         H           -1.997132941244    -1.674277096995    -1.275406809611     1.007825032230

  Basis Set: AUG-CC-PVTZ
    Blend: AUG-CC-PVTZ
  Basis Set: (AUG-CC-PVTZ AUX)
    Blend: AUG-CC-PVTZ-JKFIT
	 Reference Energy          =    -569.6735016079122715 [Eh]
	 Singles Energy            =      -0.0000000000000000 [Eh]
	 Same-Spin Energy          =      -0.5546558351961968 [Eh]
	 Opposite-Spin Energy      =      -1.7039667066768862 [Eh]
	 Correlation Energy        =      -2.2586225418730832 [Eh]
	 Total Energy              =    -571.9321241497854089 [Eh]

	 ================> DF-SCS-MP2 Energies <==================
	-----------------------------------------------------------
	 SCS Same-Spin Scale       =       0.3333333333333333 [-]
	 SCS Opposite-Spin Scale   =       1.2000000000000000 [-]
	 SCS Same-Spin Energy      =      -0.1848852783987323 [Eh]
	 SCS Opposite-Spin Energy  =      -2.0447600480122632 [Eh]
	 SCS Correlation Energy    =      -2.2296453264109957 [Eh]
	 SCS Total Energy          =    -571.9031469343232175 [Eh]
	-----------------------------------------------------------

  Dipole Moment: [D]
     X:    -2.1304      Y:    -0.9017      Z:    -0.3107     Total:     2.3342

*** Psi4 exiting successfully. Buy a developer a beer!
