                               Psi4 1.4a3.dev225

  ==> Input File <==

--------------------------------------------------------------------------
#psi4
#
memory 32 gb

molecule  {
0 1
  O       -0.2343850     1.7978400    -0.4145210
  O        0.4791390    -1.3900560     0.9851260
  O       -1.8902550    -1.4798720    -0.4079610
  O        2.7489250    -0.2990660     0.0843650
  O       -1.6766260     0.6849030     1.0797040
  C        0.4758930    -0.9871420    -0.3839460
  C       -0.9153110    -0.5160320    -0.8112700
  C        1.5148540     0.1205520    -0.4811210
  C       -1.2794180     0.8705190    -0.2725550
  C        0.9914930     1.3693070     0.2124490
  H        0.7732420    -1.8350180    -1.0199460
  H       -0.9367810    -0.4539690    -1.9062570
  H        1.7061480     0.3550680    -1.5342930
  H       -2.0698371     1.2752385    -0.8277380
  H        0.8333730     1.1741050     1.2776920
  H        1.6908660     2.1982840     0.0933200
  H       -0.2684360    -2.0097880     1.0741120
  H       -2.2907410    -1.1048270     0.4011470
  H        2.5001980    -0.8049050     0.8819700
  H       -2.0397460     1.5332780     1.3914430
units angstrom
no_reorient  #important for SAPT in psi4, default
symmetry c1  #important for SAPT in psi4, default
}

set PROPERTIES_ORIGIN ["COM"]
properties('MP2/aug-cc-pvtz', properties = ['dipole'])
--------------------------------------------------------------------------

    Molecular point group: c1
  Charge       = 0
  Multiplicity = 1
  Basis Set: AUG-CC-PVTZ
    Blend: AUG-CC-PVTZ
  Basis Set: (AUG-CC-PVTZ AUX)
    Blend: AUG-CC-PVTZ-JKFIT

    Orbital Energies [Eh]
    ---------------------

    Doubly Occupied:

       1A    -20.591355     2A    -20.580654     3A    -20.575228
       4A    -20.569856     5A    -20.558461     6A    -11.348840
       7A    -11.299313     8A    -11.290935     9A    -11.286029
      10A    -11.278512    11A     -1.438055    12A     -1.390761
      13A     -1.375288    14A     -1.353556    15A     -1.347262
      16A     -1.057695    17A     -1.024693    18A     -0.899690
      19A     -0.872235    20A     -0.797756    21A     -0.756542
      22A     -0.727553    23A     -0.713160    24A     -0.696244
      25A     -0.667746    26A     -0.647685    27A     -0.620612
      28A     -0.614519    29A     -0.601286    30A     -0.584630
      31A     -0.574133    32A     -0.556356    33A     -0.542772
      34A     -0.515797    35A     -0.505136    36A     -0.490764
      37A     -0.487308    38A     -0.471163    39A     -0.441365
      40A     -0.415998

  @DF-RHF Final Energy:  -569.67390734006551

   => Energetics <=

    Nuclear Repulsion Energy =            633.4707072351642410
    One-Electron Energy =               -2041.1553377764173547
    Two-Electron Energy =                 838.0107232011877159
    Total Energy =                       -569.6739073400655116
  Basis Set: (AUG-CC-PVTZ AUX)
    Blend: AUG-CC-PVTZ-RI
    Molecular point group: c1

    Geometry (in Angstrom), charge = 0, multiplicity = 1:

       Center              X                  Y                   Z               Mass
    ------------   -----------------  -----------------  -----------------  -----------------
         O           -0.235579945420     1.800239483118    -0.415943674000    15.994914619570
         O            0.477944054580    -1.387656516882     0.983703326000    15.994914619570
         O           -1.891449945420    -1.477472516882    -0.409383674000    15.994914619570
         O            2.747730054580    -0.296666516882     0.082942326000    15.994914619570
         O           -1.677820945420     0.687302483118     1.078281326000    15.994914619570
         C            0.474698054580    -0.984742516882    -0.385368674000    12.000000000000
         C           -0.916505945420    -0.513632516882    -0.812692674000    12.000000000000
         C            1.513659054580     0.122951483118    -0.482543674000    12.000000000000
         C           -1.280612945420     0.872918483118    -0.273977674000    12.000000000000
         C            0.990298054580     1.371706483118     0.211026326000    12.000000000000
         H            0.772047054580    -1.832618516882    -1.021368674000     1.007825032230
         H           -0.937975945420    -0.451569516882    -1.907679674000     1.007825032230
         H            1.704953054580     0.357467483118    -1.535715674000     1.007825032230
         H           -2.071032045420     1.277637983118    -0.829160674000     1.007825032230
         H            0.832178054580     1.176504483118     1.276269326000     1.007825032230
         H            1.689671054580     2.200683483118     0.091897326000     1.007825032230
         H           -0.269630945420    -2.007388516882     1.072689326000     1.007825032230
         H           -2.291935945420    -1.102427516882     0.399724326000     1.007825032230
         H            2.499003054580    -0.802505516882     0.880547326000     1.007825032230
         H           -2.040940945420     1.535677483118     1.390020326000     1.007825032230

  Basis Set: AUG-CC-PVTZ
    Blend: AUG-CC-PVTZ
  Basis Set: (AUG-CC-PVTZ AUX)
    Blend: AUG-CC-PVTZ-JKFIT
	 Reference Energy          =    -569.6739073400655116 [Eh]
	 Singles Energy            =      -0.0000000000000000 [Eh]
	 Same-Spin Energy          =      -0.5544128070877643 [Eh]
	 Opposite-Spin Energy      =      -1.7035737381327145 [Eh]
	 Correlation Energy        =      -2.2579865452204788 [Eh]
	 Total Energy              =    -571.9318938852859446 [Eh]

	 ================> DF-SCS-MP2 Energies <==================
	-----------------------------------------------------------
	 SCS Same-Spin Scale       =       0.3333333333333333 [-]
	 SCS Opposite-Spin Scale   =       1.2000000000000000 [-]
	 SCS Same-Spin Energy      =      -0.1848042690292548 [Eh]
	 SCS Opposite-Spin Energy  =      -2.0442884857592571 [Eh]
	 SCS Correlation Energy    =      -2.2290927547885118 [Eh]
	 SCS Total Energy          =    -571.9030000948540646 [Eh]
	-----------------------------------------------------------

  Dipole Moment: [D]
     X:    -2.3178      Y:     0.9736      Z:     0.3792     Total:     2.5425

*** Psi4 exiting successfully. Buy a developer a beer!
