                               Psi4 1.3.2 release

  ==> Input File <==

--------------------------------------------------------------------------
#psi4
#
memory 32 gb

molecule  {
0 1
  O       -0.1147700    -1.8002930     0.4548730
  O        0.3584290     1.3939840    -1.0246780
  O       -1.9601281     1.3751509     0.4931840
  O        2.7148150     0.4505790    -0.2056670
  O       -1.6716310    -0.8002260    -0.9984850
  C        0.4315910     1.0135520     0.3497470
  C       -0.9093320     0.4742750     0.8400700
  C        1.5345100    -0.0288940     0.4204030
  C       -1.2151430    -0.9364420     0.3397180
  C        1.0549700    -1.3167000    -0.2286510
  H        0.7042560     1.8874530     0.9605880
  H       -0.8964476     0.4446635     1.9360102
  H        1.7837760    -0.2316310     1.4680400
  H       -1.9939520    -1.3968640     0.9617720
  H        0.8436020    -1.1475360    -1.2899680
  H        1.8059140    -2.1013880    -0.1265130
  H       -0.3930520     2.0121160    -1.0836700
  H       -2.3417080     0.9766970    -0.3400740
  H        2.3997000     0.9352960    -0.9928030
  H       -1.9956420    -1.6762600    -1.2784950
units angstrom
no_reorient  #important for SAPT in psi4, default
symmetry c1  #important for SAPT in psi4, default
}

set PROPERTIES_ORIGIN ["COM"]
properties('MP2/aug-cc-pvtz', properties = ['dipole'])
--------------------------------------------------------------------------

    Molecular point group: c1
  Charge       = 0
  Multiplicity = 1
  Basis Set: AUG-CC-PVTZ
    Blend: AUG-CC-PVTZ
  Basis Set: (AUG-CC-PVTZ AUX)
    Blend: AUG-CC-PVTZ-JKFIT

    Orbital Energies [Eh]
    ---------------------

    Doubly Occupied:

       1A    -20.592162     2A    -20.580956     3A    -20.576213
       4A    -20.571886     5A    -20.558442     6A    -11.354116
       7A    -11.297716     8A    -11.291332     9A    -11.285795
      10A    -11.278315    11A     -1.438663    12A     -1.391143
      13A     -1.374174    14A     -1.353757    15A     -1.347651
      16A     -1.058453    17A     -1.022592    18A     -0.898836
      19A     -0.869072    20A     -0.798284    21A     -0.752565
      22A     -0.727685    23A     -0.711614    24A     -0.694298
      25A     -0.669945    26A     -0.644408    27A     -0.621388
      28A     -0.614446    29A     -0.602003    30A     -0.584389
      31A     -0.570978    32A     -0.556067    33A     -0.543433
      34A     -0.515783    35A     -0.502852    36A     -0.491397
      37A     -0.487883    38A     -0.471936    39A     -0.440520
      40A     -0.415955

  @DF-RHF Final Energy:  -569.67265203930094

   => Energetics <=

    Nuclear Repulsion Energy =            633.4329383626718482
    One-Electron Energy =               -2041.0929737544161071
    Two-Electron Energy =                 837.9873833524433167
    Total Energy =                       -569.6726520393009423
  Basis Set: (AUG-CC-PVTZ AUX)
    Blend: AUG-CC-PVTZ-RI
    Molecular point group: c1

    Geometry (in Angstrom), charge = 0, multiplicity = 1:

       Center              X                  Y                   Z               Mass
    ------------   -----------------  -----------------  -----------------  -----------------
         O           -0.114142267068    -1.800784030248     0.452299520152    15.994914619570
         O            0.359056732932     1.393492969752    -1.027251479848    15.994914619570
         O           -1.959500367068     1.374659869752     0.490610520152    15.994914619570
         O            2.715442732932     0.450087969752    -0.208240479848    15.994914619570
         O           -1.671003267068    -0.800717030248    -1.001058479848    15.994914619570
         C            0.432218732932     1.013060969752     0.347173520152    12.000000000000
         C           -0.908704267068     0.473783969752     0.837496520152    12.000000000000
         C            1.535137732932    -0.029385030248     0.417829520152    12.000000000000
         C           -1.214515267068    -0.936933030248     0.337144520152    12.000000000000
         C            1.055597732932    -1.317191030248    -0.231224479848    12.000000000000
         H            0.704883732932     1.886961969752     0.958014520152     1.007825032230
         H           -0.895819867068     0.444172469752     1.933436720152     1.007825032230
         H            1.784403732932    -0.232122030248     1.465466520152     1.007825032230
         H           -1.993324267068    -1.397355030248     0.959198520152     1.007825032230
         H            0.844229732932    -1.148027030248    -1.292541479848     1.007825032230
         H            1.806541732932    -2.101879030248    -0.129086479848     1.007825032230
         H           -0.392424267068     2.011624969752    -1.086243479848     1.007825032230
         H           -2.341080267068     0.976205969752    -0.342647479848     1.007825032230
         H            2.400327732932     0.934804969752    -0.995376479848     1.007825032230
         H           -1.995014267068    -1.676751030248    -1.281068479848     1.007825032230

  Basis Set: AUG-CC-PVTZ
    Blend: AUG-CC-PVTZ
  Basis Set: (AUG-CC-PVTZ AUX)
    Blend: AUG-CC-PVTZ-JKFIT
	 Reference Energy          =    -569.6726520393009423 [Eh]
	 Singles Energy            =      -0.0000000000000000 [Eh]
	 Same-Spin Energy          =      -0.5549017651352344 [Eh]
	 Opposite-Spin Energy      =      -1.7046520489503072 [Eh]
	 Correlation Energy        =      -2.2595538140855416 [Eh]
	 Total Energy              =    -571.9322058533864492 [Eh]

	 ================> DF-SCS-MP2 Energies <==================
	-----------------------------------------------------------
	 SCS Same-Spin Scale       =       0.3333333333333333 [-]
	 SCS Opposite-Spin Scale   =       1.2000000000000000 [-]
	 SCS Same-Spin Energy      =      -0.1849672550450781 [Eh]
	 SCS Opposite-Spin Energy  =      -2.0455824587403684 [Eh]
	 SCS Correlation Energy    =      -2.2305497137854466 [Eh]
	 SCS Total Energy          =    -571.9032017530863641 [Eh]
	-----------------------------------------------------------

  Dipole Moment: [D]
     X:    -2.1657      Y:    -0.9971      Z:    -0.3429     Total:     2.4087

*** Psi4 exiting successfully. Buy a developer a beer!
