                               Psi4 1.3.2 release

  ==> Input File <==

--------------------------------------------------------------------------
#psi4
#
memory 32 gb

molecule  {
0 1
  O       -0.1147700    -1.8002930     0.4548730
  O        0.3584290     1.3939840    -1.0246780
  O       -1.9551560     1.3713260     0.4690830
  O        2.7148150     0.4505790    -0.2056670
  O       -1.6824543    -0.8053332    -0.9952554
  C        0.4315910     1.0135520     0.3497470
  C       -0.9093320     0.4742750     0.8400700
  C        1.5345100    -0.0288940     0.4204030
  C       -1.2151430    -0.9364420     0.3397180
  C        1.0549700    -1.3167000    -0.2286510
  H        0.7042560     1.8874530     0.9605880
  H       -0.8818830     0.4322700     1.9353370
  H        1.7837760    -0.2316310     1.4680400
  H       -1.9997105    -1.3973489     0.9541296
  H        0.8436020    -1.1475360    -1.2899680
  H        1.8059140    -2.1013880    -0.1265130
  H       -0.3930520     2.0121160    -1.0836700
  H       -2.3417080     0.9766970    -0.3400740
  H        2.3997000     0.9352960    -0.9928030
  H       -1.9956420    -1.6762600    -1.2784950
units angstrom
no_reorient  #important for SAPT in psi4, default
symmetry c1  #important for SAPT in psi4, default
}

set PROPERTIES_ORIGIN ["COM"]
properties('MP2/aug-cc-pvtz', properties = ['dipole'])
--------------------------------------------------------------------------

    Molecular point group: c1
  Charge       = 0
  Multiplicity = 1
  Basis Set: AUG-CC-PVTZ
    Blend: AUG-CC-PVTZ
  Basis Set: (AUG-CC-PVTZ AUX)
    Blend: AUG-CC-PVTZ-JKFIT

    Orbital Energies [Eh]
    ---------------------

    Doubly Occupied:

       1A    -20.590390     2A    -20.581108     3A    -20.574711
       4A    -20.571455     5A    -20.558438     6A    -11.353928
       7A    -11.298716     8A    -11.291260     9A    -11.285860
      10A    -11.278461    11A     -1.438989    12A     -1.391746
      13A     -1.375977    14A     -1.354795    15A     -1.347935
      16A     -1.059285    17A     -1.023225    18A     -0.899215
      19A     -0.870318    20A     -0.798938    21A     -0.752376
      22A     -0.728459    23A     -0.712055    24A     -0.696331
      25A     -0.669918    26A     -0.646606    27A     -0.621265
      28A     -0.614328    29A     -0.603199    30A     -0.585142
      31A     -0.571470    32A     -0.556393    33A     -0.542984
      34A     -0.516436    35A     -0.502158    36A     -0.491188
      37A     -0.487954    38A     -0.471794    39A     -0.440714
      40A     -0.416128

  @DF-RHF Final Energy:  -569.67515295423868

   => Energetics <=

    Nuclear Repulsion Energy =            633.6716012561336129
    One-Electron Energy =               -2041.5502162697628137
    Two-Electron Energy =                 838.2034620593906311
    Total Energy =                       -569.6751529542386834
  Basis Set: (AUG-CC-PVTZ AUX)
    Blend: AUG-CC-PVTZ-RI
    Molecular point group: c1

    Geometry (in Angstrom), charge = 0, multiplicity = 1:

       Center              X                  Y                   Z               Mass
    ------------   -----------------  -----------------  -----------------  -----------------
         O           -0.113577702974    -1.799745413665     0.454580163215    15.994914619570
         O            0.359621297026     1.394531586335    -1.024970836785    15.994914619570
         O           -1.953963702974     1.371873586335     0.468790163215    15.994914619570
         O            2.716007297026     0.451126586335    -0.205959836785    15.994914619570
         O           -1.681262002974    -0.804785613665    -0.995548236785    15.994914619570
         C            0.432783297026     1.014099586335     0.349454163215    12.000000000000
         C           -0.908139702974     0.474822586335     0.839777163215    12.000000000000
         C            1.535702297026    -0.028346413665     0.420110163215    12.000000000000
         C           -1.213950702974    -0.935894413665     0.339425163215    12.000000000000
         C            1.056162297026    -1.316152413665    -0.228943836785    12.000000000000
         H            0.705448297026     1.888000586335     0.960295163215     1.007825032230
         H           -0.880690702974     0.432817586335     1.935044163215     1.007825032230
         H            1.784968297026    -0.231083413665     1.467747163215     1.007825032230
         H           -1.998518202974    -1.396801313665     0.953836763215     1.007825032230
         H            0.844794297026    -1.146988413665    -1.290260836785     1.007825032230
         H            1.807106297026    -2.100840413665    -0.126805836785     1.007825032230
         H           -0.391859702974     2.012663586335    -1.083962836785     1.007825032230
         H           -2.340515702974     0.977244586335    -0.340366836785     1.007825032230
         H            2.400892297026     0.935843586335    -0.993095836785     1.007825032230
         H           -1.994449702974    -1.675712413665    -1.278787836785     1.007825032230

  Basis Set: AUG-CC-PVTZ
    Blend: AUG-CC-PVTZ
  Basis Set: (AUG-CC-PVTZ AUX)
    Blend: AUG-CC-PVTZ-JKFIT
	 Reference Energy          =    -569.6751529542386834 [Eh]
	 Singles Energy            =      -0.0000000000000000 [Eh]
	 Same-Spin Energy          =      -0.5544704466799548 [Eh]
	 Opposite-Spin Energy      =      -1.7035865826341074 [Eh]
	 Correlation Energy        =      -2.2580570293140623 [Eh]
	 Total Energy              =    -571.9332099835527288 [Eh]

	 ================> DF-SCS-MP2 Energies <==================
	-----------------------------------------------------------
	 SCS Same-Spin Scale       =       0.3333333333333333 [-]
	 SCS Opposite-Spin Scale   =       1.2000000000000000 [-]
	 SCS Same-Spin Energy      =      -0.1848234822266516 [Eh]
	 SCS Opposite-Spin Energy  =      -2.0443038991609290 [Eh]
	 SCS Correlation Energy    =      -2.2291273813875807 [Eh]
	 SCS Total Energy          =    -571.9042803356262539 [Eh]
	-----------------------------------------------------------

  Dipole Moment: [D]
     X:    -2.1533      Y:    -0.9850      Z:    -0.3004     Total:     2.3868

*** Psi4 exiting successfully. Buy a developer a beer!
