                               Psi4 1.3.2 release

  ==> Input File <==

--------------------------------------------------------------------------
#psi4
#
memory 32 gb

molecule  {
0 1
  O       -0.1147700    -1.8002930     0.4548730
  O        0.3584290     1.3939840    -1.0246780
  O       -1.9551560     1.3713260     0.4690830
  O        2.7148150     0.4505790    -0.2056670
  O       -1.6716310    -0.8002260    -0.9984850
  C        0.4315910     1.0135520     0.3497470
  C       -0.9093320     0.4742750     0.8400700
  C        1.5345100    -0.0288940     0.4204030
  C       -1.2540481    -0.9837052     0.3803763
  C        1.0914549    -1.3784872    -0.2057783
  H        0.7042560     1.8874530     0.9605880
  H       -0.8818830     0.4322700     1.9353370
  H        1.7837760    -0.2316310     1.4680400
  H       -1.9939520    -1.3968640     0.9617720
  H        0.8436020    -1.1475360    -1.2899680
  H        1.8059140    -2.1013880    -0.1265130
  H       -0.3930520     2.0121160    -1.0836700
  H       -2.3417080     0.9766970    -0.3400740
  H        2.3997000     0.9352960    -0.9928030
  H       -1.9956420    -1.6762600    -1.2784950
units angstrom
no_reorient  #important for SAPT in psi4, default
symmetry c1  #important for SAPT in psi4, default
}

set PROPERTIES_ORIGIN ["COM"]
properties('MP2/aug-cc-pvtz', properties = ['dipole'])
--------------------------------------------------------------------------

    Molecular point group: c1
  Charge       = 0
  Multiplicity = 1
  Basis Set: AUG-CC-PVTZ
    Blend: AUG-CC-PVTZ
  Basis Set: (AUG-CC-PVTZ AUX)
    Blend: AUG-CC-PVTZ-JKFIT

    Orbital Energies [Eh]
    ---------------------

    Doubly Occupied:

       1A    -20.588657     2A    -20.576517     3A    -20.572739
       4A    -20.569690     5A    -20.556871     6A    -11.354758
       7A    -11.298516     8A    -11.292305     9A    -11.286156
      10A    -11.279872    11A     -1.430037    12A     -1.389217
      13A     -1.372262    14A     -1.346949    15A     -1.346051
      16A     -1.052456    17A     -1.023609    18A     -0.897899
      19A     -0.874085    20A     -0.792206    21A     -0.758546
      22A     -0.726832    23A     -0.708744    24A     -0.691324
      25A     -0.667230    26A     -0.641137    27A     -0.622820
      28A     -0.611009    29A     -0.605488    30A     -0.589155
      31A     -0.571488    32A     -0.558739    33A     -0.540608
      34A     -0.516852    35A     -0.508055    36A     -0.485471
      37A     -0.479506    38A     -0.466743    39A     -0.442593
      40A     -0.407682

  @DF-RHF Final Energy:  -569.66103849108868

   => Energetics <=

    Nuclear Repulsion Energy =            631.1364123220495230
    One-Electron Energy =               -2036.5931544499483152
    Two-Electron Energy =                 835.7957036368102308
    Total Energy =                       -569.6610384910886751
  Basis Set: (AUG-CC-PVTZ AUX)
    Blend: AUG-CC-PVTZ-RI
    Molecular point group: c1

    Geometry (in Angstrom), charge = 0, multiplicity = 1:

       Center              X                  Y                   Z               Mass
    ------------   -----------------  -----------------  -----------------  -----------------
         O           -0.114576544025    -1.791572112758     0.449792402416    15.994914619570
         O            0.358622455975     1.402704887242    -1.029758597584    15.994914619570
         O           -1.954962544025     1.380046887242     0.464002402416    15.994914619570
         O            2.715008455975     0.459299887242    -0.210747597584    15.994914619570
         O           -1.671437544025    -0.791505112758    -1.003565597584    15.994914619570
         C            0.431784455975     1.022272887242     0.344666402416    12.000000000000
         C           -0.909138544025     0.482995887242     0.834989402416    12.000000000000
         C            1.534703455975    -0.020173112758     0.415322402416    12.000000000000
         C           -1.253854644025    -0.974984312758     0.375295702416    12.000000000000
         C            1.091648355975    -1.369766312758    -0.210858897584    12.000000000000
         H            0.704449455975     1.896173887242     0.955507402416     1.007825032230
         H           -0.881689544025     0.440990887242     1.930256402416     1.007825032230
         H            1.783969455975    -0.222910112758     1.462959402416     1.007825032230
         H           -1.993758544025    -1.388143112758     0.956691402416     1.007825032230
         H            0.843795455975    -1.138815112758    -1.295048597584     1.007825032230
         H            1.806107455975    -2.092667112758    -0.131593597584     1.007825032230
         H           -0.392858544025     2.020836887242    -1.088750597584     1.007825032230
         H           -2.341514544025     0.985417887242    -0.345154597584     1.007825032230
         H            2.399893455975     0.944016887242    -0.997883597584     1.007825032230
         H           -1.995448544025    -1.667539112758    -1.283575597584     1.007825032230

  Basis Set: AUG-CC-PVTZ
    Blend: AUG-CC-PVTZ
  Basis Set: (AUG-CC-PVTZ AUX)
    Blend: AUG-CC-PVTZ-JKFIT
	 Reference Energy          =    -569.6610384910886751 [Eh]
	 Singles Energy            =      -0.0000000000000000 [Eh]
	 Same-Spin Energy          =      -0.5540472089163451 [Eh]
	 Opposite-Spin Energy      =      -1.7038859409271145 [Eh]
	 Correlation Energy        =      -2.2579331498434598 [Eh]
	 Total Energy              =    -571.9189716409321136 [Eh]

	 ================> DF-SCS-MP2 Energies <==================
	-----------------------------------------------------------
	 SCS Same-Spin Scale       =       0.3333333333333333 [-]
	 SCS Opposite-Spin Scale   =       1.2000000000000000 [-]
	 SCS Same-Spin Energy      =      -0.1846824029721150 [Eh]
	 SCS Opposite-Spin Energy  =      -2.0446631291125374 [Eh]
	 SCS Correlation Energy    =      -2.2293455320846522 [Eh]
	 SCS Total Energy          =    -571.8903840231732829 [Eh]
	-----------------------------------------------------------

  Dipole Moment: [D]
     X:    -2.1836      Y:    -1.1347      Z:    -0.1482     Total:     2.4653

*** Psi4 exiting successfully. Buy a developer a beer!
