                               Psi4 1.3.2 release

  ==> Input File <==

--------------------------------------------------------------------------
#psi4
#
memory 32 gb

molecule  {
0 1
  O       -0.1147700    -1.8002930     0.4548730
  O        0.3584290     1.3939840    -1.0246780
  O       -1.9551560     1.3713260     0.4690830
  O        2.7148150     0.4505790    -0.2056670
  O       -1.6716310    -0.8002260    -0.9984850
  C        0.4315910     1.0135520     0.3497470
  C       -0.9093320     0.4742750     0.8400700
  C        1.5345100    -0.0288940     0.4204030
  C       -1.2213984    -0.9604253     0.3391809
  C        1.0549700    -1.3167000    -0.2286510
  H        0.7042560     1.8874530     0.9605880
  H       -0.8818830     0.4322700     1.9353370
  H        1.7837760    -0.2316310     1.4680400
  H       -1.9939520    -1.3968640     0.9617720
  H        0.8436020    -1.1475360    -1.2899680
  H        1.8059140    -2.1013880    -0.1265130
  H       -0.3930520     2.0121160    -1.0836700
  H       -2.3417080     0.9766970    -0.3400740
  H        2.3997000     0.9352960    -0.9928030
  H       -1.9915970    -1.6824856    -1.2631812
units angstrom
no_reorient  #important for SAPT in psi4, default
symmetry c1  #important for SAPT in psi4, default
}

set PROPERTIES_ORIGIN ["COM"]
properties('MP2/aug-cc-pvtz', properties = ['dipole'])
--------------------------------------------------------------------------

    Molecular point group: c1
  Charge       = 0
  Multiplicity = 1
  Basis Set: AUG-CC-PVTZ
    Blend: AUG-CC-PVTZ
  Basis Set: (AUG-CC-PVTZ AUX)
    Blend: AUG-CC-PVTZ-JKFIT

    Orbital Energies [Eh]
    ---------------------

    Doubly Occupied:

       1A    -20.592500     2A    -20.581306     3A    -20.573645
       4A    -20.570700     5A    -20.558251     6A    -11.353301
       7A    -11.297704     8A    -11.290537     9A    -11.285625
      10A    -11.279089    11A     -1.440497    12A     -1.391290
      13A     -1.375729    14A     -1.355189    15A     -1.347398
      16A     -1.057340    17A     -1.021778    18A     -0.896647
      19A     -0.870965    20A     -0.797368    21A     -0.753395
      22A     -0.726951    23A     -0.713245    24A     -0.695247
      25A     -0.669416    26A     -0.645828    27A     -0.623199
      28A     -0.614409    29A     -0.602014    30A     -0.585109
      31A     -0.573861    32A     -0.554755    33A     -0.542449
      34A     -0.515596    35A     -0.505297    36A     -0.490360
      37A     -0.485346    38A     -0.472186    39A     -0.440608
      40A     -0.413992

  @DF-RHF Final Energy:  -569.67417889311832

   => Energetics <=

    Nuclear Repulsion Energy =            633.5310772503796670
    One-Electron Energy =               -2041.2902691365304690
    Two-Electron Energy =                 838.0850129930324783
    Total Energy =                       -569.6741788931183237
  Basis Set: (AUG-CC-PVTZ AUX)
    Blend: AUG-CC-PVTZ-RI
    Molecular point group: c1

    Geometry (in Angstrom), charge = 0, multiplicity = 1:

       Center              X                  Y                   Z               Mass
    ------------   -----------------  -----------------  -----------------  -----------------
         O           -0.114297004148    -1.798333271005     0.454813191441    15.994914619570
         O            0.358901995852     1.395943728995    -1.024737808559    15.994914619570
         O           -1.954683004148     1.373285728995     0.469023191441    15.994914619570
         O            2.715287995852     0.452538728995    -0.205726808559    15.994914619570
         O           -1.671158004148    -0.798266271005    -0.998544808559    15.994914619570
         C            0.432063995852     1.015511728995     0.349687191441    12.000000000000
         C           -0.908859004148     0.476234728995     0.840010191441    12.000000000000
         C            1.534982995852    -0.026934271005     0.420343191441    12.000000000000
         C           -1.220925404148    -0.958465571005     0.339121091441    12.000000000000
         C            1.055442995852    -1.314740271005    -0.228710808559    12.000000000000
         H            0.704728995852     1.889412728995     0.960528191441     1.007825032230
         H           -0.881410004148     0.434229728995     1.935277191441     1.007825032230
         H            1.784248995852    -0.229671271005     1.467980191441     1.007825032230
         H           -1.993479004148    -1.394904271005     0.961712191441     1.007825032230
         H            0.844074995852    -1.145576271005    -1.290027808559     1.007825032230
         H            1.806386995852    -2.099428271005    -0.126572808559     1.007825032230
         H           -0.392579004148     2.014075728995    -1.083729808559     1.007825032230
         H           -2.341235004148     0.978656728995    -0.340133808559     1.007825032230
         H            2.400172995852     0.937255728995    -0.992862808559     1.007825032230
         H           -1.991124004148    -1.680525871005    -1.263241008559     1.007825032230

  Basis Set: AUG-CC-PVTZ
    Blend: AUG-CC-PVTZ
  Basis Set: (AUG-CC-PVTZ AUX)
    Blend: AUG-CC-PVTZ-JKFIT
	 Reference Energy          =    -569.6741788931183237 [Eh]
	 Singles Energy            =      -0.0000000000000000 [Eh]
	 Same-Spin Energy          =      -0.5545300426300754 [Eh]
	 Opposite-Spin Energy      =      -1.7037669655378425 [Eh]
	 Correlation Energy        =      -2.2582970081679177 [Eh]
	 Total Energy              =    -571.9324759012862387 [Eh]

	 ================> DF-SCS-MP2 Energies <==================
	-----------------------------------------------------------
	 SCS Same-Spin Scale       =       0.3333333333333333 [-]
	 SCS Opposite-Spin Scale   =       1.2000000000000000 [-]
	 SCS Same-Spin Energy      =      -0.1848433475433585 [Eh]
	 SCS Opposite-Spin Energy  =      -2.0445203586454110 [Eh]
	 SCS Correlation Energy    =      -2.2293637061887694 [Eh]
	 SCS Total Energy          =    -571.9035425993071158 [Eh]
	-----------------------------------------------------------

  Dipole Moment: [D]
     X:    -2.1717      Y:    -1.0606      Z:    -0.2867     Total:     2.4338

*** Psi4 exiting successfully. Buy a developer a beer!
