                               Psi4 1.3.2 release

  ==> Input File <==

--------------------------------------------------------------------------
#psi4
#
memory 32 gb

molecule  {
0 1
  O       -0.1147700    -1.8002930     0.4548730
  O        0.3584290     1.3939840    -1.0246780
  O       -1.9551560     1.3713260     0.4690830
  O        2.7148150     0.4505790    -0.2056670
  O       -1.6716310    -0.8002260    -0.9984850
  C        0.4315910     1.0135520     0.3497470
  C       -0.9184371     0.4727731     0.8496920
  C        1.5345100    -0.0288940     0.4204030
  C       -1.2151430    -0.9364420     0.3397180
  C        1.0549700    -1.3167000    -0.2286510
  H        0.7042560     1.8874530     0.9605880
  H       -0.8818830     0.4322700     1.9353370
  H        1.7837760    -0.2316310     1.4680400
  H       -1.9943672    -1.3888957     0.9670763
  H        0.8436020    -1.1475360    -1.2899680
  H        1.8059140    -2.1013880    -0.1265130
  H       -0.3930520     2.0121160    -1.0836700
  H       -2.3417080     0.9766970    -0.3400740
  H        2.3997000     0.9352960    -0.9928030
  H       -1.9956420    -1.6762600    -1.2784950
units angstrom
no_reorient  #important for SAPT in psi4, default
symmetry c1  #important for SAPT in psi4, default
}

set PROPERTIES_ORIGIN ["COM"]
properties('MP2/aug-cc-pvtz', properties = ['dipole'])
--------------------------------------------------------------------------

    Molecular point group: c1
  Charge       = 0
  Multiplicity = 1
  Basis Set: AUG-CC-PVTZ
    Blend: AUG-CC-PVTZ
  Basis Set: (AUG-CC-PVTZ AUX)
    Blend: AUG-CC-PVTZ-JKFIT

    Orbital Energies [Eh]
    ---------------------

    Doubly Occupied:

       1A    -20.591907     2A    -20.580886     3A    -20.574876
       4A    -20.571134     5A    -20.557971     6A    -11.353672
       7A    -11.298027     8A    -11.290956     9A    -11.285295
      10A    -11.278028    11A     -1.438662    12A     -1.391339
      13A     -1.376130    14A     -1.354184    15A     -1.347639
      16A     -1.057442    17A     -1.023114    18A     -0.898377
      19A     -0.869759    20A     -0.798802    21A     -0.751981
      22A     -0.727062    23A     -0.712244    24A     -0.696339
      25A     -0.669175    26A     -0.646546    27A     -0.620951
      28A     -0.613808    29A     -0.603218    30A     -0.585134
      31A     -0.572004    32A     -0.555999    33A     -0.543166
      34A     -0.516971    35A     -0.502946    36A     -0.490823
      37A     -0.487971    38A     -0.471431    39A     -0.438582
      40A     -0.415206

  @DF-RHF Final Energy:  -569.67465285987498

   => Energetics <=

    Nuclear Repulsion Energy =            633.6274859458247874
    One-Electron Energy =               -2041.4847604875799334
    Two-Electron Energy =                 838.1826216818800503
    Total Energy =                       -569.6746528598749819
  Basis Set: (AUG-CC-PVTZ AUX)
    Blend: AUG-CC-PVTZ-RI
    Molecular point group: c1

    Geometry (in Angstrom), charge = 0, multiplicity = 1:

       Center              X                  Y                   Z               Mass
    ------------   -----------------  -----------------  -----------------  -----------------
         O           -0.114039151611    -1.800226482750     0.454067978037    15.994914619570
         O            0.359159848389     1.394050517250    -1.025483021963    15.994914619570
         O           -1.954425151611     1.371392517250     0.468277978037    15.994914619570
         O            2.715545848389     0.450645517250    -0.206472021963    15.994914619570
         O           -1.670900151611    -0.800159482750    -0.999290021963    15.994914619570
         C            0.432321848389     1.013618517250     0.348941978037    12.000000000000
         C           -0.917706251611     0.472839617250     0.848886978037    12.000000000000
         C            1.535240848389    -0.028827482750     0.419597978037    12.000000000000
         C           -1.214412151611    -0.936375482750     0.338912978037    12.000000000000
         C            1.055700848389    -1.316633482750    -0.229456021963    12.000000000000
         H            0.704986848389     1.887519517250     0.959782978037     1.007825032230
         H           -0.881152151611     0.432336517250     1.934531978037     1.007825032230
         H            1.784506848389    -0.231564482750     1.467234978037     1.007825032230
         H           -1.993636351611    -1.388829182750     0.966271278037     1.007825032230
         H            0.844332848389    -1.147469482750    -1.290773021963     1.007825032230
         H            1.806644848389    -2.101321482750    -0.127318021963     1.007825032230
         H           -0.392321151611     2.012182517250    -1.084475021963     1.007825032230
         H           -2.340977151611     0.976763517250    -0.340879021963     1.007825032230
         H            2.400430848389     0.935362517250    -0.993608021963     1.007825032230
         H           -1.994911151611    -1.676193482750    -1.279300021963     1.007825032230

  Basis Set: AUG-CC-PVTZ
    Blend: AUG-CC-PVTZ
  Basis Set: (AUG-CC-PVTZ AUX)
    Blend: AUG-CC-PVTZ-JKFIT
	 Reference Energy          =    -569.6746528598749819 [Eh]
	 Singles Energy            =      -0.0000000000000000 [Eh]
	 Same-Spin Energy          =      -0.5545418866515102 [Eh]
	 Opposite-Spin Energy      =      -1.7037798723840560 [Eh]
	 Correlation Energy        =      -2.2583217590355664 [Eh]
	 Total Energy              =    -571.9329746189105208 [Eh]

	 ================> DF-SCS-MP2 Energies <==================
	-----------------------------------------------------------
	 SCS Same-Spin Scale       =       0.3333333333333333 [-]
	 SCS Opposite-Spin Scale   =       1.2000000000000000 [-]
	 SCS Same-Spin Energy      =      -0.1848472955505034 [Eh]
	 SCS Opposite-Spin Energy  =      -2.0445358468608670 [Eh]
	 SCS Correlation Energy    =      -2.2293831424113701 [Eh]
	 SCS Total Energy          =    -571.9040360022863752 [Eh]
	-----------------------------------------------------------

  Dipole Moment: [D]
     X:    -2.2033      Y:    -0.9873      Z:    -0.2917     Total:     2.4320

*** Psi4 exiting successfully. Buy a developer a beer!
