                               Psi4 1.4a3.dev225

  ==> Input File <==

--------------------------------------------------------------------------
#psi4
#
memory 32 gb

molecule  {
0 1
  O       -0.2343850     1.7978400    -0.4145210
  O        0.4791390    -1.3900560     0.9851260
  O       -1.8902550    -1.4798720    -0.4079610
  O        2.7489250    -0.2990660     0.0843650
  O       -1.6766260     0.6849030     1.0797040
  C        0.4758930    -0.9871420    -0.3839460
  C       -0.9153110    -0.5160320    -0.8112700
  C        1.4974830     0.1264586    -0.4890809
  C       -1.2794180     0.8705190    -0.2725550
  C        0.9914930     1.3693070     0.2124490
  H        0.7732420    -1.8350180    -1.0199460
  H       -0.9367810    -0.4539690    -1.9062570
  H        1.7061480     0.3550680    -1.5342930
  H       -2.1075740     1.2945610    -0.8542440
  H        0.8333730     1.1741050     1.2776920
  H        1.6908660     2.1982840     0.0933200
  H       -0.2684360    -2.0097880     1.0741120
  H       -2.2907410    -1.1048270     0.4011470
  H        2.5001980    -0.8049050     0.8819700
  H       -2.0397460     1.5332780     1.3914430
units angstrom
no_reorient  #important for SAPT in psi4, default
symmetry c1  #important for SAPT in psi4, default
}

set PROPERTIES_ORIGIN ["COM"]
properties('MP2/aug-cc-pvtz', properties = ['dipole'])
--------------------------------------------------------------------------

    Molecular point group: c1
  Charge       = 0
  Multiplicity = 1
  Basis Set: AUG-CC-PVTZ
    Blend: AUG-CC-PVTZ
  Basis Set: (AUG-CC-PVTZ AUX)
    Blend: AUG-CC-PVTZ-JKFIT

    Orbital Energies [Eh]
    ---------------------

    Doubly Occupied:

       1A    -20.592339     2A    -20.581252     3A    -20.575340
       4A    -20.570372     5A    -20.556511     6A    -11.355229
       7A    -11.299827     8A    -11.291702     9A    -11.286108
      10A    -11.279515    11A     -1.438524    12A     -1.390312
      13A     -1.373957    14A     -1.353833    15A     -1.342666
      16A     -1.060226    17A     -1.023906    18A     -0.899547
      19A     -0.870379    20A     -0.797757    21A     -0.752509
      22A     -0.727150    23A     -0.712563    24A     -0.695508
      25A     -0.666873    26A     -0.646460    27A     -0.620418
      28A     -0.614832    29A     -0.601363    30A     -0.584260
      31A     -0.571292    32A     -0.554774    33A     -0.542672
      34A     -0.517108    35A     -0.502976    36A     -0.490574
      37A     -0.487213    38A     -0.472928    39A     -0.441340
      40A     -0.417864

  @DF-RHF Final Energy:  -569.67371997161717

   => Energetics <=

    Nuclear Repulsion Energy =            633.2391897117238386
    One-Electron Energy =               -2040.7058564142694195
    Two-Electron Energy =                 837.7929467309284064
    Total Energy =                       -569.6737199716171745
  Basis Set: (AUG-CC-PVTZ AUX)
    Blend: AUG-CC-PVTZ-RI
    Molecular point group: c1

    Geometry (in Angstrom), charge = 0, multiplicity = 1:

       Center              X                  Y                   Z               Mass
    ------------   -----------------  -----------------  -----------------  -----------------
         O           -0.233937295939     1.799637342505    -0.415129079462    15.994914619570
         O            0.479586704061    -1.388258657495     0.984517920538    15.994914619570
         O           -1.889807295939    -1.478074657495    -0.408569079462    15.994914619570
         O            2.749372704061    -0.297268657495     0.083756920538    15.994914619570
         O           -1.676178295939     0.686700342505     1.079095920538    15.994914619570
         C            0.476340704061    -0.985344657495    -0.384554079462    12.000000000000
         C           -0.914863295939    -0.514234657495    -0.811878079462    12.000000000000
         C            1.497930704061     0.128255942505    -0.489688979462    12.000000000000
         C           -1.278970295939     0.872316342505    -0.273163079462    12.000000000000
         C            0.991940704061     1.371104342505     0.211840920538    12.000000000000
         H            0.773689704061    -1.833220657495    -1.020554079462     1.007825032230
         H           -0.936333295939    -0.452171657495    -1.906865079462     1.007825032230
         H            1.706595704061     0.356865342505    -1.534901079462     1.007825032230
         H           -2.107126295939     1.296358342505    -0.854852079462     1.007825032230
         H            0.833820704061     1.175902342505     1.277083920538     1.007825032230
         H            1.691313704061     2.200081342505     0.092711920538     1.007825032230
         H           -0.267988295939    -2.007990657495     1.073503920538     1.007825032230
         H           -2.290293295939    -1.103029657495     0.400538920538     1.007825032230
         H            2.500645704061    -0.803107657495     0.881361920538     1.007825032230
         H           -2.039298295939     1.535075342505     1.390834920538     1.007825032230

  Basis Set: AUG-CC-PVTZ
    Blend: AUG-CC-PVTZ
  Basis Set: (AUG-CC-PVTZ AUX)
    Blend: AUG-CC-PVTZ-JKFIT
	 Reference Energy          =    -569.6737199716171745 [Eh]
	 Singles Energy            =      -0.0000000000000000 [Eh]
	 Same-Spin Energy          =      -0.5546088409440497 [Eh]
	 Opposite-Spin Energy      =      -1.7043136457837615 [Eh]
	 Correlation Energy        =      -2.2589224867278110 [Eh]
	 Total Energy              =    -571.9326424583449580 [Eh]

	 ================> DF-SCS-MP2 Energies <==================
	-----------------------------------------------------------
	 SCS Same-Spin Scale       =       0.3333333333333333 [-]
	 SCS Opposite-Spin Scale   =       1.2000000000000000 [-]
	 SCS Same-Spin Energy      =      -0.1848696136480166 [Eh]
	 SCS Opposite-Spin Energy  =      -2.0451763749405139 [Eh]
	 SCS Correlation Energy    =      -2.2300459885885302 [Eh]
	 SCS Total Energy          =    -571.9037659602057602 [Eh]
	-----------------------------------------------------------

  Dipole Moment: [D]
     X:    -2.3530      Y:     0.9923      Z:     0.3763     Total:     2.5812

*** Psi4 exiting successfully. Buy a developer a beer!
