                               Psi4 1.3.2 release

  ==> Input File <==

--------------------------------------------------------------------------
#psi4
#
memory 32 gb

molecule  {
0 1
  O       -0.1147700    -1.8002930     0.4548730
  O        0.3584290     1.3939840    -1.0246780
  O       -1.9551560     1.3713260     0.4690830
  O        2.7148150     0.4505790    -0.2056670
  O       -1.6716310    -0.8002260    -0.9984850
  C        0.4315910     1.0135520     0.3497470
  C       -0.9093320     0.4742750     0.8400700
  C        1.5345100    -0.0288940     0.4204030
  C       -1.2151430    -0.9364420     0.3397180
  C        1.0549700    -1.3167000    -0.2286510
  H        0.7042560     1.8874530     0.9605880
  H       -0.8818830     0.4322700     1.9353370
  H        1.7837760    -0.2316310     1.4680400
  H       -1.9939520    -1.3968640     0.9617720
  H        0.8436020    -1.1475360    -1.2899680
  H        1.8059140    -2.1013880    -0.1265130
  H       -0.3930520     2.0121160    -1.0836700
  H       -2.3417080     0.9766970    -0.3400740
  H        2.3997000     0.9352960    -0.9928030
  H       -1.9624136    -1.5864198    -1.2497790
units angstrom
no_reorient  #important for SAPT in psi4, default
symmetry c1  #important for SAPT in psi4, default
}

set PROPERTIES_ORIGIN ["COM"]
properties('MP2/aug-cc-pvtz', properties = ['dipole'])
--------------------------------------------------------------------------

    Molecular point group: c1
  Charge       = 0
  Multiplicity = 1
  Basis Set: AUG-CC-PVTZ
    Blend: AUG-CC-PVTZ
  Basis Set: (AUG-CC-PVTZ AUX)
    Blend: AUG-CC-PVTZ-JKFIT

    Orbital Energies [Eh]
    ---------------------

    Doubly Occupied:

       1A    -20.582676     2A    -20.581797     3A    -20.575224
       4A    -20.571658     5A    -20.558692     6A    -11.355326
       7A    -11.298941     8A    -11.291563     9A    -11.286167
      10A    -11.278838    11A     -1.450812    12A     -1.393499
      13A     -1.379617    14A     -1.364672    15A     -1.348227
      16A     -1.060002    17A     -1.026542    18A     -0.903951
      19A     -0.872122    20A     -0.805205    21A     -0.760038
      22A     -0.730651    23A     -0.713294    24A     -0.699581
      25A     -0.670887    26A     -0.647235    27A     -0.627405
      28A     -0.614808    29A     -0.604482    30A     -0.585838
      31A     -0.574051    32A     -0.557211    33A     -0.543663
      34A     -0.517290    35A     -0.505565    36A     -0.491855
      37A     -0.488808    38A     -0.472852    39A     -0.441369
      40A     -0.416643

  @DF-RHF Final Energy:  -569.66996627356855

   => Energetics <=

    Nuclear Repulsion Energy =            634.5782873158968869
    One-Electron Energy =               -2043.1983911473619173
    Two-Electron Energy =                 838.9501375578964826
    Total Energy =                       -569.6699662735685479
  Basis Set: (AUG-CC-PVTZ AUX)
    Blend: AUG-CC-PVTZ-RI
    Molecular point group: c1

    Geometry (in Angstrom), charge = 0, multiplicity = 1:

       Center              X                  Y                   Z               Mass
    ------------   -----------------  -----------------  -----------------  -----------------
         O           -0.114993269361    -1.800896482474     0.454680223116    15.994914619570
         O            0.358205730639     1.393380517526    -1.024870776884    15.994914619570
         O           -1.955379269361     1.370722517526     0.468890223116    15.994914619570
         O            2.714591730639     0.449975517526    -0.205859776884    15.994914619570
         O           -1.671854269361    -0.800829482474    -0.998677776884    15.994914619570
         C            0.431367730639     1.012948517526     0.349554223116    12.000000000000
         C           -0.909555269361     0.473671517526     0.839877223116    12.000000000000
         C            1.534286730639    -0.029497482474     0.420210223116    12.000000000000
         C           -1.215366269361    -0.937045482474     0.339525223116    12.000000000000
         C            1.054746730639    -1.317303482474    -0.228843776884    12.000000000000
         H            0.704032730639     1.886849517526     0.960395223116     1.007825032230
         H           -0.882106269361     0.431666517526     1.935144223116     1.007825032230
         H            1.783552730639    -0.232234482474     1.467847223116     1.007825032230
         H           -1.994175269361    -1.397467482474     0.961579223116     1.007825032230
         H            0.843378730639    -1.148139482474    -1.290160776884     1.007825032230
         H            1.805690730639    -2.101991482474    -0.126705776884     1.007825032230
         H           -0.393275269361     2.011512517526    -1.083862776884     1.007825032230
         H           -2.341931269361     0.976093517526    -0.340266776884     1.007825032230
         H            2.399476730639     0.934692517526    -0.992995776884     1.007825032230
         H           -1.962636869361    -1.587023282474    -1.249971776884     1.007825032230

  Basis Set: AUG-CC-PVTZ
    Blend: AUG-CC-PVTZ
  Basis Set: (AUG-CC-PVTZ AUX)
    Blend: AUG-CC-PVTZ-JKFIT
	 Reference Energy          =    -569.6699662735685479 [Eh]
	 Singles Energy            =      -0.0000000000000000 [Eh]
	 Same-Spin Energy          =      -0.5534031632938707 [Eh]
	 Opposite-Spin Energy      =      -1.7009257468469028 [Eh]
	 Correlation Energy        =      -2.2543289101407735 [Eh]
	 Total Energy              =    -571.9242951837093187 [Eh]

	 ================> DF-SCS-MP2 Energies <==================
	-----------------------------------------------------------
	 SCS Same-Spin Scale       =       0.3333333333333333 [-]
	 SCS Opposite-Spin Scale   =       1.2000000000000000 [-]
	 SCS Same-Spin Energy      =      -0.1844677210979569 [Eh]
	 SCS Opposite-Spin Energy  =      -2.0411108962162832 [Eh]
	 SCS Correlation Energy    =      -2.2255786173142402 [Eh]
	 SCS Total Energy          =    -571.8955448908827748 [Eh]
	-----------------------------------------------------------

  Dipole Moment: [D]
     X:    -2.1317      Y:    -0.9071      Z:    -0.2461     Total:     2.3298

*** Psi4 exiting successfully. Buy a developer a beer!
