                               Psi4 1.3.2 release

  ==> Input File <==

--------------------------------------------------------------------------
#psi4
#
memory 32 gb

molecule  {
0 1
  O       -0.1147700    -1.8002930     0.4548730
  O        0.3464594     1.3905274    -1.0249411
  O       -1.9551560     1.3713260     0.4690830
  O        2.7148150     0.4505790    -0.2056670
  O       -1.6716310    -0.8002260    -0.9984850
  C        0.4315910     1.0135520     0.3497470
  C       -0.9145033     0.4762898     0.8279628
  C        1.5345100    -0.0288940     0.4204030
  C       -1.2151430    -0.9364420     0.3397180
  C        1.0549700    -1.3167000    -0.2286510
  H        0.7042560     1.8874530     0.9605880
  H       -0.8818830     0.4322700     1.9353370
  H        1.7837760    -0.2316310     1.4680400
  H       -1.9939520    -1.3968640     0.9617720
  H        0.8436020    -1.1475360    -1.2899680
  H        1.8059140    -2.1013880    -0.1265130
  H       -0.3930520     2.0121160    -1.0836700
  H       -2.3417080     0.9766970    -0.3400740
  H        2.3997000     0.9352960    -0.9928030
  H       -1.9956420    -1.6762600    -1.2784950
units angstrom
no_reorient  #important for SAPT in psi4, default
symmetry c1  #important for SAPT in psi4, default
}

set PROPERTIES_ORIGIN ["COM"]
properties('MP2/aug-cc-pvtz', properties = ['dipole'])
--------------------------------------------------------------------------

    Molecular point group: c1
  Charge       = 0
  Multiplicity = 1
  Basis Set: AUG-CC-PVTZ
    Blend: AUG-CC-PVTZ
  Basis Set: (AUG-CC-PVTZ AUX)
    Blend: AUG-CC-PVTZ-JKFIT

    Orbital Energies [Eh]
    ---------------------

    Doubly Occupied:

       1A    -20.591145     2A    -20.580904     3A    -20.575404
       4A    -20.569996     5A    -20.558694     6A    -11.353537
       7A    -11.298192     8A    -11.290985     9A    -11.285941
      10A    -11.278223    11A     -1.439043    12A     -1.392870
      13A     -1.377162    14A     -1.354357    15A     -1.348876
      16A     -1.058824    17A     -1.022884    18A     -0.899262
      19A     -0.869666    20A     -0.798528    21A     -0.752680
      22A     -0.727476    23A     -0.712210    24A     -0.696995
      25A     -0.670777    26A     -0.646071    27A     -0.621138
      28A     -0.614664    29A     -0.603221    30A     -0.585153
      31A     -0.571470    32A     -0.556384    33A     -0.542289
      34A     -0.515730    35A     -0.502561    36A     -0.491418
      37A     -0.487027    38A     -0.471931    39A     -0.439705
      40A     -0.416299

  @DF-RHF Final Energy:  -569.67472975874102

   => Energetics <=

    Nuclear Repulsion Energy =            634.1081004463727595
    One-Electron Energy =               -2042.4262801049876543
    Two-Electron Energy =                 838.6434498998739855
    Total Energy =                       -569.6747297587410230
  Basis Set: (AUG-CC-PVTZ AUX)
    Blend: AUG-CC-PVTZ-RI
    Molecular point group: c1

    Geometry (in Angstrom), charge = 0, multiplicity = 1:

       Center              X                  Y                   Z               Mass
    ------------   -----------------  -----------------  -----------------  -----------------
         O           -0.113080631286    -1.800085743819     0.455869373454    15.994914619570
         O            0.348148768714     1.390734656181    -1.023944726546    15.994914619570
         O           -1.953466631286     1.371533256181     0.470079373454    15.994914619570
         O            2.716504368714     0.450786256181    -0.204670626546    15.994914619570
         O           -1.669941631286    -0.800018743819    -0.997488626546    15.994914619570
         C            0.433280368714     1.013759256181     0.350743373454    12.000000000000
         C           -0.912813931286     0.476497056181     0.828959173454    12.000000000000
         C            1.536199368714    -0.028686743819     0.421399373454    12.000000000000
         C           -1.213453631286    -0.936234743819     0.340714373454    12.000000000000
         C            1.056659368714    -1.316492743819    -0.227654626546    12.000000000000
         H            0.705945368714     1.887660256181     0.961584373454     1.007825032230
         H           -0.880193631286     0.432477256181     1.936333373454     1.007825032230
         H            1.785465368714    -0.231423743819     1.469036373454     1.007825032230
         H           -1.992262631286    -1.396656743819     0.962768373454     1.007825032230
         H            0.845291368714    -1.147328743819    -1.288971626546     1.007825032230
         H            1.807603368714    -2.101180743819    -0.125516626546     1.007825032230
         H           -0.391362631286     2.012323256181    -1.082673626546     1.007825032230
         H           -2.340018631286     0.976904256181    -0.339077626546     1.007825032230
         H            2.401389368714     0.935503256181    -0.991806626546     1.007825032230
         H           -1.993952631286    -1.676052743819    -1.277498626546     1.007825032230

  Basis Set: AUG-CC-PVTZ
    Blend: AUG-CC-PVTZ
  Basis Set: (AUG-CC-PVTZ AUX)
    Blend: AUG-CC-PVTZ-JKFIT
	 Reference Energy          =    -569.6747297587410230 [Eh]
	 Singles Energy            =      -0.0000000000000000 [Eh]
	 Same-Spin Energy          =      -0.5545734104253885 [Eh]
	 Opposite-Spin Energy      =      -1.7036903044142775 [Eh]
	 Correlation Energy        =      -2.2582637148396660 [Eh]
	 Total Energy              =    -571.9329934735807228 [Eh]

	 ================> DF-SCS-MP2 Energies <==================
	-----------------------------------------------------------
	 SCS Same-Spin Scale       =       0.3333333333333333 [-]
	 SCS Opposite-Spin Scale   =       1.2000000000000000 [-]
	 SCS Same-Spin Energy      =      -0.1848578034751295 [Eh]
	 SCS Opposite-Spin Energy  =      -2.0444283652971329 [Eh]
	 SCS Correlation Energy    =      -2.2292861687722625 [Eh]
	 SCS Total Energy          =    -571.9040159275133419 [Eh]
	-----------------------------------------------------------

  Dipole Moment: [D]
     X:    -2.1679      Y:    -0.9722      Z:    -0.3156     Total:     2.3968

*** Psi4 exiting successfully. Buy a developer a beer!
