                               Psi4 1.3.2 release

  ==> Input File <==

--------------------------------------------------------------------------
#psi4
#
memory 32 gb

molecule  {
0 1
  O       -0.1083298    -1.7929939     0.4474370
  O        0.3584290     1.3939840    -1.0246780
  O       -1.9551560     1.3713260     0.4690830
  O        2.7148150     0.4505790    -0.2056670
  O       -1.6716310    -0.8002260    -0.9984850
  C        0.4315910     1.0135520     0.3497470
  C       -0.9093320     0.4742750     0.8400700
  C        1.5345100    -0.0288940     0.4204030
  C       -1.2151430    -0.9364420     0.3397180
  C        1.0549700    -1.3167000    -0.2286510
  H        0.7042560     1.8874530     0.9605880
  H       -0.8818830     0.4322700     1.9353370
  H        1.7837760    -0.2316310     1.4680400
  H       -1.9999167    -1.3897101     0.9595256
  H        0.8436020    -1.1475360    -1.2899680
  H        1.8059140    -2.1013880    -0.1265130
  H       -0.3930520     2.0121160    -1.0836700
  H       -2.3417080     0.9766970    -0.3400740
  H        2.3997000     0.9352960    -0.9928030
  H       -1.9956420    -1.6762600    -1.2784950
units angstrom
no_reorient  #important for SAPT in psi4, default
symmetry c1  #important for SAPT in psi4, default
}

set PROPERTIES_ORIGIN ["COM"]
properties('MP2/aug-cc-pvtz', properties = ['dipole'])
--------------------------------------------------------------------------

    Molecular point group: c1
  Charge       = 0
  Multiplicity = 1
  Basis Set: AUG-CC-PVTZ
    Blend: AUG-CC-PVTZ
  Basis Set: (AUG-CC-PVTZ AUX)
    Blend: AUG-CC-PVTZ-JKFIT

    Orbital Energies [Eh]
    ---------------------

    Doubly Occupied:

       1A    -20.591538     2A    -20.580335     3A    -20.574655
       4A    -20.571039     5A    -20.557736     6A    -11.354482
       7A    -11.298334     8A    -11.290877     9A    -11.285028
      10A    -11.277213    11A     -1.440058    12A     -1.391508
      13A     -1.376282    14A     -1.354804    15A     -1.347446
      16A     -1.058736    17A     -1.023890    18A     -0.898295
      19A     -0.870650    20A     -0.798269    21A     -0.752229
      22A     -0.727970    23A     -0.713540    24A     -0.696055
      25A     -0.669637    26A     -0.646553    27A     -0.621887
      28A     -0.614226    29A     -0.603285    30A     -0.585110
      31A     -0.571675    32A     -0.555879    33A     -0.542771
      34A     -0.516247    35A     -0.503437    36A     -0.490501
      37A     -0.487658    38A     -0.470654    39A     -0.440455
      40A     -0.414967

  @DF-RHF Final Energy:  -569.67505274277937

   => Energetics <=

    Nuclear Repulsion Energy =            634.1577296802008732
    One-Electron Energy =               -2042.5337404681449698
    Two-Electron Energy =                 838.7009580451647253
    Total Energy =                       -569.6750527427793713
  Basis Set: (AUG-CC-PVTZ AUX)
    Blend: AUG-CC-PVTZ-RI
    Molecular point group: c1

    Geometry (in Angstrom), charge = 0, multiplicity = 1:

       Center              X                  Y                   Z               Mass
    ------------   -----------------  -----------------  -----------------  -----------------
         O           -0.108976324721    -1.793820071775     0.448244823194    15.994914619570
         O            0.357782475279     1.393157828225    -1.023870176806    15.994914619570
         O           -1.955802524721     1.370499828225     0.469890823194    15.994914619570
         O            2.714168475279     0.449752828225    -0.204859176806    15.994914619570
         O           -1.672277524721    -0.801052171775    -0.997677176806    15.994914619570
         C            0.430944475279     1.012725828225     0.350554823194    12.000000000000
         C           -0.909978524721     0.473448828225     0.840877823194    12.000000000000
         C            1.533863475279    -0.029720171775     0.421210823194    12.000000000000
         C           -1.215789524721    -0.937268171775     0.340525823194    12.000000000000
         C            1.054323475279    -1.317526171775    -0.227843176806    12.000000000000
         H            0.703609475279     1.886626828225     0.961395823194     1.007825032230
         H           -0.882529524721     0.431443828225     1.936144823194     1.007825032230
         H            1.783129475279    -0.232457171775     1.468847823194     1.007825032230
         H           -2.000563224721    -1.390536271775     0.960333423194     1.007825032230
         H            0.842955475279    -1.148362171775    -1.289160176806     1.007825032230
         H            1.805267475279    -2.102214171775    -0.125705176806     1.007825032230
         H           -0.393698524721     2.011289828225    -1.082862176806     1.007825032230
         H           -2.342354524721     0.975870828225    -0.339266176806     1.007825032230
         H            2.399053475279     0.934469828225    -0.991995176806     1.007825032230
         H           -1.996288524721    -1.677086171775    -1.277687176806     1.007825032230

  Basis Set: AUG-CC-PVTZ
    Blend: AUG-CC-PVTZ
  Basis Set: (AUG-CC-PVTZ AUX)
    Blend: AUG-CC-PVTZ-JKFIT
	 Reference Energy          =    -569.6750527427793713 [Eh]
	 Singles Energy            =      -0.0000000000000000 [Eh]
	 Same-Spin Energy          =      -0.5545382759001471 [Eh]
	 Opposite-Spin Energy      =      -1.7035577755530253 [Eh]
	 Correlation Energy        =      -2.2580960514531725 [Eh]
	 Total Energy              =    -571.9331487942325793 [Eh]

	 ================> DF-SCS-MP2 Energies <==================
	-----------------------------------------------------------
	 SCS Same-Spin Scale       =       0.3333333333333333 [-]
	 SCS Opposite-Spin Scale   =       1.2000000000000000 [-]
	 SCS Same-Spin Energy      =      -0.1848460919667157 [Eh]
	 SCS Opposite-Spin Energy  =      -2.0442693306636301 [Eh]
	 SCS Correlation Energy    =      -2.2291154226303460 [Eh]
	 SCS Total Energy          =    -571.9041681654097147 [Eh]
	-----------------------------------------------------------

  Dipole Moment: [D]
     X:    -2.2150      Y:    -1.0126      Z:    -0.2791     Total:     2.4514

*** Psi4 exiting successfully. Buy a developer a beer!
