                               Psi4 1.3.2 release

  ==> Input File <==

--------------------------------------------------------------------------
#psi4
#
memory 32 gb

molecule  {
0 1
  O       -0.1147700    -1.8002930     0.4548730
  O        0.3584290     1.3939840    -1.0246780
  O       -1.9551560     1.3713260     0.4690830
  O        2.7148150     0.4505790    -0.2056670
  O       -1.6716310    -0.8002260    -0.9984850
  C        0.4315910     1.0135520     0.3497470
  C       -0.9093320     0.4742750     0.8400700
  C        1.5345100    -0.0288940     0.4204030
  C       -1.2151430    -0.9364420     0.3397180
  C        1.1362851    -1.2830828    -0.2761666
  H        0.7042560     1.8874530     0.9605880
  H       -0.8818830     0.4322700     1.9353370
  H        1.7837760    -0.2316310     1.4680400
  H       -1.9939520    -1.3968640     0.9617720
  H        0.8436020    -1.1475360    -1.2899680
  H        1.8059140    -2.1013880    -0.1265130
  H       -0.3930520     2.0121160    -1.0836700
  H       -2.3417080     0.9766970    -0.3400740
  H        2.3997000     0.9352960    -0.9928030
  H       -1.9956420    -1.6762600    -1.2784950
units angstrom
no_reorient  #important for SAPT in psi4, default
symmetry c1  #important for SAPT in psi4, default
}

set PROPERTIES_ORIGIN ["COM"]
properties('MP2/aug-cc-pvtz', properties = ['dipole'])
--------------------------------------------------------------------------

    Molecular point group: c1
  Charge       = 0
  Multiplicity = 1
  Basis Set: AUG-CC-PVTZ
    Blend: AUG-CC-PVTZ
  Basis Set: (AUG-CC-PVTZ AUX)
    Blend: AUG-CC-PVTZ-JKFIT

    Orbital Energies [Eh]
    ---------------------

    Doubly Occupied:

       1A    -20.587747     2A    -20.572895     3A    -20.572435
       4A    -20.570165     5A    -20.558899     6A    -11.347975
       7A    -11.296255     8A    -11.292842     9A    -11.288427
      10A    -11.281259    11A     -1.427076    12A     -1.391062
      13A     -1.371261    14A     -1.349552    15A     -1.337752
      16A     -1.060798    17A     -1.022341    18A     -0.903635
      19A     -0.865140    20A     -0.799948    21A     -0.749419
      22A     -0.728065    23A     -0.703213    24A     -0.693126
      25A     -0.669571    26A     -0.647522    27A     -0.616864
      28A     -0.613225    29A     -0.596606    30A     -0.582615
      31A     -0.576098    32A     -0.560232    33A     -0.540655
      34A     -0.514170    35A     -0.498707    36A     -0.487515
      37A     -0.482669    38A     -0.474858    39A     -0.442607
      40A     -0.420143

  @DF-RHF Final Energy:  -569.66553735182720

   => Energetics <=

    Nuclear Repulsion Energy =            632.8250873637891800
    One-Electron Energy =               -2039.9905609941665716
    Two-Electron Energy =                 837.4999362785501944
    Total Energy =                       -569.6655373518271972
  Basis Set: (AUG-CC-PVTZ AUX)
    Blend: AUG-CC-PVTZ-RI
    Molecular point group: c1

    Geometry (in Angstrom), charge = 0, multiplicity = 1:

       Center              X                  Y                   Z               Mass
    ------------   -----------------  -----------------  -----------------  -----------------
         O           -0.121273009823    -1.802981502872     0.458673003058    15.994914619570
         O            0.351925990177     1.391295497128    -1.020877996942    15.994914619570
         O           -1.961659009823     1.368637497128     0.472883003058    15.994914619570
         O            2.708311990177     0.447890497128    -0.201866996942    15.994914619570
         O           -1.678134009823    -0.802914502872    -0.994684996942    15.994914619570
         C            0.425087990177     1.010863497128     0.353547003058    12.000000000000
         C           -0.915835009823     0.471586497128     0.843870003058    12.000000000000
         C            1.528006990177    -0.031582502872     0.424203003058    12.000000000000
         C           -1.221646009823    -0.939130502872     0.343518003058    12.000000000000
         C            1.129782090177    -1.285771302872    -0.272366596942    12.000000000000
         H            0.697752990177     1.884764497128     0.964388003058     1.007825032230
         H           -0.888386009823     0.429581497128     1.939137003058     1.007825032230
         H            1.777272990177    -0.234319502872     1.471840003058     1.007825032230
         H           -2.000455009823    -1.399552502872     0.965572003058     1.007825032230
         H            0.837098990177    -1.150224502872    -1.286167996942     1.007825032230
         H            1.799410990177    -2.104076502872    -0.122712996942     1.007825032230
         H           -0.399555009823     2.009427497128    -1.079869996942     1.007825032230
         H           -2.348211009823     0.974008497128    -0.336273996942     1.007825032230
         H            2.393196990177     0.932607497128    -0.989002996942     1.007825032230
         H           -2.002145009823    -1.678948502872    -1.274694996942     1.007825032230

  Basis Set: AUG-CC-PVTZ
    Blend: AUG-CC-PVTZ
  Basis Set: (AUG-CC-PVTZ AUX)
    Blend: AUG-CC-PVTZ-JKFIT
	 Reference Energy          =    -569.6655373518271972 [Eh]
	 Singles Energy            =      -0.0000000000000000 [Eh]
	 Same-Spin Energy          =      -0.5550278673736677 [Eh]
	 Opposite-Spin Energy      =      -1.7056665722720010 [Eh]
	 Correlation Energy        =      -2.2606944396456687 [Eh]
	 Total Energy              =    -571.9262317914729010 [Eh]

	 ================> DF-SCS-MP2 Energies <==================
	-----------------------------------------------------------
	 SCS Same-Spin Scale       =       0.3333333333333333 [-]
	 SCS Opposite-Spin Scale   =       1.2000000000000000 [-]
	 SCS Same-Spin Energy      =      -0.1850092891245559 [Eh]
	 SCS Opposite-Spin Energy  =      -2.0467998867264012 [Eh]
	 SCS Correlation Energy    =      -2.2318091758509571 [Eh]
	 SCS Total Energy          =    -571.8973465276781099 [Eh]
	-----------------------------------------------------------

  Dipole Moment: [D]
     X:    -1.9011      Y:    -0.9083      Z:    -0.4006     Total:     2.1446

*** Psi4 exiting successfully. Buy a developer a beer!
