                               Psi4 1.4a3.dev225

  ==> Input File <==

--------------------------------------------------------------------------
#psi4
#
memory 32 gb

molecule  {
0 1
  O       -0.2343850     1.7978400    -0.4145210
  O        0.4791390    -1.3900560     0.9851260
  O       -1.8902550    -1.4798720    -0.4079610
  O        2.7489250    -0.2990660     0.0843650
  O       -1.6766260     0.6849030     1.0797040
  C        0.4758930    -0.9871420    -0.3839460
  C       -0.9153110    -0.5160320    -0.8112700
  C        1.5148540     0.1205520    -0.4811210
  C       -1.2794180     0.8705190    -0.2725550
  C        0.9914930     1.3693070     0.2124490
  H        0.7786443    -1.8504224    -1.0315010
  H       -0.9367810    -0.4539690    -1.9062570
  H        1.7061480     0.3550680    -1.5342930
  H       -2.1075740     1.2945610    -0.8542440
  H        0.8333730     1.1741050     1.2776920
  H        1.6908660     2.1982840     0.0933200
  H       -0.2684360    -2.0097880     1.0741120
  H       -2.2907410    -1.1048270     0.4011470
  H        2.5001980    -0.8049050     0.8819700
  H       -2.0397460     1.5332780     1.3914430
units angstrom
no_reorient  #important for SAPT in psi4, default
symmetry c1  #important for SAPT in psi4, default
}

set PROPERTIES_ORIGIN ["COM"]
properties('MP2/aug-cc-pvtz', properties = ['dipole'])
--------------------------------------------------------------------------

    Molecular point group: c1
  Charge       = 0
  Multiplicity = 1
  Basis Set: AUG-CC-PVTZ
    Blend: AUG-CC-PVTZ
  Basis Set: (AUG-CC-PVTZ AUX)
    Blend: AUG-CC-PVTZ-JKFIT

    Orbital Energies [Eh]
    ---------------------

    Doubly Occupied:

       1A    -20.592151     2A    -20.581335     3A    -20.575287
       4A    -20.570442     5A    -20.558678     6A    -11.355047
       7A    -11.299871     8A    -11.293588     9A    -11.286444
      10A    -11.279027    11A     -1.438240    12A     -1.391039
      13A     -1.375561    14A     -1.354047    15A     -1.347560
      16A     -1.057550    17A     -1.022840    18A     -0.897445
      19A     -0.870310    20A     -0.797989    21A     -0.752384
      22A     -0.725567    23A     -0.712199    24A     -0.695879
      25A     -0.667709    26A     -0.647200    27A     -0.620620
      28A     -0.614524    29A     -0.601225    30A     -0.584642
      31A     -0.572583    32A     -0.556540    33A     -0.542860
      34A     -0.515589    35A     -0.502983    36A     -0.490422
      37A     -0.487608    38A     -0.471003    39A     -0.441169
      40A     -0.415644

  @DF-RHF Final Energy:  -569.67385746154389

   => Energetics <=

    Nuclear Repulsion Energy =            633.0248840132719579
    One-Electron Energy =               -2040.2718809404566400
    Two-Electron Energy =                 837.5731394656407929
    Total Energy =                       -569.6738574615438893
  Basis Set: (AUG-CC-PVTZ AUX)
    Blend: AUG-CC-PVTZ-RI
    Molecular point group: c1

    Geometry (in Angstrom), charge = 0, multiplicity = 1:

       Center              X                  Y                   Z               Mass
    ------------   -----------------  -----------------  -----------------  -----------------
         O           -0.235362771104     1.800213167324    -0.415688038500    15.994914619570
         O            0.478161228896    -1.387682832676     0.983958961500    15.994914619570
         O           -1.891232771104    -1.477498832676    -0.409128038500    15.994914619570
         O            2.747947228896    -0.296692832676     0.083197961500    15.994914619570
         O           -1.677603771104     0.687276167324     1.078536961500    15.994914619570
         C            0.474915228896    -0.984768832676    -0.385113038500    12.000000000000
         C           -0.916288771104    -0.513658832676    -0.812437038500    12.000000000000
         C            1.513876228896     0.122925167324    -0.482288038500    12.000000000000
         C           -1.280395771104     0.872892167324    -0.273722038500    12.000000000000
         C            0.990515228896     1.371680167324     0.211281961500    12.000000000000
         H            0.777666528896    -1.848049232676    -1.032668038500     1.007825032230
         H           -0.937758771104    -0.451595832676    -1.907424038500     1.007825032230
         H            1.705170228896     0.357441167324    -1.535460038500     1.007825032230
         H           -2.108551771104     1.296934167324    -0.855411038500     1.007825032230
         H            0.832395228896     1.176478167324     1.276524961500     1.007825032230
         H            1.689888228896     2.200657167324     0.092152961500     1.007825032230
         H           -0.269413771104    -2.007414832676     1.072944961500     1.007825032230
         H           -2.291718771104    -1.102453832676     0.399979961500     1.007825032230
         H            2.499220228896    -0.802531832676     0.880802961500     1.007825032230
         H           -2.040723771104     1.535651167324     1.390275961500     1.007825032230

  Basis Set: AUG-CC-PVTZ
    Blend: AUG-CC-PVTZ
  Basis Set: (AUG-CC-PVTZ AUX)
    Blend: AUG-CC-PVTZ-JKFIT
	 Reference Energy          =    -569.6738574615438893 [Eh]
	 Singles Energy            =      -0.0000000000000000 [Eh]
	 Same-Spin Energy          =      -0.5545629918401088 [Eh]
	 Opposite-Spin Energy      =      -1.7041504928049003 [Eh]
	 Correlation Energy        =      -2.2587134846450092 [Eh]
	 Total Energy              =    -571.9325709461888891 [Eh]

	 ================> DF-SCS-MP2 Energies <==================
	-----------------------------------------------------------
	 SCS Same-Spin Scale       =       0.3333333333333333 [-]
	 SCS Opposite-Spin Scale   =       1.2000000000000000 [-]
	 SCS Same-Spin Energy      =      -0.1848543306133696 [Eh]
	 SCS Opposite-Spin Energy  =      -2.0449805913658801 [Eh]
	 SCS Correlation Energy    =      -2.2298349219792497 [Eh]
	 SCS Total Energy          =    -571.9036923835230937 [Eh]
	-----------------------------------------------------------

  Dipole Moment: [D]
     X:    -2.2984      Y:     0.9762      Z:     0.4098     Total:     2.5305

*** Psi4 exiting successfully. Buy a developer a beer!
