                               Psi4 1.3.2 release

  ==> Input File <==

--------------------------------------------------------------------------
#psi4
#
memory 32 gb

molecule  {
0 1
  O       -0.1147700    -1.8002930     0.4548730
  O        0.3584290     1.3939840    -1.0246780
  O       -1.9551560     1.3713260     0.4690830
  O        2.7148150     0.4505790    -0.2056670
  O       -1.6716310    -0.8002260    -0.9984850
  C        0.4315910     1.0135520     0.3497470
  C       -0.8731513     0.4792075     0.8012082
  C        1.5345100    -0.0288940     0.4204030
  C       -1.2151430    -0.9364420     0.3397180
  C        1.0549700    -1.3167000    -0.2286510
  H        0.7042560     1.8874530     0.9605880
  H       -0.8818830     0.4322700     1.9353370
  H        1.7837760    -0.2316310     1.4680400
  H       -1.9916987    -1.4283806     0.9400852
  H        0.8436020    -1.1475360    -1.2899680
  H        1.8059140    -2.1013880    -0.1265130
  H       -0.3930520     2.0121160    -1.0836700
  H       -2.3417080     0.9766970    -0.3400740
  H        2.3997000     0.9352960    -0.9928030
  H       -1.9956420    -1.6762600    -1.2784950
units angstrom
no_reorient  #important for SAPT in psi4, default
symmetry c1  #important for SAPT in psi4, default
}

set PROPERTIES_ORIGIN ["COM"]
properties('MP2/aug-cc-pvtz', properties = ['dipole'])
--------------------------------------------------------------------------

    Molecular point group: c1
  Charge       = 0
  Multiplicity = 1
  Basis Set: AUG-CC-PVTZ
    Blend: AUG-CC-PVTZ
  Basis Set: (AUG-CC-PVTZ AUX)
    Blend: AUG-CC-PVTZ-JKFIT

    Orbital Energies [Eh]
    ---------------------

    Doubly Occupied:

       1A    -20.590426     2A    -20.580274     3A    -20.573783
       4A    -20.571573     5A    -20.559421     6A    -11.354976
       7A    -11.300221     8A    -11.291191     9A    -11.287120
      10A    -11.278699    11A     -1.439096    12A     -1.392516
      13A     -1.373955    14A     -1.353214    15A     -1.347754
      16A     -1.066196    17A     -1.022707    18A     -0.900303
      19A     -0.871449    20A     -0.796652    21A     -0.753453
      22A     -0.729939    23A     -0.711540    24A     -0.694528
      25A     -0.672146    26A     -0.645453    27A     -0.621823
      28A     -0.615828    29A     -0.601616    30A     -0.582577
      31A     -0.570725    32A     -0.556455    33A     -0.540830
      34A     -0.512846    35A     -0.501571    36A     -0.491760
      37A     -0.485586    38A     -0.472461    39A     -0.448264
      40A     -0.417590

  @DF-RHF Final Energy:  -569.66988190686197

   => Energetics <=

    Nuclear Repulsion Energy =            634.6215093830114711
    One-Electron Energy =               -2043.4257468192477063
    Two-Electron Energy =                 839.1343555293742611
    Total Energy =                       -569.6698819068619741
  Basis Set: (AUG-CC-PVTZ AUX)
    Blend: AUG-CC-PVTZ-RI
    Molecular point group: c1

    Geometry (in Angstrom), charge = 0, multiplicity = 1:

       Center              X                  Y                   Z               Mass
    ------------   -----------------  -----------------  -----------------  -----------------
         O           -0.117678663142    -1.800475854462     0.458126601476    15.994914619570
         O            0.355520336858     1.393801145538    -1.021424398524    15.994914619570
         O           -1.958064663142     1.371143145538     0.472336601476    15.994914619570
         O            2.711906336858     0.450396145538    -0.202413398524    15.994914619570
         O           -1.674539663142    -0.800408854462    -0.995231398524    15.994914619570
         C            0.428682336858     1.013369145538     0.353000601476    12.000000000000
         C           -0.876059963142     0.479024645538     0.804461801476    12.000000000000
         C            1.531601336858    -0.029076854462     0.423656601476    12.000000000000
         C           -1.218051663142    -0.936624854462     0.342971601476    12.000000000000
         C            1.052061336858    -1.316882854462    -0.225397398524    12.000000000000
         H            0.701347336858     1.887270145538     0.963841601476     1.007825032230
         H           -0.884791663142     0.432087145538     1.938590601476     1.007825032230
         H            1.780867336858    -0.231813854462     1.471293601476     1.007825032230
         H           -1.994607363142    -1.428563454462     0.943338801476     1.007825032230
         H            0.840693336858    -1.147718854462    -1.286714398524     1.007825032230
         H            1.803005336858    -2.101570854462    -0.123259398524     1.007825032230
         H           -0.395960663142     2.011933145538    -1.080416398524     1.007825032230
         H           -2.344616663142     0.976514145538    -0.336820398524     1.007825032230
         H            2.396791336858     0.935113145538    -0.989549398524     1.007825032230
         H           -1.998550663142    -1.676442854462    -1.275241398524     1.007825032230

  Basis Set: AUG-CC-PVTZ
    Blend: AUG-CC-PVTZ
  Basis Set: (AUG-CC-PVTZ AUX)
    Blend: AUG-CC-PVTZ-JKFIT
	 Reference Energy          =    -569.6698819068619741 [Eh]
	 Singles Energy            =      -0.0000000000000000 [Eh]
	 Same-Spin Energy          =      -0.5551432129839233 [Eh]
	 Opposite-Spin Energy      =      -1.7048705412290877 [Eh]
	 Correlation Energy        =      -2.2600137542130110 [Eh]
	 Total Energy              =    -571.9298956610749656 [Eh]

	 ================> DF-SCS-MP2 Energies <==================
	-----------------------------------------------------------
	 SCS Same-Spin Scale       =       0.3333333333333333 [-]
	 SCS Opposite-Spin Scale   =       1.2000000000000000 [-]
	 SCS Same-Spin Energy      =      -0.1850477376613078 [Eh]
	 SCS Opposite-Spin Energy  =      -2.0458446494749052 [Eh]
	 SCS Correlation Energy    =      -2.2308923871362127 [Eh]
	 SCS Total Energy          =    -571.9007742939982109 [Eh]
	-----------------------------------------------------------

  Dipole Moment: [D]
     X:    -2.0957      Y:    -1.0209      Z:    -0.3324     Total:     2.3547

*** Psi4 exiting successfully. Buy a developer a beer!
