                               Psi4 1.3.2 release

  ==> Input File <==

--------------------------------------------------------------------------
#psi4
#
memory 32 gb

molecule  {
0 1
  O       -0.1147700    -1.8002930     0.4548730
  O        0.3584290     1.3939840    -1.0246780
  O       -1.9551560     1.3713260     0.4690830
  O        2.7148150     0.4505790    -0.2056670
  O       -1.6716310    -0.8002260    -0.9984850
  C        0.4315910     1.0135520     0.3497470
  C       -0.9093320     0.4742750     0.8400700
  C        1.5345100    -0.0288940     0.4204030
  C       -1.2151430    -0.9364420     0.3397180
  C        1.0549700    -1.3167000    -0.2286510
  H        0.7042560     1.8874530     0.9605880
  H       -0.8818830     0.4322700     1.9353370
  H        1.7837760    -0.2316310     1.4680400
  H       -1.8520853    -1.3129942     0.8484596
  H        0.8436020    -1.1475360    -1.2899680
  H        1.8059140    -2.1013880    -0.1265130
  H       -0.3930520     2.0121160    -1.0836700
  H       -2.3417080     0.9766970    -0.3400740
  H        2.3997000     0.9352960    -0.9928030
  H       -1.9956420    -1.6762600    -1.2784950
units angstrom
no_reorient  #important for SAPT in psi4, default
symmetry c1  #important for SAPT in psi4, default
}

set PROPERTIES_ORIGIN ["COM"]
properties('MP2/aug-cc-pvtz', properties = ['dipole'])
--------------------------------------------------------------------------

    Molecular point group: c1
  Charge       = 0
  Multiplicity = 1
  Basis Set: AUG-CC-PVTZ
    Blend: AUG-CC-PVTZ
  Basis Set: (AUG-CC-PVTZ AUX)
    Blend: AUG-CC-PVTZ-JKFIT

    Orbital Energies [Eh]
    ---------------------

    Doubly Occupied:

       1A    -20.589522     2A    -20.579033     3A    -20.574693
       4A    -20.570680     5A    -20.557702     6A    -11.329419
       7A    -11.297360     8A    -11.290250     9A    -11.284989
      10A    -11.277135    11A     -1.439351    12A     -1.391111
      13A     -1.375169    14A     -1.352752    15A     -1.347259
      16A     -1.058577    17A     -1.034859    18A     -0.907472
      19A     -0.878708    20A     -0.797579    21A     -0.772632
      22A     -0.730012    23A     -0.714490    24A     -0.697013
      25A     -0.669229    26A     -0.647433    27A     -0.620647
      28A     -0.613746    29A     -0.602301    30A     -0.585534
      31A     -0.577854    32A     -0.555286    33A     -0.542526
      34A     -0.517405    35A     -0.509731    36A     -0.490974
      37A     -0.486757    38A     -0.471817    39A     -0.441587
      40A     -0.415861

  @DF-RHF Final Energy:  -569.64304648949690

   => Energetics <=

    Nuclear Repulsion Energy =            635.2288296127403555
    One-Electron Energy =               -2044.5508431487362486
    Two-Electron Energy =                 839.6789670464989968
    Total Energy =                       -569.6430464894968964
  Basis Set: (AUG-CC-PVTZ AUX)
    Blend: AUG-CC-PVTZ-RI
    Molecular point group: c1

    Geometry (in Angstrom), charge = 0, multiplicity = 1:

       Center              X                  Y                   Z               Mass
    ------------   -----------------  -----------------  -----------------  -----------------
         O           -0.115722935059    -1.800856382472     0.455634152362    15.994914619570
         O            0.357476064941     1.393420617528    -1.023916847638    15.994914619570
         O           -1.956108935059     1.370762617528     0.469844152362    15.994914619570
         O            2.713862064941     0.450015617528    -0.204905847638    15.994914619570
         O           -1.672583935059    -0.800789382472    -0.997723847638    15.994914619570
         C            0.430638064941     1.012988617528     0.350508152362    12.000000000000
         C           -0.910284935059     0.473711617528     0.840831152362    12.000000000000
         C            1.533557064941    -0.029457382472     0.421164152362    12.000000000000
         C           -1.216095935059    -0.937005382472     0.340479152362    12.000000000000
         C            1.054017064941    -1.317263382472    -0.227889847638    12.000000000000
         H            0.703303064941     1.886889617528     0.961349152362     1.007825032230
         H           -0.882835935059     0.431706617528     1.936098152362     1.007825032230
         H            1.782823064941    -0.232194382472     1.468801152362     1.007825032230
         H           -1.853038235059    -1.313557582472     0.849220752362     1.007825032230
         H            0.842649064941    -1.148099382472    -1.289206847638     1.007825032230
         H            1.804961064941    -2.101951382472    -0.125751847638     1.007825032230
         H           -0.394004935059     2.011552617528    -1.082908847638     1.007825032230
         H           -2.342660935059     0.976133617528    -0.339312847638     1.007825032230
         H            2.398747064941     0.934732617528    -0.992041847638     1.007825032230
         H           -1.996594935059    -1.676823382472    -1.277733847638     1.007825032230

  Basis Set: AUG-CC-PVTZ
    Blend: AUG-CC-PVTZ
  Basis Set: (AUG-CC-PVTZ AUX)
    Blend: AUG-CC-PVTZ-JKFIT
	 Reference Energy          =    -569.6430464894968964 [Eh]
	 Singles Energy            =      -0.0000000000000000 [Eh]
	 Same-Spin Energy          =      -0.5543261477281648 [Eh]
	 Opposite-Spin Energy      =      -1.7028818541277804 [Eh]
	 Correlation Energy        =      -2.2572080018559451 [Eh]
	 Total Energy              =    -571.9002544913528254 [Eh]

	 ================> DF-SCS-MP2 Energies <==================
	-----------------------------------------------------------
	 SCS Same-Spin Scale       =       0.3333333333333333 [-]
	 SCS Opposite-Spin Scale   =       1.2000000000000000 [-]
	 SCS Same-Spin Energy      =      -0.1847753825760549 [Eh]
	 SCS Opposite-Spin Energy  =      -2.0434582249533362 [Eh]
	 SCS Correlation Energy    =      -2.2282336075293911 [Eh]
	 SCS Total Energy          =    -571.8712800970263288 [Eh]
	-----------------------------------------------------------

  Dipole Moment: [D]
     X:    -2.2419      Y:    -1.0133      Z:    -0.2419     Total:     2.4721

*** Psi4 exiting successfully. Buy a developer a beer!
