                               Psi4 1.4a3.dev225

  ==> Input File <==

--------------------------------------------------------------------------
#psi4
#
memory 32 gb

molecule  {
0 1
  O       -0.2343850     1.7978400    -0.4145210
  O        0.4791390    -1.3900560     0.9851260
  O       -1.8902550    -1.4798720    -0.4079610
  O        2.7489250    -0.2990660     0.0843650
  O       -1.6766260     0.6849030     1.0797040
  C        0.4758930    -0.9871420    -0.3839460
  C       -0.9153110    -0.5160320    -0.8112700
  C        1.5148540     0.1205520    -0.4811210
  C       -1.2794180     0.8705190    -0.2725550
  C        0.9914930     1.3693070     0.2124490
  H        0.7732420    -1.8350180    -1.0199460
  H       -0.9367810    -0.4539690    -1.9062570
  H        1.7096394     0.3593483    -1.5535151
  H       -2.1075740     1.2945610    -0.8542440
  H        0.8333730     1.1741050     1.2776920
  H        1.6908660     2.1982840     0.0933200
  H       -0.2684360    -2.0097880     1.0741120
  H       -2.2907410    -1.1048270     0.4011470
  H        2.5001980    -0.8049050     0.8819700
  H       -2.0397460     1.5332780     1.3914430
units angstrom
no_reorient  #important for SAPT in psi4, default
symmetry c1  #important for SAPT in psi4, default
}

set PROPERTIES_ORIGIN ["COM"]
properties('MP2/aug-cc-pvtz', properties = ['dipole'])
--------------------------------------------------------------------------

    Molecular point group: c1
  Charge       = 0
  Multiplicity = 1
  Basis Set: AUG-CC-PVTZ
    Blend: AUG-CC-PVTZ
  Basis Set: (AUG-CC-PVTZ AUX)
    Blend: AUG-CC-PVTZ-JKFIT

    Orbital Energies [Eh]
    ---------------------

    Doubly Occupied:

       1A    -20.592071     2A    -20.581216     3A    -20.575265
       4A    -20.570186     5A    -20.558963     6A    -11.354904
       7A    -11.299678     8A    -11.291403     9A    -11.288668
      10A    -11.279070    11A     -1.438138    12A     -1.391040
      13A     -1.375546    14A     -1.353989    15A     -1.347596
      16A     -1.057552    17A     -1.022498    18A     -0.898651
      19A     -0.869397    20A     -0.796790    21A     -0.752041
      22A     -0.726950    23A     -0.712296    24A     -0.695969
      25A     -0.667857    26A     -0.647352    27A     -0.620733
      28A     -0.614722    29A     -0.601441    30A     -0.583401
      31A     -0.572545    32A     -0.556702    33A     -0.542820
      34A     -0.515026    35A     -0.503051    36A     -0.490616
      37A     -0.487347    38A     -0.470646    39A     -0.441193
      40A     -0.416096

  @DF-RHF Final Energy:  -569.67391865495290

   => Energetics <=

    Nuclear Repulsion Energy =            633.0306621212829441
    One-Electron Energy =               -2040.2863111447222764
    Two-Electron Energy =                 837.5817303684863191
    Total Energy =                       -569.6739186549528995
  Basis Set: (AUG-CC-PVTZ AUX)
    Blend: AUG-CC-PVTZ-RI
    Molecular point group: c1

    Geometry (in Angstrom), charge = 0, multiplicity = 1:

       Center              X                  Y                   Z               Mass
    ------------   -----------------  -----------------  -----------------  -----------------
         O           -0.235349936605     1.800080955660    -0.415636542666    15.994914619570
         O            0.478174063395    -1.387815044340     0.984010457334    15.994914619570
         O           -1.891219936605    -1.477631044340    -0.409076542666    15.994914619570
         O            2.747960063395    -0.296825044340     0.083249457334    15.994914619570
         O           -1.677590936605     0.687143955660     1.078588457334    15.994914619570
         C            0.474928063395    -0.984901044340    -0.385061542666    12.000000000000
         C           -0.916275936605    -0.513791044340    -0.812385542666    12.000000000000
         C            1.513889063395     0.122792955660    -0.482236542666    12.000000000000
         C           -1.280382936605     0.872759955660    -0.273670542666    12.000000000000
         C            0.990528063395     1.371547955660     0.211333457334    12.000000000000
         H            0.772277063395    -1.832777044340    -1.021061542666     1.007825032230
         H           -0.937745936605    -0.451728044340    -1.907372542666     1.007825032230
         H            1.708674463395     0.361589255660    -1.554630642666     1.007825032230
         H           -2.108538936605     1.296801955660    -0.855359542666     1.007825032230
         H            0.832408063395     1.176345955660     1.276576457334     1.007825032230
         H            1.689901063395     2.200524955660     0.092204457334     1.007825032230
         H           -0.269400936605    -2.007547044340     1.072996457334     1.007825032230
         H           -2.291705936605    -1.102586044340     0.400031457334     1.007825032230
         H            2.499233063395    -0.802664044340     0.880854457334     1.007825032230
         H           -2.040710936605     1.535518955660     1.390327457334     1.007825032230

  Basis Set: AUG-CC-PVTZ
    Blend: AUG-CC-PVTZ
  Basis Set: (AUG-CC-PVTZ AUX)
    Blend: AUG-CC-PVTZ-JKFIT
	 Reference Energy          =    -569.6739186549528995 [Eh]
	 Singles Energy            =      -0.0000000000000000 [Eh]
	 Same-Spin Energy          =      -0.5545453060970184 [Eh]
	 Opposite-Spin Energy      =      -1.7041242516797552 [Eh]
	 Correlation Energy        =      -2.2586695577767735 [Eh]
	 Total Energy              =    -571.9325882127296836 [Eh]

	 ================> DF-SCS-MP2 Energies <==================
	-----------------------------------------------------------
	 SCS Same-Spin Scale       =       0.3333333333333333 [-]
	 SCS Opposite-Spin Scale   =       1.2000000000000000 [-]
	 SCS Same-Spin Energy      =      -0.1848484353656728 [Eh]
	 SCS Opposite-Spin Energy  =      -2.0449491020157060 [Eh]
	 SCS Correlation Energy    =      -2.2297975373813790 [Eh]
	 SCS Total Energy          =    -571.9037161923342865 [Eh]
	-----------------------------------------------------------

  Dipole Moment: [D]
     X:    -2.2933      Y:     0.9632      Z:     0.4080     Total:     2.5207

*** Psi4 exiting successfully. Buy a developer a beer!
