                               Psi4 1.3.2 release

  ==> Input File <==

--------------------------------------------------------------------------
#psi4
#
memory 32 gb

molecule  {
0 1
  O       -0.1147700    -1.8002930     0.4548730
  O        0.3584290     1.3939840    -1.0246780
  O       -1.9551560     1.3713260     0.4690830
  O        2.7148150     0.4505790    -0.2056670
  O       -1.6716310    -0.8002260    -0.9984850
  C        0.4139766     1.0091808     0.2996618
  C       -0.9093320     0.4742750     0.8400700
  C        1.5345100    -0.0288940     0.4204030
  C       -1.2151430    -0.9364420     0.3397180
  C        1.0549700    -1.3167000    -0.2286510
  H        0.7042560     1.8874530     0.9605880
  H       -0.9176060     0.4185446     1.9350373
  H        1.7837760    -0.2316310     1.4680400
  H       -1.9939520    -1.3968640     0.9617720
  H        0.8436020    -1.1475360    -1.2899680
  H        1.8059140    -2.1013880    -0.1265130
  H       -0.3930520     2.0121160    -1.0836700
  H       -2.3417080     0.9766970    -0.3400740
  H        2.3997000     0.9352960    -0.9928030
  H       -1.9956420    -1.6762600    -1.2784950
units angstrom
no_reorient  #important for SAPT in psi4, default
symmetry c1  #important for SAPT in psi4, default
}

set PROPERTIES_ORIGIN ["COM"]
properties('MP2/aug-cc-pvtz', properties = ['dipole'])
--------------------------------------------------------------------------

    Molecular point group: c1
  Charge       = 0
  Multiplicity = 1
  Basis Set: AUG-CC-PVTZ
    Blend: AUG-CC-PVTZ
  Basis Set: (AUG-CC-PVTZ AUX)
    Blend: AUG-CC-PVTZ-JKFIT

    Orbital Energies [Eh]
    ---------------------

    Doubly Occupied:

       1A    -20.591644     2A    -20.580427     3A    -20.577366
       4A    -20.573805     5A    -20.558031     6A    -11.352538
       7A    -11.297049     8A    -11.292376     9A    -11.284980
      10A    -11.277163    11A     -1.439539    12A     -1.404900
      13A     -1.376149    14A     -1.354738    15A     -1.352722
      16A     -1.055453    17A     -1.022578    18A     -0.895692
      19A     -0.868162    20A     -0.802386    21A     -0.754683
      22A     -0.727202    23A     -0.713084    24A     -0.698024
      25A     -0.675701    26A     -0.645873    27A     -0.621271
      28A     -0.618012    29A     -0.602527    30A     -0.584349
      31A     -0.571120    32A     -0.554818    33A     -0.549924
      34A     -0.517252    35A     -0.502059    36A     -0.491362
      37A     -0.487404    38A     -0.469537    39A     -0.438405
      40A     -0.409915

  @DF-RHF Final Energy:  -569.67196313124350

   => Energetics <=

    Nuclear Repulsion Energy =            634.4893560244910304
    One-Electron Energy =               -2043.1422051872152679
    Two-Electron Energy =                 838.9808860314806225
    Total Energy =                       -569.6719631312435013
  Basis Set: (AUG-CC-PVTZ AUX)
    Blend: AUG-CC-PVTZ-RI
    Molecular point group: c1

    Geometry (in Angstrom), charge = 0, multiplicity = 1:

       Center              X                  Y                   Z               Mass
    ------------   -----------------  -----------------  -----------------  -----------------
         O           -0.113121503535    -1.799851314509     0.458880511617    15.994914619570
         O            0.360077496465     1.394425685491    -1.020670488383    15.994914619570
         O           -1.953507503535     1.371767685491     0.473090511617    15.994914619570
         O            2.716463496465     0.451020685491    -0.201659488383    15.994914619570
         O           -1.669982503535    -0.799784314509    -0.994477488383    15.994914619570
         C            0.415625096465     1.009622485491     0.303669311617    12.000000000000
         C           -0.907683503535     0.474716685491     0.844077511617    12.000000000000
         C            1.536158496465    -0.028452314509     0.424410511617    12.000000000000
         C           -1.213494503535    -0.936000314509     0.343725511617    12.000000000000
         C            1.056618496465    -1.316258314509    -0.224643488383    12.000000000000
         H            0.705904496465     1.887894685491     0.964595511617     1.007825032230
         H           -0.915957503535     0.418986285491     1.939044811617     1.007825032230
         H            1.785424496465    -0.231189314509     1.472047511617     1.007825032230
         H           -1.992303503535    -1.396422314509     0.965779511617     1.007825032230
         H            0.845250496465    -1.147094314509    -1.285960488383     1.007825032230
         H            1.807562496465    -2.100946314509    -0.122505488383     1.007825032230
         H           -0.391403503535     2.012557685491    -1.079662488383     1.007825032230
         H           -2.340059503535     0.977138685491    -0.336066488383     1.007825032230
         H            2.401348496465     0.935737685491    -0.988795488383     1.007825032230
         H           -1.993993503535    -1.675818314509    -1.274487488383     1.007825032230

  Basis Set: AUG-CC-PVTZ
    Blend: AUG-CC-PVTZ
  Basis Set: (AUG-CC-PVTZ AUX)
    Blend: AUG-CC-PVTZ-JKFIT
	 Reference Energy          =    -569.6719631312435013 [Eh]
	 Singles Energy            =      -0.0000000000000000 [Eh]
	 Same-Spin Energy          =      -0.5547562243968330 [Eh]
	 Opposite-Spin Energy      =      -1.7035378559805299 [Eh]
	 Correlation Energy        =      -2.2582940803773628 [Eh]
	 Total Energy              =    -571.9302572116208694 [Eh]

	 ================> DF-SCS-MP2 Energies <==================
	-----------------------------------------------------------
	 SCS Same-Spin Scale       =       0.3333333333333333 [-]
	 SCS Opposite-Spin Scale   =       1.2000000000000000 [-]
	 SCS Same-Spin Energy      =      -0.1849187414656110 [Eh]
	 SCS Opposite-Spin Energy  =      -2.0442454271766359 [Eh]
	 SCS Correlation Energy    =      -2.2291641686422468 [Eh]
	 SCS Total Energy          =    -571.9011272998857294 [Eh]
	-----------------------------------------------------------

  Dipole Moment: [D]
     X:    -2.2131      Y:    -0.9738      Z:    -0.4432     Total:     2.4582

*** Psi4 exiting successfully. Buy a developer a beer!
