                               Psi4 1.3.2 release

  ==> Input File <==

--------------------------------------------------------------------------
#psi4
#
memory 32 gb

molecule  {
0 1
  O       -0.1150382    -1.8021612     0.4427699
  O        0.3584290     1.3939840    -1.0246780
  O       -1.9551560     1.3713260     0.4690830
  O        2.7148150     0.4505790    -0.2056670
  O       -1.6627474    -0.8080083    -1.0022501
  C        0.4315910     1.0135520     0.3497470
  C       -0.9093320     0.4742750     0.8400700
  C        1.5345100    -0.0288940     0.4204030
  C       -1.2151430    -0.9364420     0.3397180
  C        1.0549700    -1.3167000    -0.2286510
  H        0.7042560     1.8874530     0.9605880
  H       -0.8818830     0.4322700     1.9353370
  H        1.7837760    -0.2316310     1.4680400
  H       -1.9939520    -1.3968640     0.9617720
  H        0.8436020    -1.1475360    -1.2899680
  H        1.8059140    -2.1013880    -0.1265130
  H       -0.3930520     2.0121160    -1.0836700
  H       -2.3417080     0.9766970    -0.3400740
  H        2.3997000     0.9352960    -0.9928030
  H       -1.9956420    -1.6762600    -1.2784950
units angstrom
no_reorient  #important for SAPT in psi4, default
symmetry c1  #important for SAPT in psi4, default
}

set PROPERTIES_ORIGIN ["COM"]
properties('MP2/aug-cc-pvtz', properties = ['dipole'])
--------------------------------------------------------------------------

    Molecular point group: c1
  Charge       = 0
  Multiplicity = 1
  Basis Set: AUG-CC-PVTZ
    Blend: AUG-CC-PVTZ
  Basis Set: (AUG-CC-PVTZ AUX)
    Blend: AUG-CC-PVTZ-JKFIT

    Orbital Energies [Eh]
    ---------------------

    Doubly Occupied:

       1A    -20.590314     2A    -20.579823     3A    -20.575307
       4A    -20.571255     5A    -20.558190     6A    -11.354188
       7A    -11.298987     8A    -11.291172     9A    -11.285534
      10A    -11.277324    11A     -1.439534    12A     -1.391808
      13A     -1.375868    14A     -1.354158    15A     -1.347787
      16A     -1.059262    17A     -1.023308    18A     -0.898697
      19A     -0.870756    20A     -0.798637    21A     -0.752215
      22A     -0.727688    23A     -0.712525    24A     -0.696638
      25A     -0.669935    26A     -0.646336    27A     -0.621011
      28A     -0.614247    29A     -0.603411    30A     -0.584747
      31A     -0.571879    32A     -0.555853    33A     -0.543120
      34A     -0.516245    35A     -0.502842    36A     -0.491062
      37A     -0.487504    38A     -0.470379    39A     -0.440842
      40A     -0.415810

  @DF-RHF Final Energy:  -569.67520541180966

   => Energetics <=

    Nuclear Repulsion Energy =            633.9547113167706129
    One-Electron Energy =               -2042.1274326219788691
    Two-Electron Energy =                 838.4975158933984858
    Total Energy =                       -569.6752054118096567
  Basis Set: (AUG-CC-PVTZ AUX)
    Blend: AUG-CC-PVTZ-RI
    Molecular point group: c1

    Geometry (in Angstrom), charge = 0, multiplicity = 1:

       Center              X                  Y                   Z               Mass
    ------------   -----------------  -----------------  -----------------  -----------------
         O           -0.115956652375    -1.801132576390     0.444461467584    15.994914619570
         O            0.357510547625     1.395012623610    -1.022986432416    15.994914619570
         O           -1.956074452375     1.372354623610     0.470774567584    15.994914619570
         O            2.713896547625     0.451607623610    -0.203975432416    15.994914619570
         O           -1.663665852375    -0.806979676390    -1.000558532416    15.994914619570
         C            0.430672547625     1.014580623610     0.351438567584    12.000000000000
         C           -0.910250452375     0.475303623610     0.841761567584    12.000000000000
         C            1.533591547625    -0.027865376390     0.422094567584    12.000000000000
         C           -1.216061452375    -0.935413376390     0.341409567584    12.000000000000
         C            1.054051547625    -1.315671376390    -0.226959432416    12.000000000000
         H            0.703337547625     1.888481623610     0.962279567584     1.007825032230
         H           -0.882801452375     0.433298623610     1.937028567584     1.007825032230
         H            1.782857547625    -0.230602376390     1.469731567584     1.007825032230
         H           -1.994870452375    -1.395835376390     0.963463567584     1.007825032230
         H            0.842683547625    -1.146507376390    -1.288276432416     1.007825032230
         H            1.804995547625    -2.100359376390    -0.124821432416     1.007825032230
         H           -0.393970452375     2.013144623610    -1.081978432416     1.007825032230
         H           -2.342626452375     0.977725623610    -0.338382432416     1.007825032230
         H            2.398781547625     0.936324623610    -0.991111432416     1.007825032230
         H           -1.996560452375    -1.675231376390    -1.276803432416     1.007825032230

  Basis Set: AUG-CC-PVTZ
    Blend: AUG-CC-PVTZ
  Basis Set: (AUG-CC-PVTZ AUX)
    Blend: AUG-CC-PVTZ-JKFIT
	 Reference Energy          =    -569.6752054118096567 [Eh]
	 Singles Energy            =      -0.0000000000000000 [Eh]
	 Same-Spin Energy          =      -0.5544783280100625 [Eh]
	 Opposite-Spin Energy      =      -1.7035483061651828 [Eh]
	 Correlation Energy        =      -2.2580266341752453 [Eh]
	 Total Energy              =    -571.9332320459849370 [Eh]

	 ================> DF-SCS-MP2 Energies <==================
	-----------------------------------------------------------
	 SCS Same-Spin Scale       =       0.3333333333333333 [-]
	 SCS Opposite-Spin Scale   =       1.2000000000000000 [-]
	 SCS Same-Spin Energy      =      -0.1848261093366875 [Eh]
	 SCS Opposite-Spin Energy  =      -2.0442579673982193 [Eh]
	 SCS Correlation Energy    =      -2.2290840767349067 [Eh]
	 SCS Total Energy          =    -571.9042894885445776 [Eh]
	-----------------------------------------------------------

  Dipole Moment: [D]
     X:    -2.2117      Y:    -0.9679      Z:    -0.2604     Total:     2.4283

*** Psi4 exiting successfully. Buy a developer a beer!
