                               Psi4 1.3.2 release

  ==> Input File <==

--------------------------------------------------------------------------
#psi4
#
memory 32 gb

molecule  {
0 1
  O       -0.1147700    -1.8002930     0.4548730
  O        0.3584290     1.3939840    -1.0246780
  O       -1.9442578     1.3628577     0.4212273
  O        2.7148150     0.4505790    -0.2056670
  O       -1.6716310    -0.8002260    -0.9984850
  C        0.4315910     1.0135520     0.3497470
  C       -0.9093320     0.4742750     0.8400700
  C        1.5345100    -0.0288940     0.4204030
  C       -1.2151430    -0.9364420     0.3397180
  C        1.0549700    -1.3167000    -0.2286510
  H        0.7042560     1.8874530     0.9605880
  H       -0.8527832     0.4075253     1.9329901
  H        1.7837760    -0.2316310     1.4680400
  H       -1.9939520    -1.3968640     0.9617720
  H        0.8436020    -1.1475360    -1.2899680
  H        1.8059140    -2.1013880    -0.1265130
  H       -0.3930520     2.0121160    -1.0836700
  H       -2.3417080     0.9766970    -0.3400740
  H        2.3997000     0.9352960    -0.9928030
  H       -1.9956420    -1.6762600    -1.2784950
units angstrom
no_reorient  #important for SAPT in psi4, default
symmetry c1  #important for SAPT in psi4, default
}

set PROPERTIES_ORIGIN ["COM"]
properties('MP2/aug-cc-pvtz', properties = ['dipole'])
--------------------------------------------------------------------------

    Molecular point group: c1
  Charge       = 0
  Multiplicity = 1
  Basis Set: AUG-CC-PVTZ
    Blend: AUG-CC-PVTZ
  Basis Set: (AUG-CC-PVTZ AUX)
    Blend: AUG-CC-PVTZ-JKFIT

    Orbital Energies [Eh]
    ---------------------

    Doubly Occupied:

       1A    -20.590457     2A    -20.580353     3A    -20.571394
       4A    -20.569832     5A    -20.557919     6A    -11.353373
       7A    -11.299841     8A    -11.290501     9A    -11.285401
      10A    -11.277847    11A     -1.439062    12A     -1.393253
      13A     -1.378614    14A     -1.354210    15A     -1.347686
      16A     -1.060500    17A     -1.023799    18A     -0.898458
      19A     -0.872149    20A     -0.798587    21A     -0.751702
      22A     -0.727852    23A     -0.713245    24A     -0.700025
      25A     -0.669189    26A     -0.649624    27A     -0.620398
      28A     -0.613434    29A     -0.604575    30A     -0.585136
      31A     -0.572703    32A     -0.555947    33A     -0.541461
      34A     -0.516741    35A     -0.502161    36A     -0.490424
      37A     -0.486822    38A     -0.471009    39A     -0.440832
      40A     -0.415573

  @DF-RHF Final Energy:  -569.67519726853516

   => Energetics <=

    Nuclear Repulsion Energy =            634.6399902274438318
    One-Electron Energy =               -2043.4861976875345135
    Two-Electron Energy =                 839.1710101915555242
    Total Energy =                       -569.6751972685351575
  Basis Set: (AUG-CC-PVTZ AUX)
    Blend: AUG-CC-PVTZ-RI
    Molecular point group: c1

    Geometry (in Angstrom), charge = 0, multiplicity = 1:

       Center              X                  Y                   Z               Mass
    ------------   -----------------  -----------------  -----------------  -----------------
         O           -0.116127235842    -1.799224196273     0.459990045254    15.994914619570
         O            0.357071764158     1.395052803727    -1.019560954746    15.994914619570
         O           -1.945615035842     1.363926503727     0.426344345254    15.994914619570
         O            2.713457764158     0.451647803727    -0.200549954746    15.994914619570
         O           -1.672988235842    -0.799157196273    -0.993367954746    15.994914619570
         C            0.430233764158     1.014620803727     0.354864045254    12.000000000000
         C           -0.910689235842     0.475343803727     0.845187045254    12.000000000000
         C            1.533152764158    -0.027825196273     0.425520045254    12.000000000000
         C           -1.216500235842    -0.935373196273     0.344835045254    12.000000000000
         C            1.053612764158    -1.315631196273    -0.223533954746    12.000000000000
         H            0.702898764158     1.888521803727     0.965705045254     1.007825032230
         H           -0.854140435842     0.408594103727     1.938107145254     1.007825032230
         H            1.782418764158    -0.230562196273     1.473157045254     1.007825032230
         H           -1.995309235842    -1.395795196273     0.966889045254     1.007825032230
         H            0.842244764158    -1.146467196273    -1.284850954746     1.007825032230
         H            1.804556764158    -2.100319196273    -0.121395954746     1.007825032230
         H           -0.394409235842     2.013184803727    -1.078552954746     1.007825032230
         H           -2.343065235842     0.977765803727    -0.334956954746     1.007825032230
         H            2.398342764158     0.936364803727    -0.987685954746     1.007825032230
         H           -1.996999235842    -1.675191196273    -1.273377954746     1.007825032230

  Basis Set: AUG-CC-PVTZ
    Blend: AUG-CC-PVTZ
  Basis Set: (AUG-CC-PVTZ AUX)
    Blend: AUG-CC-PVTZ-JKFIT
	 Reference Energy          =    -569.6751972685351575 [Eh]
	 Singles Energy            =      -0.0000000000000000 [Eh]
	 Same-Spin Energy          =      -0.5541520561715888 [Eh]
	 Opposite-Spin Energy      =      -1.7026571877718943 [Eh]
	 Correlation Energy        =      -2.2568092439434833 [Eh]
	 Total Energy              =    -571.9320065124786652 [Eh]

	 ================> DF-SCS-MP2 Energies <==================
	-----------------------------------------------------------
	 SCS Same-Spin Scale       =       0.3333333333333333 [-]
	 SCS Opposite-Spin Scale   =       1.2000000000000000 [-]
	 SCS Same-Spin Energy      =      -0.1847173520571962 [Eh]
	 SCS Opposite-Spin Energy  =      -2.0431886253262732 [Eh]
	 SCS Correlation Energy    =      -2.2279059773834695 [Eh]
	 SCS Total Energy          =    -571.9031032459186008 [Eh]
	-----------------------------------------------------------

  Dipole Moment: [D]
     X:    -2.2157      Y:    -0.9861      Z:    -0.2112     Total:     2.4344

*** Psi4 exiting successfully. Buy a developer a beer!
