                               Psi4 1.4a3.dev225

  ==> Input File <==

--------------------------------------------------------------------------
#psi4
#
memory 32 gb

molecule  {
0 1
  O       -0.2343850     1.7978400    -0.4145210
  O        0.4791390    -1.3900560     0.9851260
  O       -1.8902550    -1.4798720    -0.4079610
  O        2.7489250    -0.2990660     0.0843650
  O       -1.6766260     0.6849030     1.0797040
  C        0.4758930    -0.9871420    -0.3839460
  C       -0.9153110    -0.5160320    -0.8112700
  C        1.5148540     0.1205520    -0.4811210
  C       -1.2794180     0.8705190    -0.2725550
  C        0.9914930     1.3693070     0.2124490
  H        0.7732420    -1.8350180    -1.0199460
  H       -0.9367810    -0.4539690    -1.9062570
  H        1.7061480     0.3550680    -1.5342930
  H       -2.1075740     1.2945610    -0.8542440
  H        0.8333730     1.1741050     1.2776920
  H        1.6908660     2.1982840     0.0933200
  H       -0.2684360    -2.0097880     1.0741120
  H       -2.2702579    -1.1240089     0.3597647
  H        2.5001980    -0.8049050     0.8819700
  H       -2.0397460     1.5332780     1.3914430
units angstrom
no_reorient  #important for SAPT in psi4, default
symmetry c1  #important for SAPT in psi4, default
}

set PROPERTIES_ORIGIN ["COM"]
properties('MP2/aug-cc-pvtz', properties = ['dipole'])
--------------------------------------------------------------------------

    Molecular point group: c1
  Charge       = 0
  Multiplicity = 1
  Basis Set: AUG-CC-PVTZ
    Blend: AUG-CC-PVTZ
  Basis Set: (AUG-CC-PVTZ AUX)
    Blend: AUG-CC-PVTZ-JKFIT

    Orbital Energies [Eh]
    ---------------------

    Doubly Occupied:

       1A    -20.591087     2A    -20.581279     3A    -20.572239
       4A    -20.570482     5A    -20.558880     6A    -11.355015
       7A    -11.300483     8A    -11.291697     9A    -11.286524
      10A    -11.278951    11A     -1.438813    12A     -1.395212
      13A     -1.380290    14A     -1.355403    15A     -1.348688
      16A     -1.059536    17A     -1.023694    18A     -0.898825
      19A     -0.872928    20A     -0.799547    21A     -0.752895
      22A     -0.727342    23A     -0.713124    24A     -0.700858
      25A     -0.668466    26A     -0.649472    27A     -0.620714
      28A     -0.615349    29A     -0.602455    30A     -0.585554
      31A     -0.574668    32A     -0.557195    33A     -0.543746
      34A     -0.516684    35A     -0.502705    36A     -0.491200
      37A     -0.488624    38A     -0.471323    39A     -0.442100
      40A     -0.416429

  @DF-RHF Final Energy:  -569.67536319874262

   => Energetics <=

    Nuclear Repulsion Energy =            633.4211368037369994
    One-Electron Energy =               -2040.9920483276746381
    Two-Electron Energy =                 837.8955483251950227
    Total Energy =                       -569.6753631987426161
  Basis Set: (AUG-CC-PVTZ AUX)
    Blend: AUG-CC-PVTZ-RI
    Molecular point group: c1

    Geometry (in Angstrom), charge = 0, multiplicity = 1:

       Center              X                  Y                   Z               Mass
    ------------   -----------------  -----------------  -----------------  -----------------
         O           -0.235464060819     1.800238538783    -0.415487704385    15.994914619570
         O            0.478059939181    -1.387657461217     0.984159295615    15.994914619570
         O           -1.891334060819    -1.477473461217    -0.408927704385    15.994914619570
         O            2.747845939181    -0.296667461217     0.083398295615    15.994914619570
         O           -1.677705060819     0.687301538783     1.078737295615    15.994914619570
         C            0.474813939181    -0.984743461217    -0.384912704385    12.000000000000
         C           -0.916390060819    -0.513633461217    -0.812236704385    12.000000000000
         C            1.513774939181     0.122950538783    -0.482087704385    12.000000000000
         C           -1.280497060819     0.872917538783    -0.273521704385    12.000000000000
         C            0.990413939181     1.371705538783     0.211482295615    12.000000000000
         H            0.772162939181    -1.832619461217    -1.020912704385     1.007825032230
         H           -0.937860060819    -0.451570461217    -1.907223704385     1.007825032230
         H            1.705068939181     0.357466538783    -1.535259704385     1.007825032230
         H           -2.108653060819     1.296959538783    -0.855210704385     1.007825032230
         H            0.832293939181     1.176503538783     1.276725295615     1.007825032230
         H            1.689786939181     2.200682538783     0.092353295615     1.007825032230
         H           -0.269515060819    -2.007389461217     1.073145295615     1.007825032230
         H           -2.271336960819    -1.121610361217     0.358797995615     1.007825032230
         H            2.499118939181    -0.802506461217     0.881003295615     1.007825032230
         H           -2.040825060819     1.535676538783     1.390476295615     1.007825032230

  Basis Set: AUG-CC-PVTZ
    Blend: AUG-CC-PVTZ
  Basis Set: (AUG-CC-PVTZ AUX)
    Blend: AUG-CC-PVTZ-JKFIT
	 Reference Energy          =    -569.6753631987426161 [Eh]
	 Singles Energy            =      -0.0000000000000000 [Eh]
	 Same-Spin Energy          =      -0.5537952265861308 [Eh]
	 Opposite-Spin Energy      =      -1.7024136066082596 [Eh]
	 Correlation Energy        =      -2.2562088331943904 [Eh]
	 Total Energy              =    -571.9315720319369802 [Eh]

	 ================> DF-SCS-MP2 Energies <==================
	-----------------------------------------------------------
	 SCS Same-Spin Scale       =       0.3333333333333333 [-]
	 SCS Opposite-Spin Scale   =       1.2000000000000000 [-]
	 SCS Same-Spin Energy      =      -0.1845984088620436 [Eh]
	 SCS Opposite-Spin Energy  =      -2.0428963279299115 [Eh]
	 SCS Correlation Energy    =      -2.2274947367919551 [Eh]
	 SCS Total Energy          =    -571.9028579355345983 [Eh]
	-----------------------------------------------------------

  Dipole Moment: [D]
     X:    -2.2615      Y:     0.9352      Z:     0.3469     Total:     2.4717

*** Psi4 exiting successfully. Buy a developer a beer!
