                               Psi4 1.4a3.dev225

  ==> Input File <==

--------------------------------------------------------------------------
#psi4
#
memory 32 gb

molecule  {
0 1
  O       -0.2343850     1.7978400    -0.4145210
  O        0.4791390    -1.3900560     0.9851260
  O       -1.8902550    -1.4798720    -0.4079610
  O        2.7489250    -0.2990660     0.0843650
  O       -1.6766260     0.6849030     1.0797040
  C        0.4758930    -0.9871420    -0.3839460
  C       -0.9153110    -0.5160320    -0.8112700
  C        1.5582815     0.1057854    -0.4612213
  C       -1.2794180     0.8705190    -0.2725550
  C        0.9914930     1.3693070     0.2124490
  H        0.7732420    -1.8350180    -1.0199460
  H       -0.9367810    -0.4539690    -1.9062570
  H        1.7061480     0.3550680    -1.5342930
  H       -2.1075740     1.2945610    -0.8542440
  H        0.8333730     1.1741050     1.2776920
  H        1.6908660     2.1982840     0.0933200
  H       -0.2684360    -2.0097880     1.0741120
  H       -2.2907410    -1.1048270     0.4011470
  H        2.5001980    -0.8049050     0.8819700
  H       -2.0397460     1.5332780     1.3914430
units angstrom
no_reorient  #important for SAPT in psi4, default
symmetry c1  #important for SAPT in psi4, default
}

set PROPERTIES_ORIGIN ["COM"]
properties('MP2/aug-cc-pvtz', properties = ['dipole'])
--------------------------------------------------------------------------

    Molecular point group: c1
  Charge       = 0
  Multiplicity = 1
  Basis Set: AUG-CC-PVTZ
    Blend: AUG-CC-PVTZ
  Basis Set: (AUG-CC-PVTZ AUX)
    Blend: AUG-CC-PVTZ-JKFIT

    Orbital Energies [Eh]
    ---------------------

    Doubly Occupied:

       1A    -20.591314     2A    -20.581121     3A    -20.575004
       4A    -20.569268     5A    -20.564022     6A    -11.354076
       7A    -11.299330     8A    -11.289996     9A    -11.287243
      10A    -11.277171    11A     -1.437233    12A     -1.396756
      13A     -1.381120    14A     -1.357792    15A     -1.351527
      16A     -1.052381    17A     -1.019453    18A     -0.896102
      19A     -0.869911    20A     -0.799585    21A     -0.752160
      22A     -0.726631    23A     -0.711481    24A     -0.697399
      25A     -0.671141    26A     -0.649132    27A     -0.623215
      28A     -0.615388    29A     -0.601418    30A     -0.587197
      31A     -0.574174    32A     -0.560874    33A     -0.543285
      34A     -0.512277    35A     -0.503325    36A     -0.490455
      37A     -0.487629    38A     -0.465677    39A     -0.440315
      40A     -0.410146

  @DF-RHF Final Energy:  -569.67283081219944

   => Energetics <=

    Nuclear Repulsion Energy =            632.9399930156118899
    One-Electron Energy =               -2040.0781974032433936
    Two-Electron Energy =                 837.4653735754320678
    Total Energy =                       -569.6728308121994360
  Basis Set: (AUG-CC-PVTZ AUX)
    Blend: AUG-CC-PVTZ-RI
    Molecular point group: c1

    Geometry (in Angstrom), charge = 0, multiplicity = 1:

       Center              X                  Y                   Z               Mass
    ------------   -----------------  -----------------  -----------------  -----------------
         O           -0.238799463697     1.801290616294    -0.417357062864    15.994914619570
         O            0.474724536303    -1.386605383706     0.982289937136    15.994914619570
         O           -1.894669463697    -1.476421383706    -0.410797062864    15.994914619570
         O            2.744510536303    -0.295615383706     0.081528937136    15.994914619570
         O           -1.681040463697     0.688353616294     1.076867937136    15.994914619570
         C            0.471478536303    -0.983691383706    -0.386782062864    12.000000000000
         C           -0.919725463697    -0.512581383706    -0.814106062864    12.000000000000
         C            1.553867036303     0.109236016294    -0.464057362864    12.000000000000
         C           -1.283832463697     0.873969616294    -0.275391062864    12.000000000000
         C            0.987078536303     1.372757616294     0.209612937136    12.000000000000
         H            0.768827536303    -1.831567383706    -1.022782062864     1.007825032230
         H           -0.941195463697    -0.450518383706    -1.909093062864     1.007825032230
         H            1.701733536303     0.358518616294    -1.537129062864     1.007825032230
         H           -2.111988463697     1.298011616294    -0.857080062864     1.007825032230
         H            0.828958536303     1.177555616294     1.274855937136     1.007825032230
         H            1.686451536303     2.201734616294     0.090483937136     1.007825032230
         H           -0.272850463697    -2.006337383706     1.071275937136     1.007825032230
         H           -2.295155463697    -1.101376383706     0.398310937136     1.007825032230
         H            2.495783536303    -0.801454383706     0.879133937136     1.007825032230
         H           -2.044160463697     1.536728616294     1.388606937136     1.007825032230

  Basis Set: AUG-CC-PVTZ
    Blend: AUG-CC-PVTZ
  Basis Set: (AUG-CC-PVTZ AUX)
    Blend: AUG-CC-PVTZ-JKFIT
	 Reference Energy          =    -569.6728308121994360 [Eh]
	 Singles Energy            =      -0.0000000000000000 [Eh]
	 Same-Spin Energy          =      -0.5544523120604461 [Eh]
	 Opposite-Spin Energy      =      -1.7033696835513787 [Eh]
	 Correlation Energy        =      -2.2578219956118248 [Eh]
	 Total Energy              =    -571.9306528078112706 [Eh]

	 ================> DF-SCS-MP2 Energies <==================
	-----------------------------------------------------------
	 SCS Same-Spin Scale       =       0.3333333333333333 [-]
	 SCS Opposite-Spin Scale   =       1.2000000000000000 [-]
	 SCS Same-Spin Energy      =      -0.1848174373534820 [Eh]
	 SCS Opposite-Spin Energy  =      -2.0440436202616543 [Eh]
	 SCS Correlation Energy    =      -2.2288610576151364 [Eh]
	 SCS Total Energy          =    -571.9016918698146128 [Eh]
	-----------------------------------------------------------

  Dipole Moment: [D]
     X:    -2.1399      Y:     0.8951      Z:     0.4575     Total:     2.3642

*** Psi4 exiting successfully. Buy a developer a beer!
