                               Psi4 1.3.2 release

  ==> Input File <==

--------------------------------------------------------------------------
#psi4
#
memory 32 gb

molecule  {
0 1
  O       -0.1147700    -1.8002930     0.4548730
  O        0.3584290     1.3939840    -1.0246780
  O       -1.9551560     1.3713260     0.4690830
  O        2.7148150     0.4505790    -0.2056670
  O       -1.6716310    -0.8002260    -0.9984850
  C        0.4315910     1.0135520     0.3497470
  C       -0.9093320     0.4742750     0.8400700
  C        1.5345100    -0.0288940     0.4204030
  C       -1.2151430    -0.9364420     0.3397180
  C        1.0567466    -1.3230835    -0.2171625
  H        0.7042560     1.8874530     0.9605880
  H       -0.8818830     0.4322700     1.9353370
  H        1.7813211    -0.2407907     1.4668079
  H       -1.9939520    -1.3968640     0.9617720
  H        0.8436020    -1.1475360    -1.2899680
  H        1.8059140    -2.1013880    -0.1265130
  H       -0.3930520     2.0121160    -1.0836700
  H       -2.3417080     0.9766970    -0.3400740
  H        2.3997000     0.9352960    -0.9928030
  H       -1.9956420    -1.6762600    -1.2784950
units angstrom
no_reorient  #important for SAPT in psi4, default
symmetry c1  #important for SAPT in psi4, default
}

set PROPERTIES_ORIGIN ["COM"]
properties('MP2/aug-cc-pvtz', properties = ['dipole'])
--------------------------------------------------------------------------

    Molecular point group: c1
  Charge       = 0
  Multiplicity = 1
  Basis Set: AUG-CC-PVTZ
    Blend: AUG-CC-PVTZ
  Basis Set: (AUG-CC-PVTZ AUX)
    Blend: AUG-CC-PVTZ-JKFIT

    Orbital Energies [Eh]
    ---------------------

    Doubly Occupied:

       1A    -20.591694     2A    -20.581051     3A    -20.574749
       4A    -20.571172     5A    -20.558395     6A    -11.354341
       7A    -11.298546     8A    -11.291237     9A    -11.285482
      10A    -11.278110    11A     -1.439430    12A     -1.391606
      13A     -1.376129    14A     -1.354618    15A     -1.347715
      16A     -1.059073    17A     -1.023484    18A     -0.898505
      19A     -0.870525    20A     -0.798007    21A     -0.752084
      22A     -0.727986    23A     -0.712501    24A     -0.696275
      25A     -0.669816    26A     -0.645768    27A     -0.621598
      28A     -0.614317    29A     -0.603521    30A     -0.585383
      31A     -0.570785    32A     -0.556914    33A     -0.542954
      34A     -0.516473    35A     -0.503195    36A     -0.490744
      37A     -0.487693    38A     -0.469797    39A     -0.440808
      40A     -0.415425

  @DF-RHF Final Energy:  -569.67454214338159

   => Energetics <=

    Nuclear Repulsion Energy =            633.8082762780811663
    One-Electron Energy =               -2041.8298269745077960
    Two-Electron Energy =                 838.3470085530450433
    Total Energy =                       -569.6745421433815864
  Basis Set: (AUG-CC-PVTZ AUX)
    Blend: AUG-CC-PVTZ-RI
    Molecular point group: c1

    Geometry (in Angstrom), charge = 0, multiplicity = 1:

       Center              X                  Y                   Z               Mass
    ------------   -----------------  -----------------  -----------------  -----------------
         O           -0.114895681574    -1.799721052560     0.453962612126    15.994914619570
         O            0.358303318426     1.394555947440    -1.025588387874    15.994914619570
         O           -1.955281681574     1.371897947440     0.468172612126    15.994914619570
         O            2.714689318426     0.451150947440    -0.206577387874    15.994914619570
         O           -1.671756681574    -0.799654052560    -0.999395387874    15.994914619570
         C            0.431465318426     1.014123947440     0.348836612126    12.000000000000
         C           -0.909457681574     0.474846947440     0.839159612126    12.000000000000
         C            1.534384318426    -0.028322052560     0.419492612126    12.000000000000
         C           -1.215268681574    -0.935870052560     0.338807612126    12.000000000000
         C            1.056620918426    -1.322511552560    -0.218072887874    12.000000000000
         H            0.704130318426     1.888024947440     0.959677612126     1.007825032230
         H           -0.882008681574     0.432841947440     1.934426612126     1.007825032230
         H            1.781195418426    -0.240218752560     1.465897512126     1.007825032230
         H           -1.994077681574    -1.396292052560     0.960861612126     1.007825032230
         H            0.843476318426    -1.146964052560    -1.290878387874     1.007825032230
         H            1.805788318426    -2.100816052560    -0.127423387874     1.007825032230
         H           -0.393177681574     2.012687947440    -1.084580387874     1.007825032230
         H           -2.341833681574     0.977268947440    -0.340984387874     1.007825032230
         H            2.399574318426     0.935867947440    -0.993713387874     1.007825032230
         H           -1.995767681574    -1.675688052560    -1.279405387874     1.007825032230

  Basis Set: AUG-CC-PVTZ
    Blend: AUG-CC-PVTZ
  Basis Set: (AUG-CC-PVTZ AUX)
    Blend: AUG-CC-PVTZ-JKFIT
	 Reference Energy          =    -569.6745421433815864 [Eh]
	 Singles Energy            =      -0.0000000000000000 [Eh]
	 Same-Spin Energy          =      -0.5545995037354918 [Eh]
	 Opposite-Spin Energy      =      -1.7037948083243550 [Eh]
	 Correlation Energy        =      -2.2583943120598469 [Eh]
	 Total Energy              =    -571.9329364554414497 [Eh]

	 ================> DF-SCS-MP2 Energies <==================
	-----------------------------------------------------------
	 SCS Same-Spin Scale       =       0.3333333333333333 [-]
	 SCS Opposite-Spin Scale   =       1.2000000000000000 [-]
	 SCS Same-Spin Energy      =      -0.1848665012451639 [Eh]
	 SCS Opposite-Spin Energy  =      -2.0445537699892258 [Eh]
	 SCS Correlation Energy    =      -2.2294202712343898 [Eh]
	 SCS Total Energy          =    -571.9039624146159895 [Eh]
	-----------------------------------------------------------

  Dipole Moment: [D]
     X:    -2.1925      Y:    -1.0024      Z:    -0.2831     Total:     2.4274

*** Psi4 exiting successfully. Buy a developer a beer!
