                               Psi4 1.4a3.dev225

  ==> Input File <==

--------------------------------------------------------------------------
#psi4
#
memory 32 gb

molecule  {
0 1
  O       -0.2343850     1.7978400    -0.4145210
  O        0.4791390    -1.3900560     0.9851260
  O       -1.8902550    -1.4798720    -0.4079610
  O        2.7489250    -0.2990660     0.0843650
  O       -1.6766260     0.6849030     1.0797040
  C        0.4758930    -0.9871420    -0.3839460
  C       -0.9153110    -0.5160320    -0.8112700
  C        1.5148540     0.1205520    -0.4811210
  C       -1.2794180     0.8705190    -0.2725550
  C        1.0086942     1.3282645     0.1896536
  H        0.7732420    -1.8350180    -1.0199460
  H       -0.9367810    -0.4539690    -1.9062570
  H        1.7061480     0.3550680    -1.5342930
  H       -2.1075740     1.2945610    -0.8542440
  H        0.8333730     1.1741050     1.2776920
  H        1.6908660     2.1982840     0.0933200
  H       -0.2684360    -2.0097880     1.0741120
  H       -2.2907410    -1.1048270     0.4011470
  H        2.5001980    -0.8049050     0.8819700
  H       -2.0397460     1.5332780     1.3914430
units angstrom
no_reorient  #important for SAPT in psi4, default
symmetry c1  #important for SAPT in psi4, default
}

set PROPERTIES_ORIGIN ["COM"]
properties('MP2/aug-cc-pvtz', properties = ['dipole'])
--------------------------------------------------------------------------

    Molecular point group: c1
  Charge       = 0
  Multiplicity = 1
  Basis Set: AUG-CC-PVTZ
    Blend: AUG-CC-PVTZ
  Basis Set: (AUG-CC-PVTZ AUX)
    Blend: AUG-CC-PVTZ-JKFIT

    Orbital Energies [Eh]
    ---------------------

    Doubly Occupied:

       1A    -20.591199     2A    -20.580792     3A    -20.575281
       4A    -20.570517     5A    -20.560064     6A    -11.353764
       7A    -11.299856     8A    -11.291934     9A    -11.285484
      10A    -11.280522    11A     -1.436237    12A     -1.391275
      13A     -1.375492    14A     -1.352051    15A     -1.348656
      16A     -1.062777    17A     -1.025138    18A     -0.900240
      19A     -0.869345    20A     -0.798679    21A     -0.751228
      22A     -0.727300    23A     -0.710346    24A     -0.695889
      25A     -0.668722    26A     -0.649663    27A     -0.620828
      28A     -0.615087    29A     -0.600529    30A     -0.583334
      31A     -0.573196    32A     -0.555906    33A     -0.543210
      34A     -0.515131    35A     -0.500694    36A     -0.489335
      37A     -0.488017    38A     -0.467875    39A     -0.442364
      40A     -0.422797

  @DF-RHF Final Energy:  -569.67082178860187

   => Energetics <=

    Nuclear Repulsion Energy =            633.7581133257649526
    One-Electron Energy =               -2041.7163634398962131
    Two-Electron Energy =                 838.2874283255293903
    Total Energy =                       -569.6708217886018701
  Basis Set: (AUG-CC-PVTZ AUX)
    Blend: AUG-CC-PVTZ-RI
    Molecular point group: c1

    Geometry (in Angstrom), charge = 0, multiplicity = 1:

       Center              X                  Y                   Z               Mass
    ------------   -----------------  -----------------  -----------------  -----------------
         O           -0.236702098297     1.803391948297    -0.413942657268    15.994914619570
         O            0.476821901703    -1.384504051703     0.985704342732    15.994914619570
         O           -1.892572098297    -1.474320051703    -0.407382657268    15.994914619570
         O            2.746607901703    -0.293514051703     0.084943342732    15.994914619570
         O           -1.678943098297     0.690454948297     1.080282342732    15.994914619570
         C            0.473575901703    -0.981590051703    -0.383367657268    12.000000000000
         C           -0.917628098297    -0.510480051703    -0.810691657268    12.000000000000
         C            1.512536901703     0.126103948297    -0.480542657268    12.000000000000
         C           -1.281735098297     0.876070948297    -0.271976657268    12.000000000000
         C            1.006377101703     1.333816448297     0.190231942732    12.000000000000
         H            0.770924901703    -1.829466051703    -1.019367657268     1.007825032230
         H           -0.939098098297    -0.448417051703    -1.905678657268     1.007825032230
         H            1.703830901703     0.360619948297    -1.533714657268     1.007825032230
         H           -2.109891098297     1.300112948297    -0.853665657268     1.007825032230
         H            0.831055901703     1.179656948297     1.278270342732     1.007825032230
         H            1.688548901703     2.203835948297     0.093898342732     1.007825032230
         H           -0.270753098297    -2.004236051703     1.074690342732     1.007825032230
         H           -2.293058098297    -1.099275051703     0.401725342732     1.007825032230
         H            2.497880901703    -0.799353051703     0.882548342732     1.007825032230
         H           -2.042063098297     1.538829948297     1.392021342732     1.007825032230

  Basis Set: AUG-CC-PVTZ
    Blend: AUG-CC-PVTZ
  Basis Set: (AUG-CC-PVTZ AUX)
    Blend: AUG-CC-PVTZ-JKFIT
	 Reference Energy          =    -569.6708217886018701 [Eh]
	 Singles Energy            =      -0.0000000000000000 [Eh]
	 Same-Spin Energy          =      -0.5550605513333446 [Eh]
	 Opposite-Spin Energy      =      -1.7048328771254118 [Eh]
	 Correlation Energy        =      -2.2598934284587564 [Eh]
	 Total Energy              =    -571.9307152170606514 [Eh]

	 ================> DF-SCS-MP2 Energies <==================
	-----------------------------------------------------------
	 SCS Same-Spin Scale       =       0.3333333333333333 [-]
	 SCS Opposite-Spin Scale   =       1.2000000000000000 [-]
	 SCS Same-Spin Energy      =      -0.1850201837777815 [Eh]
	 SCS Opposite-Spin Energy  =      -2.0457994525504941 [Eh]
	 SCS Correlation Energy    =      -2.2308196363282757 [Eh]
	 SCS Total Energy          =    -571.9016414249301761 [Eh]
	-----------------------------------------------------------

  Dipole Moment: [D]
     X:    -2.2486      Y:     0.9138      Z:     0.3836     Total:     2.4573

*** Psi4 exiting successfully. Buy a developer a beer!
