                               Psi4 1.3.2 release

  ==> Input File <==

--------------------------------------------------------------------------
#psi4
#
memory 32 gb

molecule  {
0 1
  O       -0.1147700    -1.8002930     0.4548730
  O        0.3584290     1.3939840    -1.0246780
  O       -1.9551560     1.3713260     0.4690830
  O        2.7148150     0.4505790    -0.2056670
  O       -1.6716310    -0.8002260    -0.9984850
  C        0.4315910     1.0135520     0.3497470
  C       -0.9093320     0.4742750     0.8400700
  C        1.5345100    -0.0288940     0.4204030
  C       -1.2151430    -0.9364420     0.3397180
  C        0.9736549    -1.3503172    -0.1811354
  H        0.7042560     1.8874530     0.9605880
  H       -0.8818830     0.4322700     1.9353370
  H        1.7837760    -0.2316310     1.4680400
  H       -1.9939520    -1.3968640     0.9617720
  H        0.8436020    -1.1475360    -1.2899680
  H        1.8059140    -2.1013880    -0.1265130
  H       -0.3930520     2.0121160    -1.0836700
  H       -2.3417080     0.9766970    -0.3400740
  H        2.3997000     0.9352960    -0.9928030
  H       -1.9956420    -1.6762600    -1.2784950
units angstrom
no_reorient  #important for SAPT in psi4, default
symmetry c1  #important for SAPT in psi4, default
}

set PROPERTIES_ORIGIN ["COM"]
properties('MP2/aug-cc-pvtz', properties = ['dipole'])
--------------------------------------------------------------------------

    Molecular point group: c1
  Charge       = 0
  Multiplicity = 1
  Basis Set: AUG-CC-PVTZ
    Blend: AUG-CC-PVTZ
  Basis Set: (AUG-CC-PVTZ AUX)
    Blend: AUG-CC-PVTZ-JKFIT

    Orbital Energies [Eh]
    ---------------------

    Doubly Occupied:

       1A    -20.595657     2A    -20.590048     3A    -20.576531
       4A    -20.570025     5A    -20.558317     6A    -11.360056
       7A    -11.300693     8A    -11.289351     9A    -11.283169
      10A    -11.278886    11A     -1.460465    12A     -1.395827
      13A     -1.383317    14A     -1.362525    15A     -1.346217
      16A     -1.059108    17A     -1.024239    18A     -0.892972
      19A     -0.877196    20A     -0.798232    21A     -0.754374
      22A     -0.729279    23A     -0.723516    24A     -0.698740
      25A     -0.671646    26A     -0.647024    27A     -0.634867
      28A     -0.620585    29A     -0.603800    30A     -0.584996
      31A     -0.568174    32A     -0.552148    33A     -0.543842
      34A     -0.519938    35A     -0.506988    36A     -0.494760
      37A     -0.487619    38A     -0.460370    39A     -0.439568
      40A     -0.404049

  @DF-RHF Final Energy:  -569.66598944951795

   => Energetics <=

    Nuclear Repulsion Energy =            634.9335127406673109
    One-Electron Energy =               -2043.9007785573242018
    Two-Electron Energy =                 839.3012763671389393
    Total Energy =                       -569.6659894495179515
  Basis Set: (AUG-CC-PVTZ AUX)
    Blend: AUG-CC-PVTZ-RI
    Molecular point group: c1

    Geometry (in Angstrom), charge = 0, multiplicity = 1:

       Center              X                  Y                   Z               Mass
    ------------   -----------------  -----------------  -----------------  -----------------
         O           -0.108267173908    -1.797604644365     0.451073183381    15.994914619570
         O            0.364931826092     1.396672355635    -1.028477816619    15.994914619570
         O           -1.948653173908     1.374014355635     0.465283183381    15.994914619570
         O            2.721317826092     0.453267355635    -0.209466816619    15.994914619570
         O           -1.665128173908    -0.797537644365    -1.002284816619    15.994914619570
         C            0.438093826092     1.016240355635     0.345947183381    12.000000000000
         C           -0.902829173908     0.476963355635     0.836270183381    12.000000000000
         C            1.541012826092    -0.026205644365     0.416603183381    12.000000000000
         C           -1.208640173908    -0.933753644365     0.335918183381    12.000000000000
         C            0.980157726092    -1.347628844365    -0.184935216619    12.000000000000
         H            0.710758826092     1.890141355635     0.956788183381     1.007825032230
         H           -0.875380173908     0.434958355635     1.931537183381     1.007825032230
         H            1.790278826092    -0.228942644365     1.464240183381     1.007825032230
         H           -1.987449173908    -1.394175644365     0.957972183381     1.007825032230
         H            0.850104826092    -1.144847644365    -1.293767816619     1.007825032230
         H            1.812416826092    -2.098699644365    -0.130312816619     1.007825032230
         H           -0.386549173908     2.014804355635    -1.087469816619     1.007825032230
         H           -2.335205173908     0.979385355635    -0.343873816619     1.007825032230
         H            2.406202826092     0.937984355635    -0.996602816619     1.007825032230
         H           -1.989139173908    -1.673571644365    -1.282294816619     1.007825032230

  Basis Set: AUG-CC-PVTZ
    Blend: AUG-CC-PVTZ
  Basis Set: (AUG-CC-PVTZ AUX)
    Blend: AUG-CC-PVTZ-JKFIT
	 Reference Energy          =    -569.6659894495179515 [Eh]
	 Singles Energy            =      -0.0000000000000000 [Eh]
	 Same-Spin Energy          =      -0.5549159327475761 [Eh]
	 Opposite-Spin Energy      =      -1.7033139461964841 [Eh]
	 Correlation Energy        =      -2.2582298789440602 [Eh]
	 Total Energy              =    -571.9242193284619589 [Eh]

	 ================> DF-SCS-MP2 Energies <==================
	-----------------------------------------------------------
	 SCS Same-Spin Scale       =       0.3333333333333333 [-]
	 SCS Opposite-Spin Scale   =       1.2000000000000000 [-]
	 SCS Same-Spin Energy      =      -0.1849719775825254 [Eh]
	 SCS Opposite-Spin Energy  =      -2.0439767354357810 [Eh]
	 SCS Correlation Energy    =      -2.2289487130183065 [Eh]
	 SCS Total Energy          =    -571.8949381625362776 [Eh]
	-----------------------------------------------------------

  Dipole Moment: [D]
     X:    -2.4937      Y:    -1.0693      Z:    -0.1732     Total:     2.7188

*** Psi4 exiting successfully. Buy a developer a beer!
