                               Psi4 1.3.2 release

  ==> Input File <==

--------------------------------------------------------------------------
#psi4
#
memory 32 gb

molecule  {
0 1
  O       -0.1212940    -1.8075264     0.4623002
  O        0.3584290     1.3939840    -1.0246780
  O       -1.9551560     1.3713260     0.4690830
  O        2.7148150     0.4505790    -0.2056670
  O       -1.6716310    -0.8002260    -0.9984850
  C        0.4315910     1.0135520     0.3497470
  C       -0.9093320     0.4742750     0.8400700
  C        1.5345100    -0.0288940     0.4204030
  C       -1.2151430    -0.9364420     0.3397180
  C        1.0549700    -1.3167000    -0.2286510
  H        0.7042560     1.8874530     0.9605880
  H       -0.8818830     0.4322700     1.9353370
  H        1.7837760    -0.2316310     1.4680400
  H       -1.9879280    -1.4039829     0.9639711
  H        0.8436020    -1.1475360    -1.2899680
  H        1.8059140    -2.1013880    -0.1265130
  H       -0.3930520     2.0121160    -1.0836700
  H       -2.3417080     0.9766970    -0.3400740
  H        2.3997000     0.9352960    -0.9928030
  H       -1.9956420    -1.6762600    -1.2784950
units angstrom
no_reorient  #important for SAPT in psi4, default
symmetry c1  #important for SAPT in psi4, default
}

set PROPERTIES_ORIGIN ["COM"]
properties('MP2/aug-cc-pvtz', properties = ['dipole'])
--------------------------------------------------------------------------

    Molecular point group: c1
  Charge       = 0
  Multiplicity = 1
  Basis Set: AUG-CC-PVTZ
    Blend: AUG-CC-PVTZ
  Basis Set: (AUG-CC-PVTZ AUX)
    Blend: AUG-CC-PVTZ-JKFIT

    Orbital Energies [Eh]
    ---------------------

    Doubly Occupied:

       1A    -20.591661     2A    -20.581157     3A    -20.574625
       4A    -20.571406     5A    -20.558794     6A    -11.353279
       7A    -11.298439     8A    -11.291226     9A    -11.286284
      10A    -11.279110    11A     -1.437487    12A     -1.391550
      13A     -1.375206    14A     -1.353052    15A     -1.348067
      16A     -1.059424    17A     -1.022110    18A     -0.899116
      19A     -0.869422    20A     -0.798511    21A     -0.752331
      22A     -0.727397    23A     -0.710413    24A     -0.696109
      25A     -0.669808    26A     -0.645917    27A     -0.620361
      28A     -0.614011    29A     -0.602482    30A     -0.584221
      31A     -0.571759    32A     -0.556231    33A     -0.542852
      34A     -0.516183    35A     -0.501792    36A     -0.491612
      37A     -0.487560    38A     -0.472559    39A     -0.440787
      40A     -0.416664

  @DF-RHF Final Energy:  -569.67384779971223

   => Energetics <=

    Nuclear Repulsion Energy =            633.4952524191591010
    One-Electron Energy =               -2041.2162468847079708
    Two-Electron Energy =                 838.0471466658365216
    Total Energy =                       -569.6738477997122345
  Basis Set: (AUG-CC-PVTZ AUX)
    Blend: AUG-CC-PVTZ-RI
    Molecular point group: c1

    Geometry (in Angstrom), charge = 0, multiplicity = 1:

       Center              X                  Y                   Z               Mass
    ------------   -----------------  -----------------  -----------------  -----------------
         O           -0.120639124617    -1.806707613845     0.461493818972    15.994914619570
         O            0.359083875383     1.394802786155    -1.025484381028    15.994914619570
         O           -1.954501124617     1.372144786155     0.468276618972    15.994914619570
         O            2.715469875383     0.451397786155    -0.206473381028    15.994914619570
         O           -1.670976124617    -0.799407213845    -0.999291381028    15.994914619570
         C            0.432245875383     1.014370786155     0.348940618972    12.000000000000
         C           -0.908677124617     0.475093786155     0.839263618972    12.000000000000
         C            1.535164875383    -0.028075213845     0.419596618972    12.000000000000
         C           -1.214488124617    -0.935623213845     0.338911618972    12.000000000000
         C            1.055624875383    -1.315881213845    -0.229457381028    12.000000000000
         H            0.704910875383     1.888271786155     0.959781618972     1.007825032230
         H           -0.881228124617     0.433088786155     1.934530618972     1.007825032230
         H            1.784430875383    -0.230812213845     1.467233618972     1.007825032230
         H           -1.987273124617    -1.403164113845     0.963164718972     1.007825032230
         H            0.844256875383    -1.146717213845    -1.290774381028     1.007825032230
         H            1.806568875383    -2.100569213845    -0.127319381028     1.007825032230
         H           -0.392397124617     2.012934786155    -1.084476381028     1.007825032230
         H           -2.341053124617     0.977515786155    -0.340880381028     1.007825032230
         H            2.400354875383     0.936114786155    -0.993609381028     1.007825032230
         H           -1.994987124617    -1.675441213845    -1.279301381028     1.007825032230

  Basis Set: AUG-CC-PVTZ
    Blend: AUG-CC-PVTZ
  Basis Set: (AUG-CC-PVTZ AUX)
    Blend: AUG-CC-PVTZ-JKFIT
	 Reference Energy          =    -569.6738477997122345 [Eh]
	 Singles Energy            =      -0.0000000000000000 [Eh]
	 Same-Spin Energy          =      -0.5547226028801756 [Eh]
	 Opposite-Spin Energy      =      -1.7043169202305388 [Eh]
	 Correlation Energy        =      -2.2590395231107143 [Eh]
	 Total Energy              =    -571.9328873228229213 [Eh]

	 ================> DF-SCS-MP2 Energies <==================
	-----------------------------------------------------------
	 SCS Same-Spin Scale       =       0.3333333333333333 [-]
	 SCS Opposite-Spin Scale   =       1.2000000000000000 [-]
	 SCS Same-Spin Energy      =      -0.1849075342933919 [Eh]
	 SCS Opposite-Spin Energy  =      -2.0451803042766463 [Eh]
	 SCS Correlation Energy    =      -2.2300878385700380 [Eh]
	 SCS Total Energy          =    -571.9039356382822916 [Eh]
	-----------------------------------------------------------

  Dipole Moment: [D]
     X:    -2.1490      Y:    -0.9752      Z:    -0.3196     Total:     2.3815

*** Psi4 exiting successfully. Buy a developer a beer!
