                               Psi4 1.3.2 release

  ==> Input File <==

--------------------------------------------------------------------------
#psi4
#
memory 32 gb

molecule  {
0 1
  O       -0.1145856    -1.7983590     0.4669673
  O        0.3584290     1.3939840    -1.0246780
  O       -1.9551560     1.3713260     0.4690830
  O        2.7148150     0.4505790    -0.2056670
  O       -1.6804798    -0.7924541    -0.9946180
  C        0.4315910     1.0135520     0.3497470
  C       -0.9093320     0.4742750     0.8400700
  C        1.5345100    -0.0288940     0.4204030
  C       -1.2151430    -0.9364420     0.3397180
  C        1.0549700    -1.3167000    -0.2286510
  H        0.7042560     1.8874530     0.9605880
  H       -0.8818830     0.4322700     1.9353370
  H        1.7837760    -0.2316310     1.4680400
  H       -1.9939520    -1.3968640     0.9617720
  H        0.8436020    -1.1475360    -1.2899680
  H        1.8059140    -2.1013880    -0.1265130
  H       -0.3930520     2.0121160    -1.0836700
  H       -2.3417080     0.9766970    -0.3400740
  H        2.3997000     0.9352960    -0.9928030
  H       -1.9956420    -1.6762600    -1.2784950
units angstrom
no_reorient  #important for SAPT in psi4, default
symmetry c1  #important for SAPT in psi4, default
}

set PROPERTIES_ORIGIN ["COM"]
properties('MP2/aug-cc-pvtz', properties = ['dipole'])
--------------------------------------------------------------------------

    Molecular point group: c1
  Charge       = 0
  Multiplicity = 1
  Basis Set: AUG-CC-PVTZ
    Blend: AUG-CC-PVTZ
  Basis Set: (AUG-CC-PVTZ AUX)
    Blend: AUG-CC-PVTZ-JKFIT

    Orbital Energies [Eh]
    ---------------------

    Doubly Occupied:

       1A    -20.592876     2A    -20.581668     3A    -20.573964
       4A    -20.571192     5A    -20.558347     6A    -11.353553
       7A    -11.297779     8A    -11.290932     9A    -11.285792
      10A    -11.279003    11A     -1.437930    12A     -1.391232
      13A     -1.375565    14A     -1.353728    15A     -1.347720
      16A     -1.058893    17A     -1.022660    18A     -0.898706
      19A     -0.869302    20A     -0.798138    21A     -0.752337
      22A     -0.727623    23A     -0.711435    24A     -0.695487
      25A     -0.669499    26A     -0.646130    27A     -0.621120
      28A     -0.613951    29A     -0.602329    30A     -0.584607
      31A     -0.571594    32A     -0.556219    33A     -0.542511
      34A     -0.516227    35A     -0.502372    36A     -0.491314
      37A     -0.487572    38A     -0.472757    39A     -0.440403
      40A     -0.415846

  @DF-RHF Final Energy:  -569.67370805657595

   => Energetics <=

    Nuclear Repulsion Energy =            633.6964237052139879
    One-Electron Energy =               -2041.6196402322543690
    Two-Electron Energy =                 838.2495084704645478
    Total Energy =                       -569.6737080565759470
  Basis Set: (AUG-CC-PVTZ AUX)
    Blend: AUG-CC-PVTZ-RI
    Molecular point group: c1

    Geometry (in Angstrom), charge = 0, multiplicity = 1:

       Center              X                  Y                   Z               Mass
    ------------   -----------------  -----------------  -----------------  -----------------
         O           -0.113662108190    -1.799393676222     0.465265994839    15.994914619570
         O            0.359352491810     1.392949323778    -1.026379305161    15.994914619570
         O           -1.954232508190     1.370291323778     0.467381694839    15.994914619570
         O            2.715738491810     0.449544323778    -0.207368305161    15.994914619570
         O           -1.679556308190    -0.793488776222    -0.996319305161    15.994914619570
         C            0.432514491810     1.012517323778     0.348045694839    12.000000000000
         C           -0.908408508190     0.473240323778     0.838368694839    12.000000000000
         C            1.535433491810    -0.029928676222     0.418701694839    12.000000000000
         C           -1.214219508190    -0.937476676222     0.338016694839    12.000000000000
         C            1.055893491810    -1.317734676222    -0.230352305161    12.000000000000
         H            0.705179491810     1.886418323778     0.958886694839     1.007825032230
         H           -0.880959508190     0.431235323778     1.933635694839     1.007825032230
         H            1.784699491810    -0.232665676222     1.466338694839     1.007825032230
         H           -1.993028508190    -1.397898676222     0.960070694839     1.007825032230
         H            0.844525491810    -1.148570676222    -1.291669305161     1.007825032230
         H            1.806837491810    -2.102422676222    -0.128214305161     1.007825032230
         H           -0.392128508190     2.011081323778    -1.085371305161     1.007825032230
         H           -2.340784508190     0.975662323778    -0.341775305161     1.007825032230
         H            2.400623491810     0.934261323778    -0.994504305161     1.007825032230
         H           -1.994718508190    -1.677294676222    -1.280196305161     1.007825032230

  Basis Set: AUG-CC-PVTZ
    Blend: AUG-CC-PVTZ
  Basis Set: (AUG-CC-PVTZ AUX)
    Blend: AUG-CC-PVTZ-JKFIT
	 Reference Energy          =    -569.6737080565759470 [Eh]
	 Singles Energy            =      -0.0000000000000000 [Eh]
	 Same-Spin Energy          =      -0.5547826647996015 [Eh]
	 Opposite-Spin Energy      =      -1.7043295904748070 [Eh]
	 Correlation Energy        =      -2.2591122552744087 [Eh]
	 Total Energy              =    -571.9328203118503779 [Eh]

	 ================> DF-SCS-MP2 Energies <==================
	-----------------------------------------------------------
	 SCS Same-Spin Scale       =       0.3333333333333333 [-]
	 SCS Opposite-Spin Scale   =       1.2000000000000000 [-]
	 SCS Same-Spin Energy      =      -0.1849275549332005 [Eh]
	 SCS Opposite-Spin Energy  =      -2.0451955085697682 [Eh]
	 SCS Correlation Energy    =      -2.2301230635029685 [Eh]
	 SCS Total Energy          =    -571.9038311200789622 [Eh]
	-----------------------------------------------------------

  Dipole Moment: [D]
     X:    -2.1517      Y:    -1.0196      Z:    -0.3386     Total:     2.4050

*** Psi4 exiting successfully. Buy a developer a beer!
