                               Psi4 1.3.2 release

  ==> Input File <==

--------------------------------------------------------------------------
#psi4
#
memory 32 gb

molecule  {
0 1
  O       -0.1147700    -1.8002930     0.4548730
  O        0.3584290     1.3939840    -1.0246780
  O       -1.9551560     1.3713260     0.4690830
  O        2.7148150     0.4505790    -0.2056670
  O       -1.6716310    -0.8002260    -0.9984850
  C        0.4315910     1.0135520     0.3497470
  C       -0.9093320     0.4742750     0.8400700
  C        1.4950604     0.0032803     0.3662600
  C       -1.2151430    -0.9364420     0.3397180
  C        1.0549700    -1.3167000    -0.2286510
  H        0.7042560     1.8874530     0.9605880
  H       -0.8818830     0.4322700     1.9353370
  H        1.7837760    -0.2316310     1.4680400
  H       -1.9939520    -1.3968640     0.9617720
  H        0.8436020    -1.1475360    -1.2899680
  H        1.8059140    -2.1013880    -0.1265130
  H       -0.3930520     2.0121160    -1.0836700
  H       -2.3417080     0.9766970    -0.3400740
  H        2.3518342     0.9234626    -0.9792672
  H       -1.9956420    -1.6762600    -1.2784950
units angstrom
no_reorient  #important for SAPT in psi4, default
symmetry c1  #important for SAPT in psi4, default
}

set PROPERTIES_ORIGIN ["COM"]
properties('MP2/aug-cc-pvtz', properties = ['dipole'])
--------------------------------------------------------------------------

    Molecular point group: c1
  Charge       = 0
  Multiplicity = 1
  Basis Set: AUG-CC-PVTZ
    Blend: AUG-CC-PVTZ
  Basis Set: (AUG-CC-PVTZ AUX)
    Blend: AUG-CC-PVTZ-JKFIT

    Orbital Energies [Eh]
    ---------------------

    Doubly Occupied:

       1A    -20.592468     2A    -20.581439     3A    -20.576599
       4A    -20.572892     5A    -20.561268     6A    -11.355029
       7A    -11.300583     8A    -11.291197     9A    -11.287032
      10A    -11.279000    11A     -1.439991    12A     -1.396011
      13A     -1.378469    14A     -1.355357    15A     -1.350755
      16A     -1.066725    17A     -1.023771    18A     -0.904248
      19A     -0.870241    20A     -0.793871    21A     -0.753047
      22A     -0.732430    23A     -0.714695    24A     -0.697609
      25A     -0.670094    26A     -0.643990    27A     -0.622712
      28A     -0.617162    29A     -0.604832    30A     -0.578464
      31A     -0.574266    32A     -0.560904    33A     -0.543823
      34A     -0.513952    35A     -0.503903    36A     -0.494282
      37A     -0.486606    38A     -0.469415    39A     -0.446088
      40A     -0.416967

  @DF-RHF Final Energy:  -569.66484540009048

   => Energetics <=

    Nuclear Repulsion Energy =            635.1634341516094082
    One-Electron Energy =               -2044.4121845971328639
    Two-Electron Energy =                 839.5839050454329708
    Total Energy =                       -569.6648454000904849
  Basis Set: (AUG-CC-PVTZ AUX)
    Blend: AUG-CC-PVTZ-RI
    Molecular point group: c1

    Geometry (in Angstrom), charge = 0, multiplicity = 1:

       Center              X                  Y                   Z               Mass
    ------------   -----------------  -----------------  -----------------  -----------------
         O           -0.111293745739    -1.802786632852     0.459112095642    15.994914619570
         O            0.361905254261     1.391490367148    -1.020438904358    15.994914619570
         O           -1.951679745739     1.368832367148     0.473322095642    15.994914619570
         O            2.718291254261     0.448085367148    -0.201427904358    15.994914619570
         O           -1.668154745739    -0.802719632852    -0.994245904358    15.994914619570
         C            0.435067254261     1.011058367148     0.353986095642    12.000000000000
         C           -0.905855745739     0.471781367148     0.844309095642    12.000000000000
         C            1.498536654261     0.000786667148     0.370499095642    12.000000000000
         C           -1.211666745739    -0.938935632852     0.343957095642    12.000000000000
         C            1.058446254261    -1.319193632852    -0.224411904358    12.000000000000
         H            0.707732254261     1.884959367148     0.964827095642     1.007825032230
         H           -0.878406745739     0.429776367148     1.939576095642     1.007825032230
         H            1.787252254261    -0.234124632852     1.472279095642     1.007825032230
         H           -1.990475745739    -1.399357632852     0.966011095642     1.007825032230
         H            0.847078254261    -1.150029632852    -1.285728904358     1.007825032230
         H            1.809390254261    -2.103881632852    -0.122273904358     1.007825032230
         H           -0.389575745739     2.009622367148    -1.079430904358     1.007825032230
         H           -2.338231745739     0.974203367148    -0.335834904358     1.007825032230
         H            2.355310454261     0.920968967148    -0.975028104358     1.007825032230
         H           -1.992165745739    -1.678753632852    -1.274255904358     1.007825032230

  Basis Set: AUG-CC-PVTZ
    Blend: AUG-CC-PVTZ
  Basis Set: (AUG-CC-PVTZ AUX)
    Blend: AUG-CC-PVTZ-JKFIT
	 Reference Energy          =    -569.6648454000904849 [Eh]
	 Singles Energy            =      -0.0000000000000000 [Eh]
	 Same-Spin Energy          =      -0.5556416496901961 [Eh]
	 Opposite-Spin Energy      =      -1.7055908152408392 [Eh]
	 Correlation Energy        =      -2.2612324649310356 [Eh]
	 Total Energy              =    -571.9260778650215116 [Eh]

	 ================> DF-SCS-MP2 Energies <==================
	-----------------------------------------------------------
	 SCS Same-Spin Scale       =       0.3333333333333333 [-]
	 SCS Opposite-Spin Scale   =       1.2000000000000000 [-]
	 SCS Same-Spin Energy      =      -0.1852138832300654 [Eh]
	 SCS Opposite-Spin Energy  =      -2.0467089782890069 [Eh]
	 SCS Correlation Energy    =      -2.2319228615190720 [Eh]
	 SCS Total Energy          =    -571.8967682616095090 [Eh]
	-----------------------------------------------------------

  Dipole Moment: [D]
     X:    -2.3198      Y:    -0.9648      Z:    -0.3396     Total:     2.5353

*** Psi4 exiting successfully. Buy a developer a beer!
