                               Psi4 1.3.2 release

  ==> Input File <==

--------------------------------------------------------------------------
#psi4
#
memory 32 gb

molecule  {
0 1
  O       -0.1399450    -1.7981204     0.4114830
  O        0.3584290     1.3939840    -1.0246780
  O       -1.9551560     1.3713260     0.4690830
  O        2.7148150     0.4505790    -0.2056670
  O       -1.6716310    -0.8002260    -0.9984850
  C        0.4315910     1.0135520     0.3497470
  C       -0.9093320     0.4742750     0.8400700
  C        1.5345100    -0.0288940     0.4204030
  C       -1.2151430    -0.9364420     0.3397180
  C        1.0549700    -1.3167000    -0.2286510
  H        0.7042560     1.8874530     0.9605880
  H       -0.8818830     0.4322700     1.9353370
  H        1.7837760    -0.2316310     1.4680400
  H       -1.9939520    -1.3968640     0.9617720
  H        0.8076716    -1.1591422    -1.2839735
  H        1.8059140    -2.1013880    -0.1265130
  H       -0.3930520     2.0121160    -1.0836700
  H       -2.3417080     0.9766970    -0.3400740
  H        2.3997000     0.9352960    -0.9928030
  H       -1.9956420    -1.6762600    -1.2784950
units angstrom
no_reorient  #important for SAPT in psi4, default
symmetry c1  #important for SAPT in psi4, default
}

set PROPERTIES_ORIGIN ["COM"]
properties('MP2/aug-cc-pvtz', properties = ['dipole'])
--------------------------------------------------------------------------

    Molecular point group: c1
  Charge       = 0
  Multiplicity = 1
  Basis Set: AUG-CC-PVTZ
    Blend: AUG-CC-PVTZ
  Basis Set: (AUG-CC-PVTZ AUX)
    Blend: AUG-CC-PVTZ-JKFIT

    Orbital Energies [Eh]
    ---------------------

    Doubly Occupied:

       1A    -20.587275     2A    -20.578427     3A    -20.574369
       4A    -20.571217     5A    -20.559322     6A    -11.351512
       7A    -11.298106     8A    -11.291384     9A    -11.287277
      10A    -11.279255    11A     -1.443088    12A     -1.392292
      13A     -1.375945    14A     -1.352613    15A     -1.348171
      16A     -1.059838    17A     -1.024541    18A     -0.898172
      19A     -0.872541    20A     -0.798366    21A     -0.751091
      22A     -0.727499    23A     -0.714875    24A     -0.696323
      25A     -0.670234    26A     -0.646718    27A     -0.621020
      28A     -0.615154    29A     -0.603676    30A     -0.585850
      31A     -0.572265    32A     -0.556867    33A     -0.543287
      34A     -0.516188    35A     -0.503099    36A     -0.490168
      37A     -0.486368    38A     -0.468360    39A     -0.440844
      40A     -0.416608

  @DF-RHF Final Energy:  -569.67485709032792

   => Energetics <=

    Nuclear Repulsion Energy =            634.4932182545331898
    One-Electron Energy =               -2043.1957391543578524
    Two-Electron Energy =                 839.0276638094968575
    Total Energy =                       -569.6748570903279187
  Basis Set: (AUG-CC-PVTZ AUX)
    Blend: AUG-CC-PVTZ-RI
    Molecular point group: c1

    Geometry (in Angstrom), charge = 0, multiplicity = 1:

       Center              X                  Y                   Z               Mass
    ------------   -----------------  -----------------  -----------------  -----------------
         O           -0.137020231659    -1.798274109732     0.416067998205    15.994914619570
         O            0.361353768341     1.393830290268    -1.020093001795    15.994914619570
         O           -1.952231231659     1.371172290268     0.473667998205    15.994914619570
         O            2.717739768341     0.450425290268    -0.201082001795    15.994914619570
         O           -1.668706231659    -0.800379709732    -0.993900001795    15.994914619570
         C            0.434515768341     1.013398290268     0.354331998205    12.000000000000
         C           -0.906407231659     0.474121290268     0.844654998205    12.000000000000
         C            1.537434768341    -0.029047709732     0.424987998205    12.000000000000
         C           -1.212218231659    -0.936595709732     0.344302998205    12.000000000000
         C            1.057894768341    -1.316853709732    -0.224066001795    12.000000000000
         H            0.707180768341     1.887299290268     0.965172998205     1.007825032230
         H           -0.878958231659     0.432116290268     1.939921998205     1.007825032230
         H            1.786700768341    -0.231784709732     1.472624998205     1.007825032230
         H           -1.991027231659    -1.397017709732     0.966356998205     1.007825032230
         H            0.810596368341    -1.159295909732    -1.279388501795     1.007825032230
         H            1.808838768341    -2.101541709732    -0.121928001795     1.007825032230
         H           -0.390127231659     2.011962290268    -1.079085001795     1.007825032230
         H           -2.338783231659     0.976543290268    -0.335489001795     1.007825032230
         H            2.402624768341     0.935142290268    -0.988218001795     1.007825032230
         H           -1.992717231659    -1.676413709732    -1.273910001795     1.007825032230

  Basis Set: AUG-CC-PVTZ
    Blend: AUG-CC-PVTZ
  Basis Set: (AUG-CC-PVTZ AUX)
    Blend: AUG-CC-PVTZ-JKFIT
	 Reference Energy          =    -569.6748570903279187 [Eh]
	 Singles Energy            =      -0.0000000000000000 [Eh]
	 Same-Spin Energy          =      -0.5544067424721960 [Eh]
	 Opposite-Spin Energy      =      -1.7030732517241218 [Eh]
	 Correlation Energy        =      -2.2574799941963177 [Eh]
	 Total Energy              =    -571.9323370845241925 [Eh]

	 ================> DF-SCS-MP2 Energies <==================
	-----------------------------------------------------------
	 SCS Same-Spin Scale       =       0.3333333333333333 [-]
	 SCS Opposite-Spin Scale   =       1.2000000000000000 [-]
	 SCS Same-Spin Energy      =      -0.1848022474907320 [Eh]
	 SCS Opposite-Spin Energy  =      -2.0436879020689460 [Eh]
	 SCS Correlation Energy    =      -2.2284901495596778 [Eh]
	 SCS Total Energy          =    -571.9033472398875801 [Eh]
	-----------------------------------------------------------

  Dipole Moment: [D]
     X:    -2.0669      Y:    -0.9988      Z:    -0.2007     Total:     2.3043

*** Psi4 exiting successfully. Buy a developer a beer!
