                               Psi4 1.3.2 release

  ==> Input File <==

--------------------------------------------------------------------------
#psi4
#
memory 32 gb

molecule  {
0 1
  O       -0.1147700    -1.8002930     0.4548730
  O        0.3584290     1.3939840    -1.0246780
  O       -1.9551560     1.3713260     0.4690830
  O        2.7148150     0.4505790    -0.2056670
  O       -1.6716310    -0.8002260    -0.9984850
  C        0.4315910     1.0135520     0.3497470
  C       -0.9093320     0.4742750     0.8400700
  C        1.5345100    -0.0288940     0.4204030
  C       -1.2343187    -1.0082383     0.3368847
  C        1.0549700    -1.3167000    -0.2286510
  H        0.7042560     1.8874530     0.9605880
  H       -0.8818830     0.4322700     1.9353370
  H        1.7837760    -0.2316310     1.4680400
  H       -1.9939520    -1.3968640     0.9617720
  H        0.8436020    -1.1475360    -1.2899680
  H        1.8059140    -2.1013880    -0.1265130
  H       -0.3930520     2.0121160    -1.0836700
  H       -2.3417080     0.9766970    -0.3400740
  H        2.3997000     0.9352960    -0.9928030
  H       -1.9832160    -1.6941286    -1.2323165
units angstrom
no_reorient  #important for SAPT in psi4, default
symmetry c1  #important for SAPT in psi4, default
}

set PROPERTIES_ORIGIN ["COM"]
properties('MP2/aug-cc-pvtz', properties = ['dipole'])
--------------------------------------------------------------------------

    Molecular point group: c1
  Charge       = 0
  Multiplicity = 1
  Basis Set: AUG-CC-PVTZ
    Blend: AUG-CC-PVTZ
  Basis Set: (AUG-CC-PVTZ AUX)
    Blend: AUG-CC-PVTZ-JKFIT

    Orbital Energies [Eh]
    ---------------------

    Doubly Occupied:

       1A    -20.594469     2A    -20.582505     3A    -20.571649
       4A    -20.569673     5A    -20.558233     6A    -11.352874
       7A    -11.295904     8A    -11.289508     9A    -11.285564
      10A    -11.280987    11A     -1.444362    12A     -1.390706
      13A     -1.376229    14A     -1.357185    15A     -1.346625
      16A     -1.055051    17A     -1.019212    18A     -0.892761
      19A     -0.872678    20A     -0.795444    21A     -0.755811
      22A     -0.726089    23A     -0.715869    24A     -0.693466
      25A     -0.669042    26A     -0.645228    27A     -0.627153
      28A     -0.614880    29A     -0.600805    30A     -0.585503
      31A     -0.577971    32A     -0.552489    33A     -0.541664
      34A     -0.514758    35A     -0.510272    36A     -0.490659
      37A     -0.479453    38A     -0.472195    39A     -0.440188
      40A     -0.408921

  @DF-RHF Final Energy:  -569.66860666370633

   => Energetics <=

    Nuclear Repulsion Energy =            632.9487687417158668
    One-Electron Energy =               -2040.1266775405365479
    Two-Electron Energy =                 837.5093021351143534
    Total Energy =                       -569.6686066637063277
  Basis Set: (AUG-CC-PVTZ AUX)
    Blend: AUG-CC-PVTZ-RI
    Molecular point group: c1

    Geometry (in Angstrom), charge = 0, multiplicity = 1:

       Center              X                  Y                   Z               Mass
    ------------   -----------------  -----------------  -----------------  -----------------
         O           -0.113320034738    -1.794431377702     0.454789520995    15.994914619570
         O            0.359878965262     1.399845622298    -1.024761479005    15.994914619570
         O           -1.953706034738     1.377187622298     0.468999520995    15.994914619570
         O            2.716264965262     0.456440622298    -0.205750479005    15.994914619570
         O           -1.670181034738    -0.794364377702    -0.998568479005    15.994914619570
         C            0.433040965262     1.019413622298     0.349663520995    12.000000000000
         C           -0.907882034738     0.480136622298     0.839986520995    12.000000000000
         C            1.535959965262    -0.023032377702     0.420319520995    12.000000000000
         C           -1.232868734738    -1.002376677702     0.336801220995    12.000000000000
         C            1.056419965262    -1.310838377702    -0.228734479005    12.000000000000
         H            0.705705965262     1.893314622298     0.960504520995     1.007825032230
         H           -0.880433034738     0.438131622298     1.935253520995     1.007825032230
         H            1.785225965262    -0.225769377702     1.467956520995     1.007825032230
         H           -1.992502034738    -1.391002377702     0.961688520995     1.007825032230
         H            0.845051965262    -1.141674377702    -1.290051479005     1.007825032230
         H            1.807363965262    -2.095526377702    -0.126596479005     1.007825032230
         H           -0.391602034738     2.017977622298    -1.083753479005     1.007825032230
         H           -2.340258034738     0.982558622298    -0.340157479005     1.007825032230
         H            2.401149965262     0.941157622298    -0.992886479005     1.007825032230
         H           -1.981766034738    -1.688266977702    -1.232399979005     1.007825032230

  Basis Set: AUG-CC-PVTZ
    Blend: AUG-CC-PVTZ
  Basis Set: (AUG-CC-PVTZ AUX)
    Blend: AUG-CC-PVTZ-JKFIT
	 Reference Energy          =    -569.6686066637063277 [Eh]
	 Singles Energy            =      -0.0000000000000000 [Eh]
	 Same-Spin Energy          =      -0.5545637817646545 [Eh]
	 Opposite-Spin Energy      =      -1.7038558523825933 [Eh]
	 Correlation Energy        =      -2.2584196341472476 [Eh]
	 Total Energy              =    -571.9270262978535584 [Eh]

	 ================> DF-SCS-MP2 Energies <==================
	-----------------------------------------------------------
	 SCS Same-Spin Scale       =       0.3333333333333333 [-]
	 SCS Opposite-Spin Scale   =       1.2000000000000000 [-]
	 SCS Same-Spin Energy      =      -0.1848545939215515 [Eh]
	 SCS Opposite-Spin Energy  =      -2.0446270228591117 [Eh]
	 SCS Correlation Energy    =      -2.2294816167806633 [Eh]
	 SCS Total Energy          =    -571.8980882804869452 [Eh]
	-----------------------------------------------------------

  Dipole Moment: [D]
     X:    -2.1503      Y:    -1.1935      Z:    -0.2670     Total:     2.4737

*** Psi4 exiting successfully. Buy a developer a beer!
