                               Psi4 1.3.2 release

  ==> Input File <==

--------------------------------------------------------------------------
#psi4
#
memory 32 gb

molecule  {
0 1
  O       -0.1147700    -1.8002930     0.4548730
  O        0.3584290     1.3939840    -1.0246780
  O       -1.9551560     1.3713260     0.4690830
  O        2.7148150     0.4505790    -0.2056670
  O       -1.6716310    -0.8002260    -0.9984850
  C        0.4315910     1.0135520     0.3497470
  C       -0.9093320     0.4742750     0.8400700
  C        1.5345100    -0.0288940     0.4204030
  C       -1.2118456    -0.9083536     0.2649016
  C        1.0549700    -1.3167000    -0.2286510
  H        0.7042560     1.8874530     0.9605880
  H       -0.8703388     0.4884977     1.9356999
  H        1.7837760    -0.2316310     1.4680400
  H       -1.9939520    -1.3968640     0.9617720
  H        0.8436020    -1.1475360    -1.2899680
  H        1.8059140    -2.1013880    -0.1265130
  H       -0.3930520     2.0121160    -1.0836700
  H       -2.3417080     0.9766970    -0.3400740
  H        2.3997000     0.9352960    -0.9928030
  H       -1.9956420    -1.6762600    -1.2784950
units angstrom
no_reorient  #important for SAPT in psi4, default
symmetry c1  #important for SAPT in psi4, default
}

set PROPERTIES_ORIGIN ["COM"]
properties('MP2/aug-cc-pvtz', properties = ['dipole'])
--------------------------------------------------------------------------

    Molecular point group: c1
  Charge       = 0
  Multiplicity = 1
  Basis Set: AUG-CC-PVTZ
    Blend: AUG-CC-PVTZ
  Basis Set: (AUG-CC-PVTZ AUX)
    Blend: AUG-CC-PVTZ-JKFIT

    Orbital Energies [Eh]
    ---------------------

    Doubly Occupied:

       1A    -20.603613     2A    -20.577521     3A    -20.574345
       4A    -20.571608     5A    -20.557379     6A    -11.355850
       7A    -11.298094     8A    -11.289242     9A    -11.284397
      10A    -11.275461    11A     -1.456196    12A     -1.393477
      13A     -1.376043    14A     -1.361674    15A     -1.347475
      16A     -1.058419    17A     -1.017112    18A     -0.899672
      19A     -0.867223    20A     -0.804343    21A     -0.755539
      22A     -0.732504    23A     -0.712208    24A     -0.700588
      25A     -0.671889    26A     -0.647407    27A     -0.623487
      28A     -0.612156    29A     -0.605815    30A     -0.586928
      31A     -0.573246    32A     -0.556740    33A     -0.543143
      34A     -0.516966    35A     -0.493028    36A     -0.491793
      37A     -0.489565    38A     -0.470631    39A     -0.435927
      40A     -0.412358

  @DF-RHF Final Energy:  -569.66686749294956

   => Energetics <=

    Nuclear Repulsion Energy =            634.8042062340438179
    One-Electron Energy =               -2043.7400264480563692
    Two-Electron Energy =                 839.2689527210628739
    Total Energy =                       -569.6668674929495637
  Basis Set: (AUG-CC-PVTZ AUX)
    Blend: AUG-CC-PVTZ-RI
    Molecular point group: c1

    Geometry (in Angstrom), charge = 0, multiplicity = 1:

       Center              X                  Y                   Z               Mass
    ------------   -----------------  -----------------  -----------------  -----------------
         O           -0.115111327256    -1.802917006142     0.460853860791    15.994914619570
         O            0.358087672744     1.391359993858    -1.018697139209    15.994914619570
         O           -1.955497327256     1.368701993858     0.475063860791    15.994914619570
         O            2.714473672744     0.447954993858    -0.199686139209    15.994914619570
         O           -1.671972327256    -0.802850006142    -0.992504139209    15.994914619570
         C            0.431249672744     1.010927993858     0.355727860791    12.000000000000
         C           -0.909673327256     0.471650993858     0.846050860791    12.000000000000
         C            1.534168672744    -0.031518006142     0.426383860791    12.000000000000
         C           -1.212186927256    -0.910977606142     0.270882460791    12.000000000000
         C            1.054628672744    -1.319324006142    -0.222670139209    12.000000000000
         H            0.703914672744     1.884828993858     0.966568860791     1.007825032230
         H           -0.870680127256     0.485873693858     1.941680760791     1.007825032230
         H            1.783434672744    -0.234255006142     1.474020860791     1.007825032230
         H           -1.994293327256    -1.399488006142     0.967752860791     1.007825032230
         H            0.843260672744    -1.150160006142    -1.283987139209     1.007825032230
         H            1.805572672744    -2.104012006142    -0.120532139209     1.007825032230
         H           -0.393393327256     2.009491993858    -1.077689139209     1.007825032230
         H           -2.342049327256     0.974072993858    -0.334093139209     1.007825032230
         H            2.399358672744     0.932671993858    -0.986822139209     1.007825032230
         H           -1.995983327256    -1.678884006142    -1.272514139209     1.007825032230

  Basis Set: AUG-CC-PVTZ
    Blend: AUG-CC-PVTZ
  Basis Set: (AUG-CC-PVTZ AUX)
    Blend: AUG-CC-PVTZ-JKFIT
	 Reference Energy          =    -569.6668674929495637 [Eh]
	 Singles Energy            =      -0.0000000000000000 [Eh]
	 Same-Spin Energy          =      -0.5550378692843174 [Eh]
	 Opposite-Spin Energy      =      -1.7040933078490879 [Eh]
	 Correlation Energy        =      -2.2591311771334053 [Eh]
	 Total Energy              =    -571.9259986700830041 [Eh]

	 ================> DF-SCS-MP2 Energies <==================
	-----------------------------------------------------------
	 SCS Same-Spin Scale       =       0.3333333333333333 [-]
	 SCS Opposite-Spin Scale   =       1.2000000000000000 [-]
	 SCS Same-Spin Energy      =      -0.1850126230947725 [Eh]
	 SCS Opposite-Spin Energy  =      -2.0449119694189055 [Eh]
	 SCS Correlation Energy    =      -2.2299245925136781 [Eh]
	 SCS Total Energy          =    -571.8967920854632894 [Eh]
	-----------------------------------------------------------

  Dipole Moment: [D]
     X:    -2.3206      Y:    -0.9189      Z:    -0.6042     Total:     2.5680

*** Psi4 exiting successfully. Buy a developer a beer!
