                               Psi4 1.3.2 release

  ==> Input File <==

--------------------------------------------------------------------------
#psi4
#
memory 32 gb

molecule  {
0 1
  O       -0.0888229    -1.7633215     0.4738568
  O        0.3584290     1.3939840    -1.0246780
  O       -1.9551560     1.3713260     0.4690830
  O        2.7148150     0.4505790    -0.2056670
  O       -1.6716310    -0.8002260    -0.9984850
  C        0.4315910     1.0135520     0.3497470
  C       -0.8597960     0.4583768     0.8517766
  C        1.5345100    -0.0288940     0.4204030
  C       -1.2151430    -0.9364420     0.3397180
  C        1.0549700    -1.3167000    -0.2286510
  H        0.7042560     1.8874530     0.9605880
  H       -0.8818830     0.4322700     1.9353370
  H        1.7837760    -0.2316310     1.4680400
  H       -1.9939520    -1.3968640     0.9617720
  H        0.8436020    -1.1475360    -1.2899680
  H        1.8059140    -2.1013880    -0.1265130
  H       -0.3930520     2.0121160    -1.0836700
  H       -2.3417080     0.9766970    -0.3400740
  H        2.3997000     0.9352960    -0.9928030
  H       -1.9956420    -1.6762600    -1.2784950
units angstrom
no_reorient  #important for SAPT in psi4, default
symmetry c1  #important for SAPT in psi4, default
}

set PROPERTIES_ORIGIN ["COM"]
properties('MP2/aug-cc-pvtz', properties = ['dipole'])
--------------------------------------------------------------------------

    Molecular point group: c1
  Charge       = 0
  Multiplicity = 1
  Basis Set: AUG-CC-PVTZ
    Blend: AUG-CC-PVTZ
  Basis Set: (AUG-CC-PVTZ AUX)
    Blend: AUG-CC-PVTZ-JKFIT

    Orbital Energies [Eh]
    ---------------------

    Doubly Occupied:

       1A    -20.594315     2A    -20.579147     3A    -20.571975
       4A    -20.567988     5A    -20.556669     6A    -11.356817
       7A    -11.297885     8A    -11.291238     9A    -11.284240
      10A    -11.276904    11A     -1.441537    12A     -1.389617
      13A     -1.372072    14A     -1.352384    15A     -1.341584
      16A     -1.065074    17A     -1.026916    18A     -0.898380
      19A     -0.871239    20A     -0.798671    21A     -0.752918
      22A     -0.731639    23A     -0.713442    24A     -0.690333
      25A     -0.670088    26A     -0.646153    27A     -0.623713
      28A     -0.615366    29A     -0.600854    30A     -0.580665
      31A     -0.571139    32A     -0.553725    33A     -0.540992
      34A     -0.514343    35A     -0.505565    36A     -0.489361
      37A     -0.488096    38A     -0.471707    39A     -0.446969
      40A     -0.413147

  @DF-RHF Final Energy:  -569.67072142188340

   => Energetics <=

    Nuclear Repulsion Energy =            634.9188596450326258
    One-Electron Energy =               -2044.0694214044772252
    Two-Electron Energy =                 839.4798403375611997
    Total Energy =                       -569.6707214218833997
  Basis Set: (AUG-CC-PVTZ AUX)
    Blend: AUG-CC-PVTZ-RI
    Molecular point group: c1

    Geometry (in Angstrom), charge = 0, multiplicity = 1:

       Center              X                  Y                   Z               Mass
    ------------   -----------------  -----------------  -----------------  -----------------
         O           -0.095550313792    -1.765991150750     0.470897112457    15.994914619570
         O            0.351701586208     1.391314349250    -1.027637687543    15.994914619570
         O           -1.961883413792     1.368656349250     0.466123312457    15.994914619570
         O            2.708087586208     0.447909349250    -0.208626687543    15.994914619570
         O           -1.678358413792    -0.802895650750    -1.001444687543    15.994914619570
         C            0.424863586208     1.010882349250     0.346787312457    12.000000000000
         C           -0.866523413792     0.455707149250     0.848816912457    12.000000000000
         C            1.527782586208    -0.031563650750     0.417443312457    12.000000000000
         C           -1.221870413792    -0.939111650750     0.336758312457    12.000000000000
         C            1.048242586208    -1.319369650750    -0.231610687543    12.000000000000
         H            0.697528586208     1.884783349250     0.957628312457     1.007825032230
         H           -0.888610413792     0.429600349250     1.932377312457     1.007825032230
         H            1.777048586208    -0.234300650750     1.465080312457     1.007825032230
         H           -2.000679413792    -1.399533650750     0.958812312457     1.007825032230
         H            0.836874586208    -1.150205650750    -1.292927687543     1.007825032230
         H            1.799186586208    -2.104057650750    -0.129472687543     1.007825032230
         H           -0.399779413792     2.009446349250    -1.086629687543     1.007825032230
         H           -2.348435413792     0.974027349250    -0.343033687543     1.007825032230
         H            2.392972586208     0.932626349250    -0.995762687543     1.007825032230
         H           -2.002369413792    -1.678929650750    -1.281454687543     1.007825032230

  Basis Set: AUG-CC-PVTZ
    Blend: AUG-CC-PVTZ
  Basis Set: (AUG-CC-PVTZ AUX)
    Blend: AUG-CC-PVTZ-JKFIT
	 Reference Energy          =    -569.6707214218833997 [Eh]
	 Singles Energy            =      -0.0000000000000000 [Eh]
	 Same-Spin Energy          =      -0.5548578391212052 [Eh]
	 Opposite-Spin Energy      =      -1.7042825669372710 [Eh]
	 Correlation Energy        =      -2.2591404060584761 [Eh]
	 Total Energy              =    -571.9298618279418633 [Eh]

	 ================> DF-SCS-MP2 Energies <==================
	-----------------------------------------------------------
	 SCS Same-Spin Scale       =       0.3333333333333333 [-]
	 SCS Opposite-Spin Scale   =       1.2000000000000000 [-]
	 SCS Same-Spin Energy      =      -0.1849526130404017 [Eh]
	 SCS Opposite-Spin Energy  =      -2.0451390803247249 [Eh]
	 SCS Correlation Energy    =      -2.2300916933651265 [Eh]
	 SCS Total Energy          =    -571.9008131152485248 [Eh]
	-----------------------------------------------------------

  Dipole Moment: [D]
     X:    -2.1473      Y:    -1.1846      Z:    -0.2928     Total:     2.4698

*** Psi4 exiting successfully. Buy a developer a beer!
