                               Psi4 1.4a3.dev225

  ==> Input File <==

--------------------------------------------------------------------------
#psi4
#
memory 32 gb

molecule  {
0 1
  O       -0.2343850     1.7978400    -0.4145210
  O        0.4791390    -1.3900560     0.9851260
  O       -1.8902550    -1.4798720    -0.4079610
  O        2.7489250    -0.2990660     0.0843650
  O       -1.6766260     0.6849030     1.0797040
  C        0.4758930    -0.9871420    -0.3839460
  C       -0.9153110    -0.5160320    -0.8112700
  C        1.5148540     0.1205520    -0.4811210
  C       -1.2675303     0.8252495    -0.2901435
  C        0.9914930     1.3693070     0.2124490
  H        0.7732420    -1.8350180    -1.0199460
  H       -0.9367810    -0.4539690    -1.9062570
  H        1.7061480     0.3550680    -1.5342930
  H       -2.1075740     1.2945610    -0.8542440
  H        0.8333730     1.1741050     1.2776920
  H        1.6908660     2.1982840     0.0933200
  H       -0.2684360    -2.0097880     1.0741120
  H       -2.2907410    -1.1048270     0.4011470
  H        2.5001980    -0.8049050     0.8819700
  H       -2.0397460     1.5332780     1.3914430
units angstrom
no_reorient  #important for SAPT in psi4, default
symmetry c1  #important for SAPT in psi4, default
}

set PROPERTIES_ORIGIN ["COM"]
properties('MP2/aug-cc-pvtz', properties = ['dipole'])
--------------------------------------------------------------------------

    Molecular point group: c1
  Charge       = 0
  Multiplicity = 1
  Basis Set: AUG-CC-PVTZ
    Blend: AUG-CC-PVTZ
  Basis Set: (AUG-CC-PVTZ AUX)
    Blend: AUG-CC-PVTZ-JKFIT

    Orbital Energies [Eh]
    ---------------------

    Doubly Occupied:

       1A    -20.588906     2A    -20.580917     3A    -20.577580
       4A    -20.571190     5A    -20.558944     6A    -11.356575
       7A    -11.300804     8A    -11.292788     9A    -11.286673
      10A    -11.277559    11A     -1.433193    12A     -1.391113
      13A     -1.375889    14A     -1.348992    15A     -1.348195
      16A     -1.063422    17A     -1.026020    18A     -0.902850
      19A     -0.868901    20A     -0.798751    21A     -0.750761
      22A     -0.727653    23A     -0.710164    24A     -0.696317
      25A     -0.668060    26A     -0.647897    27A     -0.617833
      28A     -0.614467    29A     -0.602785    30A     -0.582894
      31A     -0.568739    32A     -0.559770    33A     -0.543612
      34A     -0.517560    35A     -0.499601    36A     -0.495658
      37A     -0.487314    38A     -0.469883    39A     -0.441605
      40A     -0.419451

  @DF-RHF Final Energy:  -569.67053636261232

   => Energetics <=

    Nuclear Repulsion Energy =            633.5952016071616981
    One-Electron Energy =               -2041.3889013031491686
    Two-Electron Energy =                 838.1231633333751461
    Total Energy =                       -569.6705363626123244
  Basis Set: (AUG-CC-PVTZ AUX)
    Blend: AUG-CC-PVTZ-RI
    Molecular point group: c1

    Geometry (in Angstrom), charge = 0, multiplicity = 1:

       Center              X                  Y                   Z               Mass
    ------------   -----------------  -----------------  -----------------  -----------------
         O           -0.236277167939     1.803729989254    -0.414359062628    15.994914619570
         O            0.477246832061    -1.384166010746     0.985287937372    15.994914619570
         O           -1.892147167939    -1.473982010746    -0.407799062628    15.994914619570
         O            2.747032832061    -0.293176010746     0.084526937372    15.994914619570
         O           -1.678518167939     0.690792989254     1.079865937372    15.994914619570
         C            0.474000832061    -0.981252010746    -0.383784062628    12.000000000000
         C           -0.917203167939    -0.510142010746    -0.811108062628    12.000000000000
         C            1.512961832061     0.126441989254    -0.480959062628    12.000000000000
         C           -1.269422467939     0.831139489254    -0.289981562628    12.000000000000
         C            0.989600832061     1.375196989254     0.212610937372    12.000000000000
         H            0.771349832061    -1.829128010746    -1.019784062628     1.007825032230
         H           -0.938673167939    -0.448079010746    -1.906095062628     1.007825032230
         H            1.704255832061     0.360957989254    -1.534131062628     1.007825032230
         H           -2.109466167939     1.300450989254    -0.854082062628     1.007825032230
         H            0.831480832061     1.179994989254     1.277853937372     1.007825032230
         H            1.688973832061     2.204173989254     0.093481937372     1.007825032230
         H           -0.270328167939    -2.003898010746     1.074273937372     1.007825032230
         H           -2.292633167939    -1.098937010746     0.401308937372     1.007825032230
         H            2.498305832061    -0.799015010746     0.882131937372     1.007825032230
         H           -2.041638167939     1.539167989254     1.391604937372     1.007825032230

  Basis Set: AUG-CC-PVTZ
    Blend: AUG-CC-PVTZ
  Basis Set: (AUG-CC-PVTZ AUX)
    Blend: AUG-CC-PVTZ-JKFIT
	 Reference Energy          =    -569.6705363626123244 [Eh]
	 Singles Energy            =      -0.0000000000000000 [Eh]
	 Same-Spin Energy          =      -0.5549719198901881 [Eh]
	 Opposite-Spin Energy      =      -1.7049533232352039 [Eh]
	 Correlation Energy        =      -2.2599252431253918 [Eh]
	 Total Energy              =    -571.9304616057377189 [Eh]

	 ================> DF-SCS-MP2 Energies <==================
	-----------------------------------------------------------
	 SCS Same-Spin Scale       =       0.3333333333333333 [-]
	 SCS Opposite-Spin Scale   =       1.2000000000000000 [-]
	 SCS Same-Spin Energy      =      -0.1849906399633960 [Eh]
	 SCS Opposite-Spin Energy  =      -2.0459439878822447 [Eh]
	 SCS Correlation Energy    =      -2.2309346278456408 [Eh]
	 SCS Total Energy          =    -571.9014709904579377 [Eh]
	-----------------------------------------------------------

  Dipole Moment: [D]
     X:    -2.2713      Y:     0.8381      Z:     0.3211     Total:     2.4422

*** Psi4 exiting successfully. Buy a developer a beer!
