                               Psi4 1.3.2 release

  ==> Input File <==

--------------------------------------------------------------------------
#psi4
#
memory 32 gb

molecule  {
0 1
  O       -0.1147700    -1.8002930     0.4548730
  O        0.3584290     1.3939840    -1.0246780
  O       -1.9551560     1.3713260     0.4690830
  O        2.7148150     0.4505790    -0.2056670
  O       -1.6716310    -0.8002260    -0.9984850
  C        0.4315910     1.0135520     0.3497470
  C       -0.9103897     0.5128897     0.8767537
  C        1.5345100    -0.0288940     0.4204030
  C       -1.2151430    -0.9364420     0.3397180
  C        1.0549700    -1.3167000    -0.2286510
  H        0.6716859     1.8828956     0.9804387
  H       -0.8818830     0.4322700     1.9353370
  H        1.7837760    -0.2316310     1.4680400
  H       -1.9939520    -1.3968640     0.9617720
  H        0.8436020    -1.1475360    -1.2899680
  H        1.8059140    -2.1013880    -0.1265130
  H       -0.3930520     2.0121160    -1.0836700
  H       -2.3417080     0.9766970    -0.3400740
  H        2.3997000     0.9352960    -0.9928030
  H       -1.9956420    -1.6762600    -1.2784950
units angstrom
no_reorient  #important for SAPT in psi4, default
symmetry c1  #important for SAPT in psi4, default
}

set PROPERTIES_ORIGIN ["COM"]
properties('MP2/aug-cc-pvtz', properties = ['dipole'])
--------------------------------------------------------------------------

    Molecular point group: c1
  Charge       = 0
  Multiplicity = 1
  Basis Set: AUG-CC-PVTZ
    Blend: AUG-CC-PVTZ
  Basis Set: (AUG-CC-PVTZ AUX)
    Blend: AUG-CC-PVTZ-JKFIT

    Orbital Energies [Eh]
    ---------------------

    Doubly Occupied:

       1A    -20.591081     2A    -20.579514     3A    -20.574707
       4A    -20.572584     5A    -20.558119     6A    -11.353011
       7A    -11.297724     8A    -11.290429     9A    -11.286011
      10A    -11.277598    11A     -1.436545    12A     -1.392557
      13A     -1.376949    14A     -1.353785    15A     -1.348252
      16A     -1.057859    17A     -1.018461    18A     -0.893554
      19A     -0.873114    20A     -0.799897    21A     -0.750303
      22A     -0.727792    23A     -0.709873    24A     -0.699475
      25A     -0.670692    26A     -0.648900    27A     -0.620173
      28A     -0.613047    29A     -0.604048    30A     -0.586264
      31A     -0.572238    32A     -0.553352    33A     -0.545926
      34A     -0.517905    35A     -0.501383    36A     -0.490403
      37A     -0.485258    38A     -0.470628    39A     -0.440748
      40A     -0.409733

  @DF-RHF Final Energy:  -569.67227322204008

   => Energetics <=

    Nuclear Repulsion Energy =            633.0621606655751066
    One-Electron Energy =               -2040.3690875242782568
    Two-Electron Energy =                 837.6346536366631881
    Total Energy =                       -569.6722732220400758
  Basis Set: (AUG-CC-PVTZ AUX)
    Blend: AUG-CC-PVTZ-RI
    Molecular point group: c1

    Geometry (in Angstrom), charge = 0, multiplicity = 1:

       Center              X                  Y                   Z               Mass
    ------------   -----------------  -----------------  -----------------  -----------------
         O           -0.114466749609    -1.803350552497     0.451806103730    15.994914619570
         O            0.358732250391     1.390926447503    -1.027744896270    15.994914619570
         O           -1.954852749609     1.368268447503     0.466016103730    15.994914619570
         O            2.715118250391     0.447521447503    -0.208733896270    15.994914619570
         O           -1.671327749609    -0.803283552497    -1.001551896270    15.994914619570
         C            0.431894250391     1.010494447503     0.346680103730    12.000000000000
         C           -0.910086449609     0.509832147503     0.873686803730    12.000000000000
         C            1.534813250391    -0.031951552497     0.417336103730    12.000000000000
         C           -1.214839749609    -0.939499552497     0.336651103730    12.000000000000
         C            1.055273250391    -1.319757552497    -0.231717896270    12.000000000000
         H            0.671989150391     1.879838047503     0.977371803730     1.007825032230
         H           -0.881579749609     0.429212447503     1.932270103730     1.007825032230
         H            1.784079250391    -0.234688552497     1.464973103730     1.007825032230
         H           -1.993648749609    -1.399921552497     0.958705103730     1.007825032230
         H            0.843905250391    -1.150593552497    -1.293034896270     1.007825032230
         H            1.806217250391    -2.104445552497    -0.129579896270     1.007825032230
         H           -0.392748749609     2.009058447503    -1.086736896270     1.007825032230
         H           -2.341404749609     0.973639447503    -0.343140896270     1.007825032230
         H            2.400003250391     0.932238447503    -0.995869896270     1.007825032230
         H           -1.995338749609    -1.679317552497    -1.281561896270     1.007825032230

  Basis Set: AUG-CC-PVTZ
    Blend: AUG-CC-PVTZ
  Basis Set: (AUG-CC-PVTZ AUX)
    Blend: AUG-CC-PVTZ-JKFIT
	 Reference Energy          =    -569.6722732220400758 [Eh]
	 Singles Energy            =      -0.0000000000000000 [Eh]
	 Same-Spin Energy          =      -0.5543722053481165 [Eh]
	 Opposite-Spin Energy      =      -1.7034170384349629 [Eh]
	 Correlation Energy        =      -2.2577892437830793 [Eh]
	 Total Energy              =    -571.9300624658231982 [Eh]

	 ================> DF-SCS-MP2 Energies <==================
	-----------------------------------------------------------
	 SCS Same-Spin Scale       =       0.3333333333333333 [-]
	 SCS Opposite-Spin Scale   =       1.2000000000000000 [-]
	 SCS Same-Spin Energy      =      -0.1847907351160388 [Eh]
	 SCS Opposite-Spin Energy  =      -2.0441004461219556 [Eh]
	 SCS Correlation Energy    =      -2.2288911812379943 [Eh]
	 SCS Total Energy          =    -571.9011644032780168 [Eh]
	-----------------------------------------------------------

  Dipole Moment: [D]
     X:    -2.2170      Y:    -0.9492      Z:    -0.2753     Total:     2.4273

*** Psi4 exiting successfully. Buy a developer a beer!
