                               Psi4 1.3.2 release

  ==> Input File <==

--------------------------------------------------------------------------
#psi4
#
memory 32 gb

molecule  {
0 1
  O       -0.1147700    -1.8002930     0.4548730
  O        0.3584290     1.3939840    -1.0246780
  O       -1.9551560     1.3713260     0.4690830
  O        2.7148150     0.4505790    -0.2056670
  O       -1.6716310    -0.8002260    -0.9984850
  C        0.4315910     1.0135520     0.3497470
  C       -0.9093320     0.4742750     0.8400700
  C        1.5345100    -0.0288940     0.4204030
  C       -1.2151430    -0.9364420     0.3397180
  C        1.0549700    -1.3167000    -0.2286510
  H        0.6547046     1.7286391     0.8495799
  H       -0.8818830     0.4322700     1.9353370
  H        1.7837760    -0.2316310     1.4680400
  H       -1.9939520    -1.3968640     0.9617720
  H        0.8436020    -1.1475360    -1.2899680
  H        1.8059140    -2.1013880    -0.1265130
  H       -0.3930520     2.0121160    -1.0836700
  H       -2.3417080     0.9766970    -0.3400740
  H        2.3997000     0.9352960    -0.9928030
  H       -1.9956420    -1.6762600    -1.2784950
units angstrom
no_reorient  #important for SAPT in psi4, default
symmetry c1  #important for SAPT in psi4, default
}

set PROPERTIES_ORIGIN ["COM"]
properties('MP2/aug-cc-pvtz', properties = ['dipole'])
--------------------------------------------------------------------------

    Molecular point group: c1
  Charge       = 0
  Multiplicity = 1
  Basis Set: AUG-CC-PVTZ
    Blend: AUG-CC-PVTZ
  Basis Set: (AUG-CC-PVTZ AUX)
    Blend: AUG-CC-PVTZ-JKFIT

    Orbital Energies [Eh]
    ---------------------

    Doubly Occupied:

       1A    -20.590910     2A    -20.579919     3A    -20.574504
       4A    -20.568468     5A    -20.558255     6A    -11.352877
       7A    -11.297138     8A    -11.284509     9A    -11.277020
      10A    -11.266416    11A     -1.437961    12A     -1.391349
      13A     -1.375371    14A     -1.353337    15A     -1.347093
      16A     -1.066690    17A     -1.022080    18A     -0.916187
      19A     -0.869605    20A     -0.800100    21A     -0.753945
      22A     -0.745530    23A     -0.712101    24A     -0.696500
      25A     -0.671835    26A     -0.648151    27A     -0.623857
      28A     -0.615100    29A     -0.604235    30A     -0.584367
      31A     -0.571463    32A     -0.557481    33A     -0.543855
      34A     -0.518320    35A     -0.503307    36A     -0.492696
      37A     -0.487413    38A     -0.472342    39A     -0.440190
      40A     -0.418488

  @DF-RHF Final Energy:  -569.64340229004483

   => Energetics <=

    Nuclear Repulsion Energy =            635.2032084021568608
    One-Electron Energy =               -2044.5112885173998620
    Two-Electron Energy =                 839.6646778251981686
    Total Energy =                       -569.6434022900448326
  Basis Set: (AUG-CC-PVTZ AUX)
    Blend: AUG-CC-PVTZ-RI
    Molecular point group: c1

    Geometry (in Angstrom), charge = 0, multiplicity = 1:

       Center              X                  Y                   Z               Mass
    ------------   -----------------  -----------------  -----------------  -----------------
         O           -0.114437281458    -1.799226405093     0.455618675604    15.994914619570
         O            0.358761718542     1.395050594907    -1.023932324396    15.994914619570
         O           -1.954823281458     1.372392594907     0.469828675604    15.994914619570
         O            2.715147718542     0.451645594907    -0.204921324396    15.994914619570
         O           -1.671298281458    -0.799159405093    -0.997739324396    15.994914619570
         C            0.431923718542     1.014618594907     0.350492675604    12.000000000000
         C           -0.908999281458     0.475341594907     0.840815675604    12.000000000000
         C            1.534842718542    -0.027827405093     0.421148675604    12.000000000000
         C           -1.214810281458    -0.935375405093     0.340463675604    12.000000000000
         C            1.055302718542    -1.315633405093    -0.227905324396    12.000000000000
         H            0.655037318542     1.729705694907     0.850325575604     1.007825032230
         H           -0.881550281458     0.433336594907     1.936082675604     1.007825032230
         H            1.784108718542    -0.230564405093     1.468785675604     1.007825032230
         H           -1.993619281458    -1.395797405093     0.962517675604     1.007825032230
         H            0.843934718542    -1.146469405093    -1.289222324396     1.007825032230
         H            1.806246718542    -2.100321405093    -0.125767324396     1.007825032230
         H           -0.392719281458     2.013182594907    -1.082924324396     1.007825032230
         H           -2.341375281458     0.977763594907    -0.339328324396     1.007825032230
         H            2.400032718542     0.936362594907    -0.992057324396     1.007825032230
         H           -1.995309281458    -1.675193405093    -1.277749324396     1.007825032230

  Basis Set: AUG-CC-PVTZ
    Blend: AUG-CC-PVTZ
  Basis Set: (AUG-CC-PVTZ AUX)
    Blend: AUG-CC-PVTZ-JKFIT
	 Reference Energy          =    -569.6434022900448326 [Eh]
	 Singles Energy            =      -0.0000000000000000 [Eh]
	 Same-Spin Energy          =      -0.5543681543267265 [Eh]
	 Opposite-Spin Energy      =      -1.7028959044884266 [Eh]
	 Correlation Energy        =      -2.2572640588151529 [Eh]
	 Total Energy              =    -571.9006663488599997 [Eh]

	 ================> DF-SCS-MP2 Energies <==================
	-----------------------------------------------------------
	 SCS Same-Spin Scale       =       0.3333333333333333 [-]
	 SCS Opposite-Spin Scale   =       1.2000000000000000 [-]
	 SCS Same-Spin Energy      =      -0.1847893847755755 [Eh]
	 SCS Opposite-Spin Energy  =      -2.0434750853861119 [Eh]
	 SCS Correlation Energy    =      -2.2282644701616876 [Eh]
	 SCS Total Energy          =    -571.8716667602064945 [Eh]
	-----------------------------------------------------------

  Dipole Moment: [D]
     X:    -2.1587      Y:    -0.9277      Z:    -0.2199     Total:     2.3599

*** Psi4 exiting successfully. Buy a developer a beer!
