                               Psi4 1.3.2 release

  ==> Input File <==

--------------------------------------------------------------------------
#psi4
#
memory 32 gb

molecule  {
0 1
  O       -0.1147700    -1.8002930     0.4548730
  O        0.3704041     1.3974116    -1.0243102
  O       -1.9551560     1.3713260     0.4690830
  O        2.7148150     0.4505790    -0.2056670
  O       -1.6716310    -0.8002260    -0.9984850
  C        0.4315910     1.0135520     0.3497470
  C       -0.9040586     0.4723012     0.8521399
  C        1.5345100    -0.0288940     0.4204030
  C       -1.2151430    -0.9364420     0.3397180
  C        1.0549700    -1.3167000    -0.2286510
  H        0.7042560     1.8874530     0.9605880
  H       -0.8818830     0.4322700     1.9353370
  H        1.7837760    -0.2316310     1.4680400
  H       -1.9939520    -1.3968640     0.9617720
  H        0.8436020    -1.1475360    -1.2899680
  H        1.8059140    -2.1013880    -0.1265130
  H       -0.3930520     2.0121160    -1.0836700
  H       -2.3417080     0.9766970    -0.3400740
  H        2.3997000     0.9352960    -0.9928030
  H       -1.9956420    -1.6762600    -1.2784950
units angstrom
no_reorient  #important for SAPT in psi4, default
symmetry c1  #important for SAPT in psi4, default
}

set PROPERTIES_ORIGIN ["COM"]
properties('MP2/aug-cc-pvtz', properties = ['dipole'])
--------------------------------------------------------------------------

    Molecular point group: c1
  Charge       = 0
  Multiplicity = 1
  Basis Set: AUG-CC-PVTZ
    Blend: AUG-CC-PVTZ
  Basis Set: (AUG-CC-PVTZ AUX)
    Blend: AUG-CC-PVTZ-JKFIT

    Orbital Energies [Eh]
    ---------------------

    Doubly Occupied:

       1A    -20.592055     2A    -20.580609     3A    -20.573873
       4A    -20.572464     5A    -20.557843     6A    -11.354232
       7A    -11.298640     8A    -11.291150     9A    -11.285386
      10A    -11.278102    11A     -1.438457    12A     -1.390331
      13A     -1.374268    14A     -1.353515    15A     -1.346587
      16A     -1.059355    17A     -1.023098    18A     -0.898153
      19A     -0.870447    20A     -0.798297    21A     -0.751896
      22A     -0.727850    23A     -0.711730    24A     -0.695184
      25A     -0.668726    26A     -0.646421    27A     -0.621025
      28A     -0.613764    29A     -0.602404    30A     -0.584301
      31A     -0.571969    32A     -0.555629    33A     -0.543446
      34A     -0.516610    35A     -0.502693    36A     -0.490691
      37A     -0.488104    38A     -0.471343    39A     -0.441396
      40A     -0.415356

  @DF-RHF Final Energy:  -569.67381859705768

   => Energetics <=

    Nuclear Repulsion Energy =            633.5441070932980665
    One-Electron Energy =               -2041.3210558418209075
    Two-Electron Energy =                 838.1031301514652796
    Total Energy =                       -569.6738185970576751
  Basis Set: (AUG-CC-PVTZ AUX)
    Blend: AUG-CC-PVTZ-RI
    Molecular point group: c1

    Geometry (in Angstrom), charge = 0, multiplicity = 1:

       Center              X                  Y                   Z               Mass
    ------------   -----------------  -----------------  -----------------  -----------------
         O           -0.116468303844    -1.800500591002     0.453868635415    15.994914619570
         O            0.368705796156     1.397204008998    -1.025314564585    15.994914619570
         O           -1.956854303844     1.371118408998     0.468078635415    15.994914619570
         O            2.713116696156     0.450371408998    -0.206671364585    15.994914619570
         O           -1.673329303844    -0.800433591002    -0.999489364585    15.994914619570
         C            0.429892696156     1.013344408998     0.348742635415    12.000000000000
         C           -0.905756903844     0.472093608998     0.851135535415    12.000000000000
         C            1.532811696156    -0.029101591002     0.419398635415    12.000000000000
         C           -1.216841303844    -0.936649591002     0.338713635415    12.000000000000
         C            1.053271696156    -1.316907591002    -0.229655364585    12.000000000000
         H            0.702557696156     1.887245408998     0.959583635415     1.007825032230
         H           -0.883581303844     0.432062408998     1.934332635415     1.007825032230
         H            1.782077696156    -0.231838591002     1.467035635415     1.007825032230
         H           -1.995650303844    -1.397071591002     0.960767635415     1.007825032230
         H            0.841903696156    -1.147743591002    -1.290972364585     1.007825032230
         H            1.804215696156    -2.101595591002    -0.127517364585     1.007825032230
         H           -0.394750303844     2.011908408998    -1.084674364585     1.007825032230
         H           -2.343406303844     0.976489408998    -0.341078364585     1.007825032230
         H            2.398001696156     0.935088408998    -0.993807364585     1.007825032230
         H           -1.997340303844    -1.676467591002    -1.279499364585     1.007825032230

  Basis Set: AUG-CC-PVTZ
    Blend: AUG-CC-PVTZ
  Basis Set: (AUG-CC-PVTZ AUX)
    Blend: AUG-CC-PVTZ-JKFIT
	 Reference Energy          =    -569.6738185970576751 [Eh]
	 Singles Energy            =      -0.0000000000000000 [Eh]
	 Same-Spin Energy          =      -0.5546943612362052 [Eh]
	 Opposite-Spin Energy      =      -1.7042049745219634 [Eh]
	 Correlation Energy        =      -2.2588993357581684 [Eh]
	 Total Energy              =    -571.9327179328158763 [Eh]

	 ================> DF-SCS-MP2 Energies <==================
	-----------------------------------------------------------
	 SCS Same-Spin Scale       =       0.3333333333333333 [-]
	 SCS Opposite-Spin Scale   =       1.2000000000000000 [-]
	 SCS Same-Spin Energy      =      -0.1848981204120684 [Eh]
	 SCS Opposite-Spin Energy  =      -2.0450459694263561 [Eh]
	 SCS Correlation Energy    =      -2.2299440898384244 [Eh]
	 SCS Total Energy          =    -571.9037626868961297 [Eh]
	-----------------------------------------------------------

  Dipole Moment: [D]
     X:    -2.1951      Y:    -1.0151      Z:    -0.2847     Total:     2.4351

*** Psi4 exiting successfully. Buy a developer a beer!
