                               Psi4 1.4a3.dev225

  ==> Input File <==

--------------------------------------------------------------------------
#psi4
#
memory 32 gb

molecule  {
0 1
  O       -0.2343850     1.7978400    -0.4145210
  O        0.4791390    -1.3900560     0.9851260
  O       -1.8902550    -1.4798720    -0.4079610
  O        2.7489250    -0.2990660     0.0843650
  O       -1.6766260     0.6849030     1.0797040
  C        0.4758930    -0.9871420    -0.3839460
  C       -0.9153110    -0.5160320    -0.8112700
  C        1.5148540     0.1205520    -0.4811210
  C       -1.2850063     0.8679076    -0.2535300
  C        0.9914930     1.3693070     0.2124490
  H        0.7732420    -1.8350180    -1.0199460
  H       -0.9367810    -0.4539690    -1.9062570
  H        1.7061480     0.3550680    -1.5342930
  H       -2.1075740     1.2945610    -0.8542440
  H        0.8333730     1.1741050     1.2776920
  H        1.6908660     2.1982840     0.0933200
  H       -0.2684360    -2.0097880     1.0741120
  H       -2.2907410    -1.1048270     0.4011470
  H        2.5001980    -0.8049050     0.8819700
  H       -2.0397460     1.5332780     1.3914430
units angstrom
no_reorient  #important for SAPT in psi4, default
symmetry c1  #important for SAPT in psi4, default
}

set PROPERTIES_ORIGIN ["COM"]
properties('MP2/aug-cc-pvtz', properties = ['dipole'])
--------------------------------------------------------------------------

    Molecular point group: c1
  Charge       = 0
  Multiplicity = 1
  Basis Set: AUG-CC-PVTZ
    Blend: AUG-CC-PVTZ
  Basis Set: (AUG-CC-PVTZ AUX)
    Blend: AUG-CC-PVTZ-JKFIT

    Orbital Energies [Eh]
    ---------------------

    Doubly Occupied:

       1A    -20.595658     2A    -20.579649     3A    -20.575004
       4A    -20.570064     5A    -20.558234     6A    -11.354791
       7A    -11.299470     8A    -11.290777     9A    -11.285687
      10A    -11.277958    11A     -1.441280    12A     -1.391088
      13A     -1.375366    14A     -1.356435    15A     -1.347217
      16A     -1.056994    17A     -1.020706    18A     -0.898161
      19A     -0.869265    20A     -0.799099    21A     -0.753563
      22A     -0.727684    23A     -0.711944    24A     -0.696929
      25A     -0.668398    26A     -0.647617    27A     -0.621506
      28A     -0.613680    29A     -0.601791    30A     -0.585003
      31A     -0.573710    32A     -0.556146    33A     -0.542970
      34A     -0.515568    35A     -0.502197    36A     -0.489578
      37A     -0.488097    38A     -0.470834    39A     -0.440405
      40A     -0.414840

  @DF-RHF Final Energy:  -569.67426757966837

   => Energetics <=

    Nuclear Repulsion Energy =            633.2413512848760320
    One-Electron Energy =               -2040.7005106272420107
    Two-Electron Energy =                 837.7848917626977254
    Total Energy =                       -569.6742675796683670
  Basis Set: (AUG-CC-PVTZ AUX)
    Blend: AUG-CC-PVTZ-RI
    Molecular point group: c1

    Geometry (in Angstrom), charge = 0, multiplicity = 1:

       Center              X                  Y                   Z               Mass
    ------------   -----------------  -----------------  -----------------  -----------------
         O           -0.234879580108     1.800318542616    -0.417287111498    15.994914619570
         O            0.478644419892    -1.387577457384     0.982359888502    15.994914619570
         O           -1.890749580108    -1.477393457384    -0.410727111498    15.994914619570
         O            2.748430419892    -0.296587457384     0.081598888502    15.994914619570
         O           -1.677120580108     0.687381542616     1.076937888502    15.994914619570
         C            0.475398419892    -0.984663457384    -0.386712111498    12.000000000000
         C           -0.915805580108    -0.513553457384    -0.814036111498    12.000000000000
         C            1.514359419892     0.123030542616    -0.483887111498    12.000000000000
         C           -1.285500880108     0.870386142616    -0.256296111498    12.000000000000
         C            0.990998419892     1.371785542616     0.209682888502    12.000000000000
         H            0.772747419892    -1.832539457384    -1.022712111498     1.007825032230
         H           -0.937275580108    -0.451490457384    -1.909023111498     1.007825032230
         H            1.705653419892     0.357546542616    -1.537059111498     1.007825032230
         H           -2.108068580108     1.297039542616    -0.857010111498     1.007825032230
         H            0.832878419892     1.176583542616     1.274925888502     1.007825032230
         H            1.690371419892     2.200762542616     0.090553888502     1.007825032230
         H           -0.268930580108    -2.007309457384     1.071345888502     1.007825032230
         H           -2.291235580108    -1.102348457384     0.398380888502     1.007825032230
         H            2.499703419892    -0.802426457384     0.879203888502     1.007825032230
         H           -2.040240580108     1.535756542616     1.388676888502     1.007825032230

  Basis Set: AUG-CC-PVTZ
    Blend: AUG-CC-PVTZ
  Basis Set: (AUG-CC-PVTZ AUX)
    Blend: AUG-CC-PVTZ-JKFIT
	 Reference Energy          =    -569.6742675796683670 [Eh]
	 Singles Energy            =      -0.0000000000000000 [Eh]
	 Same-Spin Energy          =      -0.5545252535261066 [Eh]
	 Opposite-Spin Energy      =      -1.7038609009162036 [Eh]
	 Correlation Energy        =      -2.2583861544423103 [Eh]
	 Total Energy              =    -571.9326537341106587 [Eh]

	 ================> DF-SCS-MP2 Energies <==================
	-----------------------------------------------------------
	 SCS Same-Spin Scale       =       0.3333333333333333 [-]
	 SCS Opposite-Spin Scale   =       1.2000000000000000 [-]
	 SCS Same-Spin Energy      =      -0.1848417511753689 [Eh]
	 SCS Opposite-Spin Energy  =      -2.0446330810994442 [Eh]
	 SCS Correlation Energy    =      -2.2294748322748132 [Eh]
	 SCS Total Energy          =    -571.9037424119431989 [Eh]
	-----------------------------------------------------------

  Dipole Moment: [D]
     X:    -2.3550      Y:     0.9540      Z:     0.4800     Total:     2.5859

*** Psi4 exiting successfully. Buy a developer a beer!
