                               Psi4 1.3.2 release

  ==> Input File <==

--------------------------------------------------------------------------
#psi4
#
memory 32 gb

molecule  {
0 1
  O       -0.1147700    -1.8002930     0.4548730
  O        0.3584290     1.3939840    -1.0246780
  O       -1.9551560     1.3713260     0.4690830
  O        2.7148150     0.4505790    -0.2056670
  O       -1.6716310    -0.8002260    -0.9984850
  C        0.4315910     1.0135520     0.3497470
  C       -0.9093320     0.4742750     0.8400700
  C        1.5345100    -0.0288940     0.4204030
  C       -1.2151430    -0.9364420     0.3397180
  C        1.0515266    -1.3036394    -0.2514789
  H        0.7042560     1.8874530     0.9605880
  H       -0.8818830     0.4322700     1.9353370
  H        1.7886286    -0.2132661     1.4702648
  H       -1.9939520    -1.3968640     0.9617720
  H        0.8436020    -1.1475360    -1.2899680
  H        1.8059140    -2.1013880    -0.1265130
  H       -0.3930520     2.0121160    -1.0836700
  H       -2.3417080     0.9766970    -0.3400740
  H        2.3997000     0.9352960    -0.9928030
  H       -1.9956420    -1.6762600    -1.2784950
units angstrom
no_reorient  #important for SAPT in psi4, default
symmetry c1  #important for SAPT in psi4, default
}

set PROPERTIES_ORIGIN ["COM"]
properties('MP2/aug-cc-pvtz', properties = ['dipole'])
--------------------------------------------------------------------------

    Molecular point group: c1
  Charge       = 0
  Multiplicity = 1
  Basis Set: AUG-CC-PVTZ
    Blend: AUG-CC-PVTZ
  Basis Set: (AUG-CC-PVTZ AUX)
    Blend: AUG-CC-PVTZ-JKFIT

    Orbital Energies [Eh]
    ---------------------

    Doubly Occupied:

       1A    -20.591414     2A    -20.580191     3A    -20.574429
       4A    -20.571336     5A    -20.558036     6A    -11.352956
       7A    -11.298081     8A    -11.290707     9A    -11.286120
      10A    -11.278439    11A     -1.437386    12A     -1.391384
      13A     -1.374951    14A     -1.352544    15A     -1.347869
      16A     -1.059126    17A     -1.022097    18A     -0.899277
      19A     -0.869124    20A     -0.799253    21A     -0.752737
      22A     -0.727148    23A     -0.710789    24A     -0.695727
      25A     -0.669570    26A     -0.647393    27A     -0.620227
      28A     -0.613847    29A     -0.601655    30A     -0.583370
      31A     -0.573348    32A     -0.554242    33A     -0.542541
      34A     -0.515667    35A     -0.501474    36A     -0.492047
      37A     -0.487334    38A     -0.474787    39A     -0.440225
      40A     -0.416418

  @DF-RHF Final Energy:  -569.67326940309363

   => Energetics <=

    Nuclear Repulsion Energy =            633.8577627903981693
    One-Electron Energy =               -2041.9515355449864273
    Two-Electron Energy =                 838.4205033514947445
    Total Energy =                       -569.6732694030936273
  Basis Set: (AUG-CC-PVTZ AUX)
    Blend: AUG-CC-PVTZ-RI
    Molecular point group: c1

    Geometry (in Angstrom), charge = 0, multiplicity = 1:

       Center              X                  Y                   Z               Mass
    ------------   -----------------  -----------------  -----------------  -----------------
         O           -0.114527309175    -1.801460901067     0.456683739528    15.994914619570
         O            0.358671690825     1.392816098933    -1.022867260472    15.994914619570
         O           -1.954913309175     1.370158098933     0.470893739528    15.994914619570
         O            2.715057690825     0.449411098933    -0.203856260472    15.994914619570
         O           -1.671388309175    -0.801393901067    -0.996674260472    15.994914619570
         C            0.431833690825     1.012384098933     0.351557739528    12.000000000000
         C           -0.909089309175     0.473107098933     0.841880739528    12.000000000000
         C            1.534752690825    -0.030061901067     0.422213739528    12.000000000000
         C           -1.214900309175    -0.937609901067     0.341528739528    12.000000000000
         C            1.051769290825    -1.304807301067    -0.249668160472    12.000000000000
         H            0.704498690825     1.886285098933     0.962398739528     1.007825032230
         H           -0.881640309175     0.431102098933     1.937147739528     1.007825032230
         H            1.788871290825    -0.214434001067     1.472075539528     1.007825032230
         H           -1.993709309175    -1.398031901067     0.963582739528     1.007825032230
         H            0.843844690825    -1.148703901067    -1.288157260472     1.007825032230
         H            1.806156690825    -2.102555901067    -0.124702260472     1.007825032230
         H           -0.392809309175     2.010948098933    -1.081859260472     1.007825032230
         H           -2.341465309175     0.975529098933    -0.338263260472     1.007825032230
         H            2.399942690825     0.934128098933    -0.990992260472     1.007825032230
         H           -1.995399309175    -1.677427901067    -1.276684260472     1.007825032230

  Basis Set: AUG-CC-PVTZ
    Blend: AUG-CC-PVTZ
  Basis Set: (AUG-CC-PVTZ AUX)
    Blend: AUG-CC-PVTZ-JKFIT
	 Reference Energy          =    -569.6732694030936273 [Eh]
	 Singles Energy            =      -0.0000000000000000 [Eh]
	 Same-Spin Energy          =      -0.5547109200851876 [Eh]
	 Opposite-Spin Energy      =      -1.7042765326384859 [Eh]
	 Correlation Energy        =      -2.2589874527236735 [Eh]
	 Total Energy              =    -571.9322568558172861 [Eh]

	 ================> DF-SCS-MP2 Energies <==================
	-----------------------------------------------------------
	 SCS Same-Spin Scale       =       0.3333333333333333 [-]
	 SCS Opposite-Spin Scale   =       1.2000000000000000 [-]
	 SCS Same-Spin Energy      =      -0.1849036400283959 [Eh]
	 SCS Opposite-Spin Energy  =      -2.0451318391661828 [Eh]
	 SCS Correlation Energy    =      -2.2300354791945787 [Eh]
	 SCS Total Energy          =    -571.9033048822882392 [Eh]
	-----------------------------------------------------------

  Dipole Moment: [D]
     X:    -2.1609      Y:    -0.9755      Z:    -0.3298     Total:     2.3937

*** Psi4 exiting successfully. Buy a developer a beer!
