                               Psi4 1.3.2 release

  ==> Input File <==

--------------------------------------------------------------------------
#psi4
#
memory 32 gb

molecule  {
0 1
  O       -0.1147700    -1.8002930     0.4548730
  O        0.3584290     1.3939840    -1.0246780
  O       -1.9551560     1.3713260     0.4690830
  O        2.7148150     0.4505790    -0.2056670
  O       -1.6716310    -0.8002260    -0.9984850
  C        0.4315910     1.0135520     0.3497470
  C       -0.9093320     0.4742750     0.8400700
  C        1.5345100    -0.0288940     0.4204030
  C       -1.2151430    -0.9364420     0.3397180
  C        1.0549700    -1.3167000    -0.2286510
  H        0.7290317     1.9668600     1.0160920
  H       -0.8818830     0.4322700     1.9353370
  H        1.7837760    -0.2316310     1.4680400
  H       -1.9939520    -1.3968640     0.9617720
  H        0.8436020    -1.1475360    -1.2899680
  H        1.8059140    -2.1013880    -0.1265130
  H       -0.3930520     2.0121160    -1.0836700
  H       -2.3417080     0.9766970    -0.3400740
  H        2.3997000     0.9352960    -0.9928030
  H       -1.9956420    -1.6762600    -1.2784950
units angstrom
no_reorient  #important for SAPT in psi4, default
symmetry c1  #important for SAPT in psi4, default
}

set PROPERTIES_ORIGIN ["COM"]
properties('MP2/aug-cc-pvtz', properties = ['dipole'])
--------------------------------------------------------------------------

    Molecular point group: c1
  Charge       = 0
  Multiplicity = 1
  Basis Set: AUG-CC-PVTZ
    Blend: AUG-CC-PVTZ
  Basis Set: (AUG-CC-PVTZ AUX)
    Blend: AUG-CC-PVTZ-JKFIT

    Orbital Energies [Eh]
    ---------------------

    Doubly Occupied:

       1A    -20.592196     2A    -20.581448     3A    -20.574884
       4A    -20.573340     5A    -20.558420     6A    -11.354729
       7A    -11.302704     8A    -11.299391     9A    -11.286672
      10A    -11.279089    11A     -1.439410    12A     -1.392216
      13A     -1.376135    14A     -1.354510    15A     -1.348426
      16A     -1.057668    17A     -1.023761    18A     -0.894016
      19A     -0.870523    20A     -0.798552    21A     -0.752838
      22A     -0.721839    23A     -0.711624    24A     -0.695963
      25A     -0.668713    26A     -0.645375    27A     -0.620475
      28A     -0.613357    29A     -0.601752    30A     -0.584978
      31A     -0.572116    32A     -0.555599    33A     -0.542432
      34A     -0.515571    35A     -0.502455    36A     -0.489994
      37A     -0.487643    38A     -0.470708    39A     -0.441145
      40A     -0.413749

  @DF-RHF Final Energy:  -569.66772610996361

   => Energetics <=

    Nuclear Repulsion Energy =            633.2313034374132030
    One-Electron Energy =               -2040.6652269893829725
    Two-Electron Energy =                 837.7661974420060460
    Total Energy =                       -569.6677261099636098
  Basis Set: (AUG-CC-PVTZ AUX)
    Blend: AUG-CC-PVTZ-RI
    Molecular point group: c1

    Geometry (in Angstrom), charge = 0, multiplicity = 1:

       Center              X                  Y                   Z               Mass
    ------------   -----------------  -----------------  -----------------  -----------------
         O           -0.114936497069    -1.800826408217     0.454500302363    15.994914619570
         O            0.358262502931     1.393450591783    -1.025050697637    15.994914619570
         O           -1.955322497069     1.370792591783     0.468710302363    15.994914619570
         O            2.714648502931     0.450045591783    -0.206039697637    15.994914619570
         O           -1.671797497069    -0.800759408217    -0.998857697637    15.994914619570
         C            0.431424502931     1.013018591783     0.349374302363    12.000000000000
         C           -0.909498497069     0.473741591783     0.839697302363    12.000000000000
         C            1.534343502931    -0.029427408217     0.420030302363    12.000000000000
         C           -1.215309497069    -0.936975408217     0.339345302363    12.000000000000
         C            1.054803502931    -1.317233408217    -0.229023697637    12.000000000000
         H            0.728865202931     1.966326591783     1.015719302363     1.007825032230
         H           -0.882049497069     0.431736591783     1.934964302363     1.007825032230
         H            1.783609502931    -0.232164408217     1.467667302363     1.007825032230
         H           -1.994118497069    -1.397397408217     0.961399302363     1.007825032230
         H            0.843435502931    -1.148069408217    -1.290340697637     1.007825032230
         H            1.805747502931    -2.101921408217    -0.126885697637     1.007825032230
         H           -0.393218497069     2.011582591783    -1.084042697637     1.007825032230
         H           -2.341874497069     0.976163591783    -0.340446697637     1.007825032230
         H            2.399533502931     0.934762591783    -0.993175697637     1.007825032230
         H           -1.995808497069    -1.676793408217    -1.278867697637     1.007825032230

  Basis Set: AUG-CC-PVTZ
    Blend: AUG-CC-PVTZ
  Basis Set: (AUG-CC-PVTZ AUX)
    Blend: AUG-CC-PVTZ-JKFIT
	 Reference Energy          =    -569.6677261099636098 [Eh]
	 Singles Energy            =      -0.0000000000000000 [Eh]
	 Same-Spin Energy          =      -0.5548542790260816 [Eh]
	 Opposite-Spin Energy      =      -1.7049092592090536 [Eh]
	 Correlation Energy        =      -2.2597635382351351 [Eh]
	 Total Energy              =    -571.9274896481987298 [Eh]

	 ================> DF-SCS-MP2 Energies <==================
	-----------------------------------------------------------
	 SCS Same-Spin Scale       =       0.3333333333333333 [-]
	 SCS Opposite-Spin Scale   =       1.2000000000000000 [-]
	 SCS Same-Spin Energy      =      -0.1849514263420272 [Eh]
	 SCS Opposite-Spin Energy  =      -2.0458911110508642 [Eh]
	 SCS Correlation Energy    =      -2.2308425373928915 [Eh]
	 SCS Total Energy          =    -571.8985686473564556 [Eh]
	-----------------------------------------------------------

  Dipole Moment: [D]
     X:    -2.2039      Y:    -1.0580      Z:    -0.3625     Total:     2.4714

*** Psi4 exiting successfully. Buy a developer a beer!
