                               Psi4 1.3.2 release

  ==> Input File <==

--------------------------------------------------------------------------
#psi4
#
memory 32 gb

molecule  {
0 1
  O       -0.1147700    -1.8002930     0.4548730
  O        0.3584290     1.3939840    -1.0246780
  O       -1.9551560     1.3713260     0.4690830
  O        2.7148150     0.4505790    -0.2056670
  O       -1.6716310    -0.8002260    -0.9984850
  C        0.4315910     1.0135520     0.3497470
  C       -0.9093320     0.4742750     0.8400700
  C        1.5345100    -0.0288940     0.4204030
  C       -1.2151430    -0.9364420     0.3397180
  C        1.0865236    -1.2319626    -0.1859434
  H        0.7042560     1.8874530     0.9605880
  H       -0.8818830     0.4322700     1.9353370
  H        1.7837760    -0.2316310     1.4680400
  H       -1.9939520    -1.3968640     0.9617720
  H        0.8436020    -1.1475360    -1.2899680
  H        1.8059140    -2.1013880    -0.1265130
  H       -0.3930520     2.0121160    -1.0836700
  H       -2.3417080     0.9766970    -0.3400740
  H        2.3997000     0.9352960    -0.9928030
  H       -1.9956420    -1.6762600    -1.2784950
units angstrom
no_reorient  #important for SAPT in psi4, default
symmetry c1  #important for SAPT in psi4, default
}

set PROPERTIES_ORIGIN ["COM"]
properties('MP2/aug-cc-pvtz', properties = ['dipole'])
--------------------------------------------------------------------------

    Molecular point group: c1
  Charge       = 0
  Multiplicity = 1
  Basis Set: AUG-CC-PVTZ
    Blend: AUG-CC-PVTZ
  Basis Set: (AUG-CC-PVTZ AUX)
    Blend: AUG-CC-PVTZ-JKFIT

    Orbital Energies [Eh]
    ---------------------

    Doubly Occupied:

       1A    -20.589917     2A    -20.579991     3A    -20.574728
       4A    -20.572182     5A    -20.561181     6A    -11.351629
       7A    -11.298766     8A    -11.292597     9A    -11.283780
      10A    -11.281802    11A     -1.434994    12A     -1.392494
      13A     -1.375773    14A     -1.350255    15A     -1.349867
      16A     -1.070711    17A     -1.027623    18A     -0.902721
      19A     -0.867608    20A     -0.799747    21A     -0.750585
      22A     -0.728054    23A     -0.708423    24A     -0.696271
      25A     -0.671403    26A     -0.651107    27A     -0.622327
      28A     -0.615036    29A     -0.600846    30A     -0.581847
      31A     -0.573112    32A     -0.554475    33A     -0.543282
      34A     -0.514649    35A     -0.497892    36A     -0.489812
      37A     -0.487998    38A     -0.462919    39A     -0.443711
      40A     -0.427542

  @DF-RHF Final Energy:  -569.66126711172501

   => Energetics <=

    Nuclear Repulsion Energy =            635.0615595379318847
    One-Electron Energy =               -2044.2863345841740284
    Two-Electron Energy =                 839.5635079345170197
    Total Energy =                       -569.6612671117250102
  Basis Set: (AUG-CC-PVTZ AUX)
    Blend: AUG-CC-PVTZ-RI
    Molecular point group: c1

    Geometry (in Angstrom), charge = 0, multiplicity = 1:

       Center              X                  Y                   Z               Mass
    ------------   -----------------  -----------------  -----------------  -----------------
         O           -0.117293491235    -1.807069679195     0.451457687975    15.994914619570
         O            0.355905508765     1.387207320805    -1.028093312025    15.994914619570
         O           -1.957679491235     1.364549320805     0.465667687975    15.994914619570
         O            2.712291508765     0.443802320805    -0.209082312025    15.994914619570
         O           -1.674154491235    -0.807002679195    -1.001900312025    15.994914619570
         C            0.429067508765     1.006775320805     0.346331687975    12.000000000000
         C           -0.911855491235     0.467498320805     0.836654687975    12.000000000000
         C            1.531986508765    -0.035670679195     0.416987687975    12.000000000000
         C           -1.217666491235    -0.943218679195     0.336302687975    12.000000000000
         C            1.084000108765    -1.238739279195    -0.189358712025    12.000000000000
         H            0.701732508765     1.880676320805     0.957172687975     1.007825032230
         H           -0.884406491235     0.425493320805     1.931921687975     1.007825032230
         H            1.781252508765    -0.238407679195     1.464624687975     1.007825032230
         H           -1.996475491235    -1.403640679195     0.958356687975     1.007825032230
         H            0.841078508765    -1.154312679195    -1.293383312025     1.007825032230
         H            1.803390508765    -2.108164679195    -0.129928312025     1.007825032230
         H           -0.395575491235     2.005339320805    -1.087085312025     1.007825032230
         H           -2.344231491235     0.969920320805    -0.343489312025     1.007825032230
         H            2.397176508765     0.928519320805    -0.996218312025     1.007825032230
         H           -1.998165491235    -1.683036679195    -1.281910312025     1.007825032230

  Basis Set: AUG-CC-PVTZ
    Blend: AUG-CC-PVTZ
  Basis Set: (AUG-CC-PVTZ AUX)
    Blend: AUG-CC-PVTZ-JKFIT
	 Reference Energy          =    -569.6612671117250102 [Eh]
	 Singles Energy            =      -0.0000000000000000 [Eh]
	 Same-Spin Energy          =      -0.5559571361165992 [Eh]
	 Opposite-Spin Energy      =      -1.7060925392880484 [Eh]
	 Correlation Energy        =      -2.2620496754046475 [Eh]
	 Total Energy              =    -571.9233167871296928 [Eh]

	 ================> DF-SCS-MP2 Energies <==================
	-----------------------------------------------------------
	 SCS Same-Spin Scale       =       0.3333333333333333 [-]
	 SCS Opposite-Spin Scale   =       1.2000000000000000 [-]
	 SCS Same-Spin Energy      =      -0.1853190453721997 [Eh]
	 SCS Opposite-Spin Energy  =      -2.0473110471456581 [Eh]
	 SCS Correlation Energy    =      -2.2326300925178577 [Eh]
	 SCS Total Energy          =    -571.8938972042428759 [Eh]
	-----------------------------------------------------------

  Dipole Moment: [D]
     X:    -2.0979      Y:    -0.8810      Z:    -0.2756     Total:     2.2920

*** Psi4 exiting successfully. Buy a developer a beer!
