                               Psi4 1.3.2 release

  ==> Input File <==

--------------------------------------------------------------------------
#psi4
#
memory 32 gb

molecule  {
0 1
  O       -0.1147700    -1.8002930     0.4548730
  O        0.3584290     1.3939840    -1.0246780
  O       -1.9551560     1.3713260     0.4690830
  O        2.7148150     0.4505790    -0.2056670
  O       -1.6716310    -0.8002260    -0.9984850
  C        0.4315910     1.0135520     0.3497470
  C       -0.9093320     0.4742750     0.8400700
  C        1.5345100    -0.0288940     0.4204030
  C       -1.2176022    -0.9606637     0.4159058
  C        1.0549700    -1.3167000    -0.2286510
  H        0.7042560     1.8874530     0.9605880
  H       -0.8935024     0.3761575     1.9319720
  H        1.7837760    -0.2316310     1.4680400
  H       -1.9939520    -1.3968640     0.9617720
  H        0.8436020    -1.1475360    -1.2899680
  H        1.8059140    -2.1013880    -0.1265130
  H       -0.3930520     2.0121160    -1.0836700
  H       -2.3417080     0.9766970    -0.3400740
  H        2.3997000     0.9352960    -0.9928030
  H       -1.9956420    -1.6762600    -1.2784950
units angstrom
no_reorient  #important for SAPT in psi4, default
symmetry c1  #important for SAPT in psi4, default
}

set PROPERTIES_ORIGIN ["COM"]
properties('MP2/aug-cc-pvtz', properties = ['dipole'])
--------------------------------------------------------------------------

    Molecular point group: c1
  Charge       = 0
  Multiplicity = 1
  Basis Set: AUG-CC-PVTZ
    Blend: AUG-CC-PVTZ
  Basis Set: (AUG-CC-PVTZ AUX)
    Blend: AUG-CC-PVTZ-JKFIT

    Orbital Energies [Eh]
    ---------------------

    Doubly Occupied:

       1A    -20.584245     2A    -20.578616     3A    -20.575309
       4A    -20.571184     5A    -20.559329     6A    -11.354396
       7A    -11.299956     8A    -11.293235     9A    -11.287144
      10A    -11.281042    11A     -1.431868    12A     -1.391664
      13A     -1.374342    14A     -1.348348    15A     -1.337912
      16A     -1.060327    17A     -1.029654    18A     -0.900596
      19A     -0.874206    20A     -0.794417    21A     -0.752282
      22A     -0.725852    23A     -0.713149    24A     -0.691587
      25A     -0.667212    26A     -0.646805    27A     -0.619010
      28A     -0.616763    29A     -0.600536    30A     -0.584748
      31A     -0.568153    32A     -0.555457    33A     -0.542868
      34A     -0.516966    35A     -0.502400    36A     -0.492118
      37A     -0.481688    38A     -0.471121    39A     -0.444673
      40A     -0.418018

  @DF-RHF Final Energy:  -569.66713738784858

   => Energetics <=

    Nuclear Repulsion Energy =            632.8753282245007767
    One-Electron Energy =               -2040.0065361011031655
    Two-Electron Energy =                 837.4640704887536913
    Total Energy =                       -569.6671373878485838
  Basis Set: (AUG-CC-PVTZ AUX)
    Blend: AUG-CC-PVTZ-RI
    Molecular point group: c1

    Geometry (in Angstrom), charge = 0, multiplicity = 1:

       Center              X                  Y                   Z               Mass
    ------------   -----------------  -----------------  -----------------  -----------------
         O           -0.114495383791    -1.797979141936     0.448802815780    15.994914619570
         O            0.358703616209     1.396297858064    -1.030748184220    15.994914619570
         O           -1.954881383791     1.373639858064     0.463012815780    15.994914619570
         O            2.715089616209     0.452892858064    -0.211737184220    15.994914619570
         O           -1.671356383791    -0.797912141936    -1.004555184220    15.994914619570
         C            0.431865616209     1.015865858064     0.343676815780    12.000000000000
         C           -0.909057383791     0.476588858064     0.833999815780    12.000000000000
         C            1.534784616209    -0.026580141936     0.414332815780    12.000000000000
         C           -1.217327583791    -0.958349841936     0.409835615780    12.000000000000
         C            1.055244616209    -1.314386141936    -0.234721184220    12.000000000000
         H            0.704530616209     1.889766858064     0.954517815780     1.007825032230
         H           -0.893227783791     0.378471358064     1.925901815780     1.007825032230
         H            1.784050616209    -0.229317141936     1.461969815780     1.007825032230
         H           -1.993677383791    -1.394550141936     0.955701815780     1.007825032230
         H            0.843876616209    -1.145222141936    -1.296038184220     1.007825032230
         H            1.806188616209    -2.099074141936    -0.132583184220     1.007825032230
         H           -0.392777383791     2.014429858064    -1.089740184220     1.007825032230
         H           -2.341433383791     0.979010858064    -0.346144184220     1.007825032230
         H            2.399974616209     0.937609858064    -0.998873184220     1.007825032230
         H           -1.995367383791    -1.673946141936    -1.284565184220     1.007825032230

  Basis Set: AUG-CC-PVTZ
    Blend: AUG-CC-PVTZ
  Basis Set: (AUG-CC-PVTZ AUX)
    Blend: AUG-CC-PVTZ-JKFIT
	 Reference Energy          =    -569.6671373878485838 [Eh]
	 Singles Energy            =      -0.0000000000000000 [Eh]
	 Same-Spin Energy          =      -0.5547694812739428 [Eh]
	 Opposite-Spin Energy      =      -1.7048291862907625 [Eh]
	 Correlation Energy        =      -2.2595986675647053 [Eh]
	 Total Energy              =    -571.9267360554132438 [Eh]

	 ================> DF-SCS-MP2 Energies <==================
	-----------------------------------------------------------
	 SCS Same-Spin Scale       =       0.3333333333333333 [-]
	 SCS Opposite-Spin Scale   =       1.2000000000000000 [-]
	 SCS Same-Spin Energy      =      -0.1849231604246476 [Eh]
	 SCS Opposite-Spin Energy  =      -2.0457950235489148 [Eh]
	 SCS Correlation Energy    =      -2.2307181839735626 [Eh]
	 SCS Total Energy          =    -571.8978555718221060 [Eh]
	-----------------------------------------------------------

  Dipole Moment: [D]
     X:    -2.0203      Y:    -1.0468      Z:    -0.0112     Total:     2.2754

*** Psi4 exiting successfully. Buy a developer a beer!
