                               Psi4 1.3.2 release

  ==> Input File <==

--------------------------------------------------------------------------
#psi4
#
memory 32 gb

molecule  {
0 1
  O       -0.1147700    -1.8002930     0.4548730
  O        0.3584290     1.3939840    -1.0246780
  O       -1.9551560     1.3713260     0.4690830
  O        2.7148150     0.4505790    -0.2056670
  O       -1.6716310    -0.8002260    -0.9984850
  C        0.4315910     1.0135520     0.3497470
  C       -0.9103054     0.5324288     0.8948575
  C        1.5345100    -0.0288940     0.4204030
  C       -1.2151430    -0.9364420     0.3397180
  C        1.0549700    -1.3167000    -0.2286510
  H        0.6552887     1.8802193     0.9900774
  H       -0.8818830     0.4322700     1.9353370
  H        1.7837760    -0.2316310     1.4680400
  H       -1.9939520    -1.3968640     0.9617720
  H        0.8436020    -1.1475360    -1.2899680
  H        1.8059140    -2.1013880    -0.1265130
  H       -0.3930520     2.0121160    -1.0836700
  H       -2.3417080     0.9766970    -0.3400740
  H        2.3997000     0.9352960    -0.9928030
  H       -1.9956420    -1.6762600    -1.2784950
units angstrom
no_reorient  #important for SAPT in psi4, default
symmetry c1  #important for SAPT in psi4, default
}

set PROPERTIES_ORIGIN ["COM"]
properties('MP2/aug-cc-pvtz', properties = ['dipole'])
--------------------------------------------------------------------------

    Molecular point group: c1
  Charge       = 0
  Multiplicity = 1
  Basis Set: AUG-CC-PVTZ
    Blend: AUG-CC-PVTZ
  Basis Set: (AUG-CC-PVTZ AUX)
    Blend: AUG-CC-PVTZ-JKFIT

    Orbital Energies [Eh]
    ---------------------

    Doubly Occupied:

       1A    -20.590785     2A    -20.578860     3A    -20.574784
       4A    -20.573304     5A    -20.558071     6A    -11.352375
       7A    -11.297725     8A    -11.290313     9A    -11.286219
      10A    -11.277318    11A     -1.435503    12A     -1.393127
      13A     -1.377524    14A     -1.353595    15A     -1.348430
      16A     -1.057535    17A     -1.016506    18A     -0.891106
      19A     -0.874724    20A     -0.800594    21A     -0.749517
      22A     -0.728042    23A     -0.709157    24A     -0.700752
      25A     -0.671442    26A     -0.650765    27A     -0.619721
      28A     -0.612967    29A     -0.603813    30A     -0.586797
      31A     -0.572310    32A     -0.552120    33A     -0.547368
      34A     -0.518678    35A     -0.500719    36A     -0.490566
      37A     -0.483668    38A     -0.470062    39A     -0.440704
      40A     -0.405838

  @DF-RHF Final Energy:  -569.66848373802191

   => Energetics <=

    Nuclear Repulsion Energy =            632.6859809923494140
    One-Electron Energy =               -2039.6221156214585335
    Two-Electron Energy =                 837.2676508910872144
    Total Energy =                       -569.6684837380219051
  Basis Set: (AUG-CC-PVTZ AUX)
    Blend: AUG-CC-PVTZ-RI
    Molecular point group: c1

    Geometry (in Angstrom), charge = 0, multiplicity = 1:

       Center              X                  Y                   Z               Mass
    ------------   -----------------  -----------------  -----------------  -----------------
         O           -0.114363359961    -1.804895154941     0.450293571556    15.994914619570
         O            0.358835640039     1.389381845059    -1.029257428444    15.994914619570
         O           -1.954749359961     1.366723845059     0.464503571556    15.994914619570
         O            2.715221640039     0.445976845059    -0.210246428444    15.994914619570
         O           -1.671224359961    -0.804828154941    -1.003064428444    15.994914619570
         C            0.431997640039     1.008949845059     0.345167571556    12.000000000000
         C           -0.909898759961     0.527826645059     0.890278071556    12.000000000000
         C            1.534916640039    -0.033496154941     0.415823571556    12.000000000000
         C           -1.214736359961    -0.941044154941     0.335138571556    12.000000000000
         C            1.055376640039    -1.321302154941    -0.233230428444    12.000000000000
         H            0.655695340039     1.875617145059     0.985497971556     1.007825032230
         H           -0.881476359961     0.427667845059     1.930757571556     1.007825032230
         H            1.784182640039    -0.236233154941     1.463460571556     1.007825032230
         H           -1.993545359961    -1.401466154941     0.957192571556     1.007825032230
         H            0.844008640039    -1.152138154941    -1.294547428444     1.007825032230
         H            1.806320640039    -2.105990154941    -0.131092428444     1.007825032230
         H           -0.392645359961     2.007513845059    -1.088249428444     1.007825032230
         H           -2.341301359961     0.972094845059    -0.344653428444     1.007825032230
         H            2.400106640039     0.930693845059    -0.997382428444     1.007825032230
         H           -1.995235359961    -1.680862154941    -1.283074428444     1.007825032230

  Basis Set: AUG-CC-PVTZ
    Blend: AUG-CC-PVTZ
  Basis Set: (AUG-CC-PVTZ AUX)
    Blend: AUG-CC-PVTZ-JKFIT
	 Reference Energy          =    -569.6684837380219051 [Eh]
	 Singles Energy            =      -0.0000000000000000 [Eh]
	 Same-Spin Energy          =      -0.5543574799960338 [Eh]
	 Opposite-Spin Energy      =      -1.7033796971184110 [Eh]
	 Correlation Energy        =      -2.2577371771144445 [Eh]
	 Total Energy              =    -571.9262209151363550 [Eh]

	 ================> DF-SCS-MP2 Energies <==================
	-----------------------------------------------------------
	 SCS Same-Spin Scale       =       0.3333333333333333 [-]
	 SCS Opposite-Spin Scale   =       1.2000000000000000 [-]
	 SCS Same-Spin Energy      =      -0.1847858266653446 [Eh]
	 SCS Opposite-Spin Energy  =      -2.0440556365420930 [Eh]
	 SCS Correlation Energy    =      -2.2288414632074378 [Eh]
	 SCS Total Energy          =    -571.8973252012293642 [Eh]
	-----------------------------------------------------------

  Dipole Moment: [D]
     X:    -2.2328      Y:    -0.9255      Z:    -0.2636     Total:     2.4313

*** Psi4 exiting successfully. Buy a developer a beer!
