                               Psi4 1.3.2 release

  ==> Input File <==

--------------------------------------------------------------------------
#psi4
#
memory 32 gb

molecule  {
0 1
  O       -0.1147700    -1.8002930     0.4548730
  O        0.3584290     1.3939840    -1.0246780
  O       -1.9878924     1.3408270     0.4909643
  O        2.7148150     0.4505790    -0.2056670
  O       -1.6716310    -0.8002260    -0.9984850
  C        0.4554358     0.9708749     0.3709129
  C       -0.9093320     0.4742750     0.8400700
  C        1.5345100    -0.0288940     0.4204030
  C       -1.2151430    -0.9364420     0.3397180
  C        1.0549700    -1.3167000    -0.2286510
  H        0.7042560     1.8874530     0.9605880
  H       -0.8818830     0.4322700     1.9353370
  H        1.7837760    -0.2316310     1.4680400
  H       -1.9939520    -1.3968640     0.9617720
  H        0.8436020    -1.1475360    -1.2899680
  H        1.8059140    -2.1013880    -0.1265130
  H       -0.3930520     2.0121160    -1.0836700
  H       -2.3417080     0.9766970    -0.3400740
  H        2.3997000     0.9352960    -0.9928030
  H       -1.9956420    -1.6762600    -1.2784950
units angstrom
no_reorient  #important for SAPT in psi4, default
symmetry c1  #important for SAPT in psi4, default
}

set PROPERTIES_ORIGIN ["COM"]
properties('MP2/aug-cc-pvtz', properties = ['dipole'])
--------------------------------------------------------------------------

    Molecular point group: c1
  Charge       = 0
  Multiplicity = 1
  Basis Set: AUG-CC-PVTZ
    Blend: AUG-CC-PVTZ
  Basis Set: (AUG-CC-PVTZ AUX)
    Blend: AUG-CC-PVTZ-JKFIT

    Orbital Energies [Eh]
    ---------------------

    Doubly Occupied:

       1A    -20.590933     2A    -20.580886     3A    -20.575955
       4A    -20.568001     5A    -20.560313     6A    -11.352791
       7A    -11.300329     8A    -11.294561     9A    -11.286276
      10A    -11.279155    11A     -1.438655    12A     -1.386316
      13A     -1.377223    14A     -1.354145    15A     -1.343259
      16A     -1.068395    17A     -1.024648    18A     -0.899919
      19A     -0.873691    20A     -0.798741    21A     -0.752482
      22A     -0.725999    23A     -0.710668    24A     -0.698406
      25A     -0.668674    26A     -0.645078    27A     -0.620464
      28A     -0.613436    29A     -0.602299    30A     -0.585959
      31A     -0.572945    32A     -0.556252    33A     -0.538482
      34A     -0.516566    35A     -0.501890    36A     -0.489781
      37A     -0.488960    38A     -0.475994    39A     -0.446032
      40A     -0.415074

  @DF-RHF Final Energy:  -569.67046757256890

   => Energetics <=

    Nuclear Repulsion Energy =            633.8412688234712959
    One-Electron Energy =               -2041.8642051235069630
    Two-Electron Energy =                 838.3524687274668850
    Total Energy =                       -569.6704675725688958
  Basis Set: (AUG-CC-PVTZ AUX)
    Blend: AUG-CC-PVTZ-RI
    Molecular point group: c1

    Geometry (in Angstrom), charge = 0, multiplicity = 1:

       Center              X                  Y                   Z               Mass
    ------------   -----------------  -----------------  -----------------  -----------------
         O           -0.113187460379    -1.793629059719     0.450847975188    15.994914619570
         O            0.360011539621     1.400647940281    -1.028703024812    15.994914619570
         O           -1.986309860379     1.347490940281     0.486939275188    15.994914619570
         O            2.716397539621     0.457242940281    -0.209692024812    15.994914619570
         O           -1.670048460379    -0.793562059719    -1.002510024812    15.994914619570
         C            0.457018339621     0.977538840281     0.366887875188    12.000000000000
         C           -0.907749460379     0.480938940281     0.836044975188    12.000000000000
         C            1.536092539621    -0.022230059719     0.416377975188    12.000000000000
         C           -1.213560460379    -0.929778059719     0.335692975188    12.000000000000
         C            1.056552539621    -1.310036059719    -0.232676024812    12.000000000000
         H            0.705838539621     1.894116940281     0.956562975188     1.007825032230
         H           -0.880300460379     0.438933940281     1.931311975188     1.007825032230
         H            1.785358539621    -0.224967059719     1.464014975188     1.007825032230
         H           -1.992369460379    -1.390200059719     0.957746975188     1.007825032230
         H            0.845184539621    -1.140872059719    -1.293993024812     1.007825032230
         H            1.807496539621    -2.094724059719    -0.130538024812     1.007825032230
         H           -0.391469460379     2.018779940281    -1.087695024812     1.007825032230
         H           -2.340125460379     0.983360940281    -0.344099024812     1.007825032230
         H            2.401282539621     0.941959940281    -0.996828024812     1.007825032230
         H           -1.994059460379    -1.669596059719    -1.282520024812     1.007825032230

  Basis Set: AUG-CC-PVTZ
    Blend: AUG-CC-PVTZ
  Basis Set: (AUG-CC-PVTZ AUX)
    Blend: AUG-CC-PVTZ-JKFIT
	 Reference Energy          =    -569.6704675725688958 [Eh]
	 Singles Energy            =      -0.0000000000000000 [Eh]
	 Same-Spin Energy          =      -0.5548799077229895 [Eh]
	 Opposite-Spin Energy      =      -1.7045420271664224 [Eh]
	 Correlation Energy        =      -2.2594219348894118 [Eh]
	 Total Energy              =    -571.9298895074582560 [Eh]

	 ================> DF-SCS-MP2 Energies <==================
	-----------------------------------------------------------
	 SCS Same-Spin Scale       =       0.3333333333333333 [-]
	 SCS Opposite-Spin Scale   =       1.2000000000000000 [-]
	 SCS Same-Spin Energy      =      -0.1849599692409965 [Eh]
	 SCS Opposite-Spin Energy  =      -2.0454504325997069 [Eh]
	 SCS Correlation Energy    =      -2.2304104018407034 [Eh]
	 SCS Total Energy          =    -571.9008779744095818 [Eh]
	-----------------------------------------------------------

  Dipole Moment: [D]
     X:    -2.0792      Y:    -0.9949      Z:    -0.2642     Total:     2.3201

*** Psi4 exiting successfully. Buy a developer a beer!
