                               Psi4 1.3.2 release

  ==> Input File <==

--------------------------------------------------------------------------
#psi4
#
memory 32 gb

molecule  {
0 1
  O       -0.1119087    -1.7608594     0.4858246
  O        0.3584290     1.3939840    -1.0246780
  O       -1.9551560     1.3713260     0.4690830
  O        2.7148150     0.4505790    -0.2056670
  O       -1.6716310    -0.8002260    -0.9984850
  C        0.4315910     1.0135520     0.3497470
  C       -0.9093320     0.4742750     0.8400700
  C        1.4944039    -0.0324587     0.4549396
  C       -1.2151430    -0.9364420     0.3397180
  C        1.0549700    -1.3167000    -0.2286510
  H        0.7042560     1.8874530     0.9605880
  H       -0.8818830     0.4322700     1.9353370
  H        1.7837760    -0.2316310     1.4680400
  H       -1.9939520    -1.3968640     0.9617720
  H        0.8436020    -1.1475360    -1.2899680
  H        1.8059140    -2.1013880    -0.1265130
  H       -0.3930520     2.0121160    -1.0836700
  H       -2.3417080     0.9766970    -0.3400740
  H        2.3997000     0.9352960    -0.9928030
  H       -1.9956420    -1.6762600    -1.2784950
units angstrom
no_reorient  #important for SAPT in psi4, default
symmetry c1  #important for SAPT in psi4, default
}

set PROPERTIES_ORIGIN ["COM"]
properties('MP2/aug-cc-pvtz', properties = ['dipole'])
--------------------------------------------------------------------------

    Molecular point group: c1
  Charge       = 0
  Multiplicity = 1
  Basis Set: AUG-CC-PVTZ
    Blend: AUG-CC-PVTZ
  Basis Set: (AUG-CC-PVTZ AUX)
    Blend: AUG-CC-PVTZ-JKFIT

    Orbital Energies [Eh]
    ---------------------

    Doubly Occupied:

       1A    -20.592655     2A    -20.579940     3A    -20.573048
       4A    -20.571757     5A    -20.551562     6A    -11.353067
       7A    -11.296578     8A    -11.291445     9A    -11.284545
      10A    -11.281423    11A     -1.442911    12A     -1.390106
      13A     -1.373707    14A     -1.354962    15A     -1.333613
      16A     -1.063909    17A     -1.026417    18A     -0.899291
      19A     -0.870598    20A     -0.799043    21A     -0.754051
      22A     -0.729423    23A     -0.713468    24A     -0.694726
      25A     -0.667330    26A     -0.643688    27A     -0.620358
      28A     -0.614802    29A     -0.602033    30A     -0.586088
      31A     -0.567403    32A     -0.550766    33A     -0.541307
      34A     -0.519473    35A     -0.504554    36A     -0.489934
      37A     -0.484733    38A     -0.478586    39A     -0.441055
      40A     -0.414628

  @DF-RHF Final Energy:  -569.67072327099550

   => Energetics <=

    Nuclear Repulsion Energy =            634.8251677863129316
    One-Electron Energy =               -2043.8938090390279285
    Two-Electron Energy =                 839.3979179817195018
    Total Energy =                       -569.6707232709954951
  Basis Set: (AUG-CC-PVTZ AUX)
    Blend: AUG-CC-PVTZ-RI
    Molecular point group: c1

    Geometry (in Angstrom), charge = 0, multiplicity = 1:

       Center              X                  Y                   Z               Mass
    ------------   -----------------  -----------------  -----------------  -----------------
         O           -0.109006434277    -1.764777831512     0.479763445063    15.994914619570
         O            0.361331265723     1.390065568488    -1.030739154937    15.994914619570
         O           -1.952253734277     1.367407568488     0.463021845063    15.994914619570
         O            2.717717265723     0.446660568488    -0.211728154937    15.994914619570
         O           -1.668728734277    -0.804144431512    -1.004546154937    15.994914619570
         C            0.434493265723     1.009633568488     0.343685845063    12.000000000000
         C           -0.906429734277     0.470356568488     0.834008845063    12.000000000000
         C            1.497306165723    -0.036377131512     0.448878445063    12.000000000000
         C           -1.212240734277    -0.940360431512     0.333656845063    12.000000000000
         C            1.057872265723    -1.320618431512    -0.234712154937    12.000000000000
         H            0.707158265723     1.883534568488     0.954526845063     1.007825032230
         H           -0.878980734277     0.428351568488     1.929275845063     1.007825032230
         H            1.786678265723    -0.235549431512     1.461978845063     1.007825032230
         H           -1.991049734277    -1.400782431512     0.955710845063     1.007825032230
         H            0.846504265723    -1.151454431512    -1.296029154937     1.007825032230
         H            1.808816265723    -2.105306431512    -0.132574154937     1.007825032230
         H           -0.390149734277     2.008197568488    -1.089731154937     1.007825032230
         H           -2.338805734277     0.972778568488    -0.346135154937     1.007825032230
         H            2.402602265723     0.931377568488    -0.998864154937     1.007825032230
         H           -1.992739734277    -1.680178431512    -1.284556154937     1.007825032230

  Basis Set: AUG-CC-PVTZ
    Blend: AUG-CC-PVTZ
  Basis Set: (AUG-CC-PVTZ AUX)
    Blend: AUG-CC-PVTZ-JKFIT
	 Reference Energy          =    -569.6707232709954951 [Eh]
	 Singles Energy            =      -0.0000000000000000 [Eh]
	 Same-Spin Energy          =      -0.5548174616328025 [Eh]
	 Opposite-Spin Energy      =      -1.7043332317151478 [Eh]
	 Correlation Energy        =      -2.2591506933479506 [Eh]
	 Total Energy              =    -571.9298739643434146 [Eh]

	 ================> DF-SCS-MP2 Energies <==================
	-----------------------------------------------------------
	 SCS Same-Spin Scale       =       0.3333333333333333 [-]
	 SCS Opposite-Spin Scale   =       1.2000000000000000 [-]
	 SCS Same-Spin Energy      =      -0.1849391538776008 [Eh]
	 SCS Opposite-Spin Energy  =      -2.0451998780581775 [Eh]
	 SCS Correlation Energy    =      -2.2301390319357783 [Eh]
	 SCS Total Energy          =    -571.9008623029312730 [Eh]
	-----------------------------------------------------------

  Dipole Moment: [D]
     X:    -2.2899      Y:    -1.1827      Z:    -0.2838     Total:     2.5929

*** Psi4 exiting successfully. Buy a developer a beer!
