                               Psi4 1.3.2 release

  ==> Input File <==

--------------------------------------------------------------------------
#psi4
#
memory 32 gb

molecule  {
0 1
  O       -0.1147700    -1.8002930     0.4548730
  O        0.3584290     1.3939840    -1.0246780
  O       -1.9551560     1.3713260     0.4690830
  O        2.7148150     0.4505790    -0.2056670
  O       -1.6716310    -0.8002260    -0.9984850
  C        0.4315910     1.0135520     0.3497470
  C       -0.9093320     0.4742750     0.8400700
  C        1.5345100    -0.0288940     0.4204030
  C       -1.2151430    -0.9364420     0.3397180
  C        1.1180773    -1.1472252    -0.1432357
  H        0.7042560     1.8874530     0.9605880
  H       -0.8818830     0.4322700     1.9353370
  H        1.7837760    -0.2316310     1.4680400
  H       -1.9939520    -1.3968640     0.9617720
  H        0.8436020    -1.1475360    -1.2899680
  H        1.8059140    -2.1013880    -0.1265130
  H       -0.3930520     2.0121160    -1.0836700
  H       -2.3417080     0.9766970    -0.3400740
  H        2.3997000     0.9352960    -0.9928030
  H       -1.9956420    -1.6762600    -1.2784950
units angstrom
no_reorient  #important for SAPT in psi4, default
symmetry c1  #important for SAPT in psi4, default
}

set PROPERTIES_ORIGIN ["COM"]
properties('MP2/aug-cc-pvtz', properties = ['dipole'])
--------------------------------------------------------------------------

    Molecular point group: c1
  Charge       = 0
  Multiplicity = 1
  Basis Set: AUG-CC-PVTZ
    Blend: AUG-CC-PVTZ
  Basis Set: (AUG-CC-PVTZ AUX)
    Blend: AUG-CC-PVTZ-JKFIT

    Orbital Energies [Eh]
    ---------------------

    Doubly Occupied:

       1A    -20.588294     2A    -20.579275     3A    -20.574924
       4A    -20.573268     5A    -20.564727     6A    -11.349503
       7A    -11.299269     8A    -11.294676     9A    -11.287164
      10A    -11.279928    11A     -1.431823    12A     -1.394478
      13A     -1.376590    14A     -1.352734    15A     -1.344790
      16A     -1.091279    17A     -1.030740    18A     -0.908282
      19A     -0.862859    20A     -0.801199    21A     -0.750911
      22A     -0.727310    23A     -0.706786    24A     -0.697153
      25A     -0.673745    26A     -0.655727    27A     -0.626754
      28A     -0.616729    29A     -0.599248    30A     -0.579113
      31A     -0.573811    32A     -0.553253    33A     -0.543203
      34A     -0.512205    35A     -0.496730    36A     -0.486926
      37A     -0.485599    38A     -0.454353    39A     -0.442882
      40A     -0.432009

  @DF-RHF Final Energy:  -569.62014984215307

   => Energetics <=

    Nuclear Repulsion Energy =            636.3816227061147401
    One-Electron Energy =               -2046.8030394499182876
    Two-Electron Energy =                 840.8012669016504788
    Total Energy =                       -569.6201498421530687
  Basis Set: (AUG-CC-PVTZ AUX)
    Blend: AUG-CC-PVTZ-RI
    Molecular point group: c1

    Geometry (in Angstrom), charge = 0, multiplicity = 1:

       Center              X                  Y                   Z               Mass
    ------------   -----------------  -----------------  -----------------  -----------------
         O           -0.119816898602    -1.813846284772     0.448042274734    15.994914619570
         O            0.353382101398     1.380430715228    -1.031508725266    15.994914619570
         O           -1.960202898602     1.357772715228     0.462252274734    15.994914619570
         O            2.709768101398     0.437025715228    -0.212497725266    15.994914619570
         O           -1.676677898602    -0.813779284772    -1.005315725266    15.994914619570
         C            0.426544101398     0.999998715228     0.342916274734    12.000000000000
         C           -0.914378898602     0.460721715228     0.833239274734    12.000000000000
         C            1.529463101398    -0.042447284772     0.413572274734    12.000000000000
         C           -1.220189898602    -0.949995284772     0.332887274734    12.000000000000
         C            1.113030401398    -1.160778484772    -0.150066425266    12.000000000000
         H            0.699209101398     1.873899715228     0.953757274734     1.007825032230
         H           -0.886929898602     0.418716715228     1.928506274734     1.007825032230
         H            1.778729101398    -0.245184284772     1.461209274734     1.007825032230
         H           -1.998998898602    -1.410417284772     0.954941274734     1.007825032230
         H            0.838555101398    -1.161089284772    -1.296798725266     1.007825032230
         H            1.800867101398    -2.114941284772    -0.133343725266     1.007825032230
         H           -0.398098898602     1.998562715228    -1.090500725266     1.007825032230
         H           -2.346754898602     0.963143715228    -0.346904725266     1.007825032230
         H            2.394653101398     0.921742715228    -0.999633725266     1.007825032230
         H           -2.000688898602    -1.689813284772    -1.285325725266     1.007825032230

  Basis Set: AUG-CC-PVTZ
    Blend: AUG-CC-PVTZ
  Basis Set: (AUG-CC-PVTZ AUX)
    Blend: AUG-CC-PVTZ-JKFIT
	 Reference Energy          =    -569.6201498421530687 [Eh]
	 Singles Energy            =      -0.0000000000000000 [Eh]
	 Same-Spin Energy          =      -0.5584009967486545 [Eh]
	 Opposite-Spin Energy      =      -1.7101517175638630 [Eh]
	 Correlation Energy        =      -2.2685527143125173 [Eh]
	 Total Energy              =    -571.8887025564655460 [Eh]

	 ================> DF-SCS-MP2 Energies <==================
	-----------------------------------------------------------
	 SCS Same-Spin Scale       =       0.3333333333333333 [-]
	 SCS Opposite-Spin Scale   =       1.2000000000000000 [-]
	 SCS Same-Spin Energy      =      -0.1861336655828848 [Eh]
	 SCS Opposite-Spin Energy  =      -2.0521820610766355 [Eh]
	 SCS Correlation Energy    =      -2.2383157266595202 [Eh]
	 SCS Total Energy          =    -571.8584655688125622 [Eh]
	-----------------------------------------------------------

  Dipole Moment: [D]
     X:    -2.0248      Y:    -0.7485      Z:    -0.2464     Total:     2.1727

*** Psi4 exiting successfully. Buy a developer a beer!
