                               Psi4 1.3.2 release

  ==> Input File <==

--------------------------------------------------------------------------
#psi4
#
memory 32 gb

molecule  {
0 1
  O       -0.1147700    -1.8002930     0.4548730
  O        0.3584290     1.3939840    -1.0246780
  O       -1.9551560     1.3713260     0.4690830
  O        2.7148150     0.4505790    -0.2056670
  O       -1.6716310    -0.8002260    -0.9984850
  C        0.4315910     1.0135520     0.3497470
  C       -0.9093320     0.4742750     0.8400700
  C        1.5345100    -0.0288940     0.4204030
  C       -1.2151430    -0.9364420     0.3397180
  C        1.0549700    -1.3167000    -0.2286510
  H        0.7042560     1.8874530     0.9605880
  H       -0.8818830     0.4322700     1.9353370
  H        1.7837760    -0.2316310     1.4680400
  H       -1.9939520    -1.3968640     0.9617720
  H        0.8436020    -1.1475360    -1.2899680
  H        1.8059140    -2.1013880    -0.1265130
  H       -0.4701405     2.0755253    -1.0897215
  H       -2.3417080     0.9766970    -0.3400740
  H        2.3997000     0.9352960    -0.9928030
  H       -1.9956420    -1.6762600    -1.2784950
units angstrom
no_reorient  #important for SAPT in psi4, default
symmetry c1  #important for SAPT in psi4, default
}

set PROPERTIES_ORIGIN ["COM"]
properties('MP2/aug-cc-pvtz', properties = ['dipole'])
--------------------------------------------------------------------------

    Molecular point group: c1
  Charge       = 0
  Multiplicity = 1
  Basis Set: AUG-CC-PVTZ
    Blend: AUG-CC-PVTZ
  Basis Set: (AUG-CC-PVTZ AUX)
    Blend: AUG-CC-PVTZ-JKFIT

    Orbital Energies [Eh]
    ---------------------

    Doubly Occupied:

       1A    -20.591242     2A    -20.580376     3A    -20.577121
       4A    -20.575347     5A    -20.557660     6A    -11.353526
       7A    -11.297917     8A    -11.289742     9A    -11.285127
      10A    -11.277659    11A     -1.438067    12A     -1.384210
      13A     -1.374541    14A     -1.353602    15A     -1.337055
      16A     -1.055355    17A     -1.022571    18A     -0.895928
      19A     -0.869487    20A     -0.792544    21A     -0.750134
      22A     -0.724514    23A     -0.710664    24A     -0.691925
      25A     -0.664641    26A     -0.645686    27A     -0.620405
      28A     -0.611607    29A     -0.599440    30A     -0.583202
      31A     -0.571097    32A     -0.555494    33A     -0.536683
      34A     -0.514358    35A     -0.501853    36A     -0.489166
      37A     -0.487314    38A     -0.470398    39A     -0.439845
      40A     -0.414790

  @DF-RHF Final Energy:  -569.66101192557528

   => Energetics <=

    Nuclear Repulsion Energy =            633.2353623048722966
    One-Electron Energy =               -2040.8081609049777398
    Two-Electron Energy =                 837.9117866745301626
    Total Energy =                       -569.6610119255752807
  Basis Set: (AUG-CC-PVTZ AUX)
    Blend: AUG-CC-PVTZ-RI
    Molecular point group: c1

    Geometry (in Angstrom), charge = 0, multiplicity = 1:

       Center              X                  Y                   Z               Mass
    ------------   -----------------  -----------------  -----------------  -----------------
         O           -0.114252329399    -1.800718960172     0.454913737927    15.994914619570
         O            0.358946670601     1.393558039828    -1.024637262073    15.994914619570
         O           -1.954638329399     1.370900039828     0.469123737927    15.994914619570
         O            2.715332670601     0.450153039828    -0.205626262073    15.994914619570
         O           -1.671113329399    -0.800651960172    -0.998444262073    15.994914619570
         C            0.432108670601     1.013126039828     0.349787737927    12.000000000000
         C           -0.908814329399     0.473849039828     0.840110737927    12.000000000000
         C            1.535027670601    -0.029319960172     0.420443737927    12.000000000000
         C           -1.214625329399    -0.936867960172     0.339758737927    12.000000000000
         C            1.055487670601    -1.317125960172    -0.228610262073    12.000000000000
         H            0.704773670601     1.887027039828     0.960628737927     1.007825032230
         H           -0.881365329399     0.431844039828     1.935377737927     1.007825032230
         H            1.784293670601    -0.232056960172     1.468080737927     1.007825032230
         H           -1.993434329399    -1.397289960172     0.961812737927     1.007825032230
         H            0.844119670601    -1.147961960172    -1.289927262073     1.007825032230
         H            1.806431670601    -2.101813960172    -0.126472262073     1.007825032230
         H           -0.469622829399     2.075099339828    -1.089680762073     1.007825032230
         H           -2.341190329399     0.976271039828    -0.340033262073     1.007825032230
         H            2.400217670601     0.934870039828    -0.992762262073     1.007825032230
         H           -1.995124329399    -1.676685960172    -1.278454262073     1.007825032230

  Basis Set: AUG-CC-PVTZ
    Blend: AUG-CC-PVTZ
  Basis Set: (AUG-CC-PVTZ AUX)
    Blend: AUG-CC-PVTZ-JKFIT
	 Reference Energy          =    -569.6610119255752807 [Eh]
	 Singles Energy            =      -0.0000000000000000 [Eh]
	 Same-Spin Energy          =      -0.5559821982559709 [Eh]
	 Opposite-Spin Energy      =      -1.7073101041362386 [Eh]
	 Correlation Energy        =      -2.2632923023922098 [Eh]
	 Total Energy              =    -571.9243042279674683 [Eh]

	 ================> DF-SCS-MP2 Energies <==================
	-----------------------------------------------------------
	 SCS Same-Spin Scale       =       0.3333333333333333 [-]
	 SCS Opposite-Spin Scale   =       1.2000000000000000 [-]
	 SCS Same-Spin Energy      =      -0.1853273994186570 [Eh]
	 SCS Opposite-Spin Energy  =      -2.0487721249634863 [Eh]
	 SCS Correlation Energy    =      -2.2340995243821431 [Eh]
	 SCS Total Energy          =    -571.8951114499574260 [Eh]
	-----------------------------------------------------------

  Dipole Moment: [D]
     X:    -2.2688      Y:    -0.9310      Z:    -0.3121     Total:     2.4722

*** Psi4 exiting successfully. Buy a developer a beer!
