                               Psi4 1.3.2 release

  ==> Input File <==

--------------------------------------------------------------------------
#psi4
#
memory 32 gb

molecule  {
0 1
  O       -0.1147700    -1.8002930     0.4548730
  O        0.3584290     1.3939840    -1.0246780
  O       -1.9551560     1.3713260     0.4690830
  O        2.7148150     0.4505790    -0.2056670
  O       -1.6716310    -0.8002260    -0.9984850
  C        0.4315910     1.0135520     0.3497470
  C       -0.9093320     0.4742750     0.8400700
  C        1.5345100    -0.0288940     0.4204030
  C       -1.1732219    -0.8915466     0.2993754
  C        1.0152789    -1.2562383    -0.2496502
  H        0.7042560     1.8874530     0.9605880
  H       -0.8818830     0.4322700     1.9353370
  H        1.7837760    -0.2316310     1.4680400
  H       -1.9939520    -1.3968640     0.9617720
  H        0.8436020    -1.1475360    -1.2899680
  H        1.8059140    -2.1013880    -0.1265130
  H       -0.3930520     2.0121160    -1.0836700
  H       -2.3417080     0.9766970    -0.3400740
  H        2.3997000     0.9352960    -0.9928030
  H       -1.9956420    -1.6762600    -1.2784950
units angstrom
no_reorient  #important for SAPT in psi4, default
symmetry c1  #important for SAPT in psi4, default
}

set PROPERTIES_ORIGIN ["COM"]
properties('MP2/aug-cc-pvtz', properties = ['dipole'])
--------------------------------------------------------------------------

    Molecular point group: c1
  Charge       = 0
  Multiplicity = 1
  Basis Set: AUG-CC-PVTZ
    Blend: AUG-CC-PVTZ
  Basis Set: (AUG-CC-PVTZ AUX)
    Blend: AUG-CC-PVTZ-JKFIT

    Orbital Energies [Eh]
    ---------------------

    Doubly Occupied:

       1A    -20.594899     2A    -20.586208     3A    -20.576873
       4A    -20.573226     5A    -20.560100     6A    -11.355659
       7A    -11.299228     8A    -11.290207     9A    -11.286387
      10A    -11.279017    11A     -1.448195    12A     -1.394291
      13A     -1.380227    14A     -1.360544    15A     -1.349775
      16A     -1.067120    17A     -1.024545    18A     -0.902246
      19A     -0.866860    20A     -0.805598    21A     -0.753985
      22A     -0.731576    23A     -0.712357    24A     -0.697189
      25A     -0.672819    26A     -0.653733    27A     -0.625008
      28A     -0.616642    29A     -0.605043    30A     -0.582799
      31A     -0.570479    32A     -0.551869    33A     -0.545581
      34A     -0.520151    35A     -0.495884    36A     -0.493719
      37A     -0.487253    38A     -0.474304    39A     -0.435926
      40A     -0.420119

  @DF-RHF Final Energy:  -569.65836482106556

   => Energetics <=

    Nuclear Repulsion Energy =            636.5200435905416043
    One-Electron Energy =               -2047.0615359384348722
    Two-Electron Energy =                 840.8831275268278205
    Total Energy =                       -569.6583648210655610
  Basis Set: (AUG-CC-PVTZ AUX)
    Blend: AUG-CC-PVTZ-RI
    Molecular point group: c1

    Geometry (in Angstrom), charge = 0, multiplicity = 1:

       Center              X                  Y                   Z               Mass
    ------------   -----------------  -----------------  -----------------  -----------------
         O           -0.114948429063    -1.808718674492     0.459778709677    15.994914619570
         O            0.358250570937     1.385558325508    -1.019772290323    15.994914619570
         O           -1.955334429063     1.362900325508     0.473988709677    15.994914619570
         O            2.714636570937     0.442153325508    -0.200761290323    15.994914619570
         O           -1.671809429063    -0.808651674492    -0.993579290323    15.994914619570
         C            0.431412570937     1.005126325508     0.354652709677    12.000000000000
         C           -0.909510429063     0.465849325508     0.844975709677    12.000000000000
         C            1.534331570937    -0.037319674492     0.425308709677    12.000000000000
         C           -1.173400329063    -0.899972274492     0.304281109677    12.000000000000
         C            1.015100470937    -1.264663974492    -0.244744490323    12.000000000000
         H            0.704077570937     1.879027325508     0.965493709677     1.007825032230
         H           -0.882061429063     0.423844325508     1.940242709677     1.007825032230
         H            1.783597570937    -0.240056674492     1.472945709677     1.007825032230
         H           -1.994130429063    -1.405289674492     0.966677709677     1.007825032230
         H            0.843423570937    -1.155961674492    -1.285062290323     1.007825032230
         H            1.805735570937    -2.109813674492    -0.121607290323     1.007825032230
         H           -0.393230429063     2.003690325508    -1.078764290323     1.007825032230
         H           -2.341886429063     0.968271325508    -0.335168290323     1.007825032230
         H            2.399521570937     0.926870325508    -0.987897290323     1.007825032230
         H           -1.995820429063    -1.684685674492    -1.273589290323     1.007825032230

  Basis Set: AUG-CC-PVTZ
    Blend: AUG-CC-PVTZ
  Basis Set: (AUG-CC-PVTZ AUX)
    Blend: AUG-CC-PVTZ-JKFIT
	 Reference Energy          =    -569.6583648210655610 [Eh]
	 Singles Energy            =      -0.0000000000000000 [Eh]
	 Same-Spin Energy          =      -0.5559925636242240 [Eh]
	 Opposite-Spin Energy      =      -1.7058308651796092 [Eh]
	 Correlation Energy        =      -2.2618234288038330 [Eh]
	 Total Energy              =    -571.9201882498693976 [Eh]

	 ================> DF-SCS-MP2 Energies <==================
	-----------------------------------------------------------
	 SCS Same-Spin Scale       =       0.3333333333333333 [-]
	 SCS Opposite-Spin Scale   =       1.2000000000000000 [-]
	 SCS Same-Spin Energy      =      -0.1853308545414080 [Eh]
	 SCS Opposite-Spin Energy  =      -2.0469970382155309 [Eh]
	 SCS Correlation Energy    =      -2.2323278927569388 [Eh]
	 SCS Total Energy          =    -571.8906927138225456 [Eh]
	-----------------------------------------------------------

  Dipole Moment: [D]
     X:    -2.1619      Y:    -0.8344      Z:    -0.4552     Total:     2.3617

*** Psi4 exiting successfully. Buy a developer a beer!
