                               Psi4 1.3.2 release

  ==> Input File <==

--------------------------------------------------------------------------
#psi4
#
memory 32 gb

molecule  {
0 1
  O       -0.1147700    -1.8002930     0.4548730
  O        0.3584290     1.3939840    -1.0246780
  O       -1.9551560     1.3713260     0.4690830
  O        2.7148150     0.4505790    -0.2056670
  O       -1.6716310    -0.8002260    -0.9984850
  C        0.4707011     0.9846695     0.3387669
  C       -0.9093320     0.4742750     0.8400700
  C        1.5345100    -0.0288940     0.4204030
  C       -1.2151430    -0.9364420     0.3397180
  C        1.0549700    -1.3167000    -0.2286510
  H        0.7042560     1.8874530     0.9605880
  H       -0.8818830     0.4322700     1.9353370
  H        1.7837760    -0.2316310     1.4680400
  H       -1.9939520    -1.3968640     0.9617720
  H        0.8436020    -1.1475360    -1.2899680
  H        1.8059140    -2.1013880    -0.1265130
  H       -0.3871462     2.0151747    -1.1170399
  H       -2.3417080     0.9766970    -0.3400740
  H        2.3997000     0.9352960    -0.9928030
  H       -1.9956420    -1.6762600    -1.2784950
units angstrom
no_reorient  #important for SAPT in psi4, default
symmetry c1  #important for SAPT in psi4, default
}

set PROPERTIES_ORIGIN ["COM"]
properties('MP2/aug-cc-pvtz', properties = ['dipole'])
--------------------------------------------------------------------------

    Molecular point group: c1
  Charge       = 0
  Multiplicity = 1
  Basis Set: AUG-CC-PVTZ
    Blend: AUG-CC-PVTZ
  Basis Set: (AUG-CC-PVTZ AUX)
    Blend: AUG-CC-PVTZ-JKFIT

    Orbital Energies [Eh]
    ---------------------

    Doubly Occupied:

       1A    -20.591218     2A    -20.580860     3A    -20.575019
       4A    -20.569418     5A    -20.558391     6A    -11.352758
       7A    -11.299112     8A    -11.292746     9A    -11.284468
      10A    -11.278690    11A     -1.438435    12A     -1.390407
      13A     -1.376078    14A     -1.353801    15A     -1.346998
      16A     -1.063018    17A     -1.022940    18A     -0.899718
      19A     -0.869806    20A     -0.800454    21A     -0.752409
      22A     -0.725541    23A     -0.711247    24A     -0.696146
      25A     -0.672030    26A     -0.645664    27A     -0.620372
      28A     -0.616673    29A     -0.600203    30A     -0.585156
      31A     -0.572196    32A     -0.556111    33A     -0.538088
      34A     -0.518822    35A     -0.501817    36A     -0.489924
      37A     -0.488033    38A     -0.475444    39A     -0.439142
      40A     -0.412877

  @DF-RHF Final Energy:  -569.67174004163792

   => Energetics <=

    Nuclear Repulsion Energy =            634.0705946620519171
    One-Electron Energy =               -2042.3602078388748851
    Two-Electron Energy =                 838.6178731351850502
    Total Energy =                       -569.6717400416379178
  Basis Set: (AUG-CC-PVTZ AUX)
    Blend: AUG-CC-PVTZ-RI
    Molecular point group: c1

    Geometry (in Angstrom), charge = 0, multiplicity = 1:

       Center              X                  Y                   Z               Mass
    ------------   -----------------  -----------------  -----------------  -----------------
         O           -0.117937464543    -1.798003830686     0.455975319867    15.994914619570
         O            0.355261535457     1.396273169314    -1.023575680133    15.994914619570
         O           -1.958323464543     1.373615169314     0.470185319867    15.994914619570
         O            2.711647535457     0.452868169314    -0.204564680133    15.994914619570
         O           -1.674798464543    -0.797936830686    -0.997382680133    15.994914619570
         C            0.467533635457     0.986958669314     0.339869219867    12.000000000000
         C           -0.912499464543     0.476564169314     0.841172319867    12.000000000000
         C            1.531342535457    -0.026604830686     0.421505319867    12.000000000000
         C           -1.218310464543    -0.934152830686     0.340820319867    12.000000000000
         C            1.051802535457    -1.314410830686    -0.227548680133    12.000000000000
         H            0.701088535457     1.889742169314     0.961690319867     1.007825032230
         H           -0.885050464543     0.434559169314     1.936439319867     1.007825032230
         H            1.780608535457    -0.229341830686     1.469142319867     1.007825032230
         H           -1.997119464543    -1.394574830686     0.962874319867     1.007825032230
         H            0.840434535457    -1.145246830686    -1.288865680133     1.007825032230
         H            1.802746535457    -2.099098830686    -0.125410680133     1.007825032230
         H           -0.390313664543     2.017463869314    -1.115937580133     1.007825032230
         H           -2.344875464543     0.978986169314    -0.338971680133     1.007825032230
         H            2.396532535457     0.937585169314    -0.991700680133     1.007825032230
         H           -1.998809464543    -1.673970830686    -1.277392680133     1.007825032230

  Basis Set: AUG-CC-PVTZ
    Blend: AUG-CC-PVTZ
  Basis Set: (AUG-CC-PVTZ AUX)
    Blend: AUG-CC-PVTZ-JKFIT
	 Reference Energy          =    -569.6717400416379178 [Eh]
	 Singles Energy            =      -0.0000000000000000 [Eh]
	 Same-Spin Energy          =      -0.5547426655295662 [Eh]
	 Opposite-Spin Energy      =      -1.7039317184174982 [Eh]
	 Correlation Energy        =      -2.2586743839470644 [Eh]
	 Total Energy              =    -571.9304144255850133 [Eh]

	 ================> DF-SCS-MP2 Energies <==================
	-----------------------------------------------------------
	 SCS Same-Spin Scale       =       0.3333333333333333 [-]
	 SCS Opposite-Spin Scale   =       1.2000000000000000 [-]
	 SCS Same-Spin Energy      =      -0.1849142218431887 [Eh]
	 SCS Opposite-Spin Energy  =      -2.0447180621009977 [Eh]
	 SCS Correlation Energy    =      -2.2296322839441864 [Eh]
	 SCS Total Energy          =    -571.9013723255820878 [Eh]
	-----------------------------------------------------------

  Dipole Moment: [D]
     X:    -2.1631      Y:    -1.0064      Z:    -0.3443     Total:     2.4105

*** Psi4 exiting successfully. Buy a developer a beer!
