                               Psi4 1.3.2 release

  ==> Input File <==

--------------------------------------------------------------------------
#psi4
#
memory 32 gb

molecule  {
0 1
  O       -0.1147700    -1.8002930     0.4548730
  O        0.3584290     1.3939840    -1.0246780
  O       -1.9551560     1.3713260     0.4690830
  O        2.7148150     0.4505790    -0.2056670
  O       -1.6716310    -0.8002260    -0.9984850
  C        0.4315910     1.0135520     0.3497470
  C       -0.9204097     0.4979914     0.8351356
  C        1.5516134    -0.0111206     0.4106741
  C       -1.2151430    -0.9364420     0.3397180
  C        1.0549700    -1.3167000    -0.2286510
  H        0.7042560     1.8874530     0.9605880
  H       -0.8818830     0.4322700     1.9353370
  H        1.7837760    -0.2316310     1.4680400
  H       -1.9939520    -1.3968640     0.9617720
  H        0.8436020    -1.1475360    -1.2899680
  H        1.8059140    -2.1013880    -0.1265130
  H       -0.3930520     2.0121160    -1.0836700
  H       -2.3417080     0.9766970    -0.3400740
  H        2.3997000     0.9352960    -0.9928030
  H       -1.9956420    -1.6762600    -1.2784950
units angstrom
no_reorient  #important for SAPT in psi4, default
symmetry c1  #important for SAPT in psi4, default
}

set PROPERTIES_ORIGIN ["COM"]
properties('MP2/aug-cc-pvtz', properties = ['dipole'])
--------------------------------------------------------------------------

    Molecular point group: c1
  Charge       = 0
  Multiplicity = 1
  Basis Set: AUG-CC-PVTZ
    Blend: AUG-CC-PVTZ
  Basis Set: (AUG-CC-PVTZ AUX)
    Blend: AUG-CC-PVTZ-JKFIT

    Orbital Energies [Eh]
    ---------------------

    Doubly Occupied:

       1A    -20.590703     2A    -20.580305     3A    -20.576962
       4A    -20.570674     5A    -20.561035     6A    -11.353033
       7A    -11.298662     8A    -11.289471     9A    -11.286039
      10A    -11.277037    11A     -1.438094    12A     -1.395489
      13A     -1.382900    14A     -1.355108    15A     -1.353350
      16A     -1.055261    17A     -1.018075    18A     -0.895641
      19A     -0.871087    20A     -0.799127    21A     -0.752079
      22A     -0.726894    23A     -0.711450    24A     -0.700372
      25A     -0.672182    26A     -0.647582    27A     -0.621226
      28A     -0.615106    29A     -0.603845    30A     -0.587744
      31A     -0.572858    32A     -0.557354    33A     -0.544639
      34A     -0.514505    35A     -0.502222    36A     -0.490646
      37A     -0.485483    38A     -0.469341    39A     -0.440287
      40A     -0.410151

  @DF-RHF Final Energy:  -569.67404359298121

   => Energetics <=

    Nuclear Repulsion Energy =            633.7043706638720550
    One-Electron Energy =               -2041.6087950519577134
    Two-Electron Energy =                 838.2303807951045655
    Total Energy =                       -569.6740435929812065
  Basis Set: (AUG-CC-PVTZ AUX)
    Blend: AUG-CC-PVTZ-RI
    Molecular point group: c1

    Geometry (in Angstrom), charge = 0, multiplicity = 1:

       Center              X                  Y                   Z               Mass
    ------------   -----------------  -----------------  -----------------  -----------------
         O           -0.115251978166    -1.803611089159     0.456045744263    15.994914619570
         O            0.357947021834     1.390665910841    -1.023505255737    15.994914619570
         O           -1.955637978166     1.368007910841     0.470255744263    15.994914619570
         O            2.714333021834     0.447260910841    -0.204494255737    15.994914619570
         O           -1.672112978166    -0.803544089159    -0.997312255737    15.994914619570
         C            0.431109021834     1.010233910841     0.350919744263    12.000000000000
         C           -0.920891678166     0.494673310841     0.836308344263    12.000000000000
         C            1.551131421834    -0.014438689159     0.411846844263    12.000000000000
         C           -1.215624978166    -0.939760089159     0.340890744263    12.000000000000
         C            1.054488021834    -1.320018089159    -0.227478255737    12.000000000000
         H            0.703774021834     1.884134910841     0.961760744263     1.007825032230
         H           -0.882364978166     0.428951910841     1.936509744263     1.007825032230
         H            1.783294021834    -0.234949089159     1.469212744263     1.007825032230
         H           -1.994433978166    -1.400182089159     0.962944744263     1.007825032230
         H            0.843120021834    -1.150854089159    -1.288795255737     1.007825032230
         H            1.805432021834    -2.104706089159    -0.125340255737     1.007825032230
         H           -0.393533978166     2.008797910841    -1.082497255737     1.007825032230
         H           -2.342189978166     0.973378910841    -0.338901255737     1.007825032230
         H            2.399218021834     0.931977910841    -0.991630255737     1.007825032230
         H           -1.996123978166    -1.679578089159    -1.277322255737     1.007825032230

  Basis Set: AUG-CC-PVTZ
    Blend: AUG-CC-PVTZ
  Basis Set: (AUG-CC-PVTZ AUX)
    Blend: AUG-CC-PVTZ-JKFIT
	 Reference Energy          =    -569.6740435929812065 [Eh]
	 Singles Energy            =      -0.0000000000000000 [Eh]
	 Same-Spin Energy          =      -0.5545300133962492 [Eh]
	 Opposite-Spin Energy      =      -1.7032809930529345 [Eh]
	 Correlation Energy        =      -2.2578110064491836 [Eh]
	 Total Energy              =    -571.9318545994303804 [Eh]

	 ================> DF-SCS-MP2 Energies <==================
	-----------------------------------------------------------
	 SCS Same-Spin Scale       =       0.3333333333333333 [-]
	 SCS Opposite-Spin Scale   =       1.2000000000000000 [-]
	 SCS Same-Spin Energy      =      -0.1848433377987497 [Eh]
	 SCS Opposite-Spin Energy  =      -2.0439371916635212 [Eh]
	 SCS Correlation Energy    =      -2.2287805294622709 [Eh]
	 SCS Total Energy          =    -571.9028241224434623 [Eh]
	-----------------------------------------------------------

  Dipole Moment: [D]
     X:    -2.1666      Y:    -0.9033      Z:    -0.3495     Total:     2.3732

*** Psi4 exiting successfully. Buy a developer a beer!
