                               Psi4 1.3.2 release

  ==> Input File <==

--------------------------------------------------------------------------
#psi4
#
memory 32 gb

molecule  {
0 1
  O       -0.1147700    -1.8002930     0.4548730
  O        0.3584290     1.3939840    -1.0246780
  O       -1.9551560     1.3713260     0.4690830
  O        2.7148150     0.4505790    -0.2056670
  O       -1.6716310    -0.8002260    -0.9984850
  C        0.4315910     1.0135520     0.3497470
  C       -0.9093320     0.4742750     0.8400700
  C        1.5345100    -0.0288940     0.4204030
  C       -1.2151430    -0.9364420     0.3397180
  C        1.2176003    -1.2494655    -0.3236821
  H        0.7042560     1.8874530     0.9605880
  H       -0.8818830     0.4322700     1.9353370
  H        1.7837760    -0.2316310     1.4680400
  H       -1.9939520    -1.3968640     0.9617720
  H        0.8436020    -1.1475360    -1.2899680
  H        1.8059140    -2.1013880    -0.1265130
  H       -0.3930520     2.0121160    -1.0836700
  H       -2.3417080     0.9766970    -0.3400740
  H        2.3997000     0.9352960    -0.9928030
  H       -1.9956420    -1.6762600    -1.2784950
units angstrom
no_reorient  #important for SAPT in psi4, default
symmetry c1  #important for SAPT in psi4, default
}

set PROPERTIES_ORIGIN ["COM"]
properties('MP2/aug-cc-pvtz', properties = ['dipole'])
--------------------------------------------------------------------------

    Molecular point group: c1
  Charge       = 0
  Multiplicity = 1
  Basis Set: AUG-CC-PVTZ
    Blend: AUG-CC-PVTZ
  Basis Set: (AUG-CC-PVTZ AUX)
    Blend: AUG-CC-PVTZ-JKFIT

    Orbital Energies [Eh]
    ---------------------

    Doubly Occupied:

       1A    -20.583742     2A    -20.573695     3A    -20.571115
       4A    -20.560852     5A    -20.557445     6A    -11.341850
       7A    -11.294861     8A    -11.293901     9A    -11.291880
      10A    -11.288143    11A     -1.419936    12A     -1.391847
      13A     -1.370047    14A     -1.351385    15A     -1.319314
      16A     -1.063410    17A     -1.021999    18A     -0.907630
      19A     -0.862010    20A     -0.802255    21A     -0.746172
      22A     -0.729375    23A     -0.697462    24A     -0.689771
      25A     -0.670634    26A     -0.650201    27A     -0.622044
      28A     -0.613563    29A     -0.591453    30A     -0.578979
      31A     -0.578207    32A     -0.561690    33A     -0.537675
      34A     -0.514955    35A     -0.494394    36A     -0.486595
      37A     -0.478908    38A     -0.464617    39A     -0.444627
      40A     -0.417810

  @DF-RHF Final Energy:  -569.64505665708577

   => Energetics <=

    Nuclear Repulsion Energy =            631.8851062795698681
    One-Electron Energy =               -2038.1874276074722729
    Two-Electron Energy =                 836.6572646708167440
    Total Energy =                       -569.6450566570857745
  Basis Set: (AUG-CC-PVTZ AUX)
    Blend: AUG-CC-PVTZ-RI
    Molecular point group: c1

    Geometry (in Angstrom), charge = 0, multiplicity = 1:

       Center              X                  Y                   Z               Mass
    ------------   -----------------  -----------------  -----------------  -----------------
         O           -0.127775935778    -1.805669940122     0.462472904899    15.994914619570
         O            0.345423064222     1.388607059878    -1.017078095101    15.994914619570
         O           -1.968161935778     1.365949059878     0.476682904899    15.994914619570
         O            2.701809064222     0.445202059878    -0.198067095101    15.994914619570
         O           -1.684636935778    -0.805602940122    -0.990885095101    15.994914619570
         C            0.418585064222     1.008175059878     0.357346904899    12.000000000000
         C           -0.922337935778     0.468898059878     0.847669904899    12.000000000000
         C            1.521504064222    -0.034270940122     0.428002904899    12.000000000000
         C           -1.228148935778    -0.941818940122     0.347317904899    12.000000000000
         C            1.204594364222    -1.254842440122    -0.316082195101    12.000000000000
         H            0.691250064222     1.882076059878     0.968187904899     1.007825032230
         H           -0.894888935778     0.426893059878     1.942936904899     1.007825032230
         H            1.770770064222    -0.237007940122     1.475639904899     1.007825032230
         H           -2.006957935778    -1.402240940122     0.969371904899     1.007825032230
         H            0.830596064222    -1.152912940122    -1.282368095101     1.007825032230
         H            1.792908064222    -2.106764940122    -0.118913095101     1.007825032230
         H           -0.406057935778     2.006739059878    -1.076070095101     1.007825032230
         H           -2.354713935778     0.971320059878    -0.332474095101     1.007825032230
         H            2.386694064222     0.929919059878    -0.985203095101     1.007825032230
         H           -2.008647935778    -1.681636940122    -1.270895095101     1.007825032230

  Basis Set: AUG-CC-PVTZ
    Blend: AUG-CC-PVTZ
  Basis Set: (AUG-CC-PVTZ AUX)
    Blend: AUG-CC-PVTZ-JKFIT
	 Reference Energy          =    -569.6450566570857745 [Eh]
	 Singles Energy            =      -0.0000000000000000 [Eh]
	 Same-Spin Energy          =      -0.5559759742783492 [Eh]
	 Opposite-Spin Energy      =      -1.7081909294591946 [Eh]
	 Correlation Energy        =      -2.2641669037375438 [Eh]
	 Total Energy              =    -571.9092235608233068 [Eh]

	 ================> DF-SCS-MP2 Energies <==================
	-----------------------------------------------------------
	 SCS Same-Spin Scale       =       0.3333333333333333 [-]
	 SCS Opposite-Spin Scale   =       1.2000000000000000 [-]
	 SCS Same-Spin Energy      =      -0.1853253247594497 [Eh]
	 SCS Opposite-Spin Energy  =      -2.0498291153510335 [Eh]
	 SCS Correlation Energy    =      -2.2351544401104833 [Eh]
	 SCS Total Energy          =    -571.8802110971962520 [Eh]
	-----------------------------------------------------------

  Dipole Moment: [D]
     X:    -1.6289      Y:    -0.8057      Z:    -0.4863     Total:     1.8812

*** Psi4 exiting successfully. Buy a developer a beer!
