                               Psi4 1.3.2 release

  ==> Input File <==

--------------------------------------------------------------------------
#psi4
#
memory 32 gb

molecule  {
0 1
  O       -0.1147700    -1.8002930     0.4548730
  O        0.3584290     1.3939840    -1.0246780
  O       -1.9787316     1.3333628     0.4470913
  O        2.7148150     0.4505790    -0.2056670
  O       -1.6716310    -0.8002260    -0.9984850
  C        0.4315910     1.0135520     0.3497470
  C       -0.9093320     0.4742750     0.8400700
  C        1.5345100    -0.0288940     0.4204030
  C       -1.2606208    -0.9181341     0.3187369
  C        1.0549700    -1.3167000    -0.2286510
  H        0.7042560     1.8874530     0.9605880
  H       -0.8818830     0.4322700     1.9353370
  H        1.7837760    -0.2316310     1.4680400
  H       -1.9939520    -1.3968640     0.9617720
  H        0.8436020    -1.1475360    -1.2899680
  H        1.8059140    -2.1013880    -0.1265130
  H       -0.3930520     2.0121160    -1.0836700
  H       -2.3417080     0.9766970    -0.3400740
  H        2.3997000     0.9352960    -0.9928030
  H       -1.9956420    -1.6762600    -1.2784950
units angstrom
no_reorient  #important for SAPT in psi4, default
symmetry c1  #important for SAPT in psi4, default
}

set PROPERTIES_ORIGIN ["COM"]
properties('MP2/aug-cc-pvtz', properties = ['dipole'])
--------------------------------------------------------------------------

    Molecular point group: c1
  Charge       = 0
  Multiplicity = 1
  Basis Set: AUG-CC-PVTZ
    Blend: AUG-CC-PVTZ
  Basis Set: (AUG-CC-PVTZ AUX)
    Blend: AUG-CC-PVTZ-JKFIT

    Orbital Energies [Eh]
    ---------------------

    Doubly Occupied:

       1A    -20.598109     2A    -20.572142     3A    -20.571777
       4A    -20.570102     5A    -20.557116     6A    -11.352878
       7A    -11.300339     8A    -11.292193     9A    -11.284114
      10A    -11.273920    11A     -1.441948    12A     -1.393519
      13A     -1.377394    14A     -1.352619    15A     -1.347465
      16A     -1.058875    17A     -1.019646    18A     -0.899288
      19A     -0.870315    20A     -0.801316    21A     -0.757414
      22A     -0.728853    23A     -0.708764    24A     -0.702921
      25A     -0.670147    26A     -0.648064    27A     -0.619345
      28A     -0.610348    29A     -0.605038    30A     -0.584959
      31A     -0.576382    32A     -0.554041    33A     -0.541897
      34A     -0.517208    35A     -0.503075    36A     -0.487589
      37A     -0.486197    38A     -0.467916    39A     -0.442112
      40A     -0.413291

  @DF-RHF Final Energy:  -569.67285336122370

   => Energetics <=

    Nuclear Repulsion Energy =            633.9688015854009109
    One-Electron Energy =               -2042.1620352817776620
    Two-Electron Energy =                 838.5203803351531633
    Total Energy =                       -569.6728533612237015
  Basis Set: (AUG-CC-PVTZ AUX)
    Blend: AUG-CC-PVTZ-RI
    Molecular point group: c1

    Geometry (in Angstrom), charge = 0, multiplicity = 1:

       Center              X                  Y                   Z               Mass
    ------------   -----------------  -----------------  -----------------  -----------------
         O           -0.108620102228    -1.797710494139     0.458895200569    15.994914619570
         O            0.364578897772     1.396566505861    -1.020655799431    15.994914619570
         O           -1.972581702228     1.335945305861     0.451113500569    15.994914619570
         O            2.720964897772     0.453161505861    -0.201644799431    15.994914619570
         O           -1.665481102228    -0.797643494139    -0.994462799431    15.994914619570
         C            0.437740897772     1.016134505861     0.353769200569    12.000000000000
         C           -0.903182102228     0.476857505861     0.844092200569    12.000000000000
         C            1.540659897772    -0.026311494139     0.424425200569    12.000000000000
         C           -1.254470902228    -0.915551594139     0.322759100569    12.000000000000
         C            1.061119897772    -1.314117494139    -0.224628799431    12.000000000000
         H            0.710405897772     1.890035505861     0.964610200569     1.007825032230
         H           -0.875733102228     0.434852505861     1.939359200569     1.007825032230
         H            1.789925897772    -0.229048494139     1.472062200569     1.007825032230
         H           -1.987802102228    -1.394281494139     0.965794200569     1.007825032230
         H            0.849751897772    -1.144953494139    -1.285945799431     1.007825032230
         H            1.812063897772    -2.098805494139    -0.122490799431     1.007825032230
         H           -0.386902102228     2.014698505861    -1.079647799431     1.007825032230
         H           -2.335558102228     0.979279505861    -0.336051799431     1.007825032230
         H            2.405849897772     0.937878505861    -0.988780799431     1.007825032230
         H           -1.989492102228    -1.673677494139    -1.274472799431     1.007825032230

  Basis Set: AUG-CC-PVTZ
    Blend: AUG-CC-PVTZ
  Basis Set: (AUG-CC-PVTZ AUX)
    Blend: AUG-CC-PVTZ-JKFIT
	 Reference Energy          =    -569.6728533612237015 [Eh]
	 Singles Energy            =      -0.0000000000000000 [Eh]
	 Same-Spin Energy          =      -0.5540514705420722 [Eh]
	 Opposite-Spin Energy      =      -1.7027390990903455 [Eh]
	 Correlation Energy        =      -2.2567905696324178 [Eh]
	 Total Energy              =    -571.9296439308561730 [Eh]

	 ================> DF-SCS-MP2 Energies <==================
	-----------------------------------------------------------
	 SCS Same-Spin Scale       =       0.3333333333333333 [-]
	 SCS Opposite-Spin Scale   =       1.2000000000000000 [-]
	 SCS Same-Spin Energy      =      -0.1846838235140240 [Eh]
	 SCS Opposite-Spin Energy  =      -2.0432869189084144 [Eh]
	 SCS Correlation Energy    =      -2.2279707424224386 [Eh]
	 SCS Total Energy          =    -571.9008241036461868 [Eh]
	-----------------------------------------------------------

  Dipole Moment: [D]
     X:    -2.3768      Y:    -0.8316      Z:    -0.3846     Total:     2.5473

*** Psi4 exiting successfully. Buy a developer a beer!
