                               Psi4 1.3.2 release

  ==> Input File <==

--------------------------------------------------------------------------
#psi4
#
memory 32 gb

molecule  {
0 1
  O       -0.1147700    -1.8002930     0.4548730
  O        0.3584290     1.3939840    -1.0246780
  O       -1.9551560     1.3713260     0.4690830
  O        2.7148150     0.4505790    -0.2056670
  O       -1.6769787    -0.8494656    -1.0007544
  C        0.4315910     1.0135520     0.3497470
  C       -0.8948114     0.4534819     0.8869786
  C        1.5345100    -0.0288940     0.4204030
  C       -1.2151430    -0.9364420     0.3397180
  C        1.0549700    -1.3167000    -0.2286510
  H        0.7042560     1.8874530     0.9605880
  H       -0.8818830     0.4322700     1.9353370
  H        1.7837760    -0.2316310     1.4680400
  H       -1.9939520    -1.3968640     0.9617720
  H        0.8436020    -1.1475360    -1.2899680
  H        1.8059140    -2.1013880    -0.1265130
  H       -0.3930520     2.0121160    -1.0836700
  H       -2.3417080     0.9766970    -0.3400740
  H        2.3997000     0.9352960    -0.9928030
  H       -1.9956420    -1.6762600    -1.2784950
units angstrom
no_reorient  #important for SAPT in psi4, default
symmetry c1  #important for SAPT in psi4, default
}

set PROPERTIES_ORIGIN ["COM"]
properties('MP2/aug-cc-pvtz', properties = ['dipole'])
--------------------------------------------------------------------------

    Molecular point group: c1
  Charge       = 0
  Multiplicity = 1
  Basis Set: AUG-CC-PVTZ
    Blend: AUG-CC-PVTZ
  Basis Set: (AUG-CC-PVTZ AUX)
    Blend: AUG-CC-PVTZ-JKFIT

    Orbital Energies [Eh]
    ---------------------

    Doubly Occupied:

       1A    -20.585993     2A    -20.579011     3A    -20.573402
       4A    -20.572093     5A    -20.558060     6A    -11.355316
       7A    -11.300280     8A    -11.293253     9A    -11.285603
      10A    -11.277871    11A     -1.440460    12A     -1.390603
      13A     -1.370543    14A     -1.354998    15A     -1.345651
      16A     -1.061300    17A     -1.026072    18A     -0.900563
      19A     -0.872645    20A     -0.804041    21A     -0.752765
      22A     -0.730487    23A     -0.710286    24A     -0.695054
      25A     -0.670398    26A     -0.647493    27A     -0.621185
      28A     -0.613553    29A     -0.604440    30A     -0.584478
      31A     -0.571749    32A     -0.554584    33A     -0.544653
      34A     -0.517919    35A     -0.502293    36A     -0.491137
      37A     -0.489286    38A     -0.470711    39A     -0.441005
      40A     -0.416198

  @DF-RHF Final Energy:  -569.67226662784105

   => Energetics <=

    Nuclear Repulsion Energy =            632.8150136884893300
    One-Electron Energy =               -2039.8196924065782696
    Two-Electron Energy =                 837.3324120902479990
    Total Energy =                       -569.6722666278410543
  Basis Set: (AUG-CC-PVTZ AUX)
    Blend: AUG-CC-PVTZ-RI
    Molecular point group: c1

    Geometry (in Angstrom), charge = 0, multiplicity = 1:

       Center              X                  Y                   Z               Mass
    ------------   -----------------  -----------------  -----------------  -----------------
         O           -0.115361291638    -1.793381504917     0.451363633492    15.994914619570
         O            0.357837708362     1.400895495083    -1.028187366508    15.994914619570
         O           -1.955747291638     1.378237495083     0.465573633492    15.994914619570
         O            2.714223708362     0.457490495083    -0.209176366508    15.994914619570
         O           -1.677569991638    -0.842554104917    -1.004263766508    15.994914619570
         C            0.430999708362     1.020463495083     0.346237633492    12.000000000000
         C           -0.895402691638     0.460393395083     0.883469233492    12.000000000000
         C            1.533918708362    -0.021982504917     0.416893633492    12.000000000000
         C           -1.215734291638    -0.929530504917     0.336208633492    12.000000000000
         C            1.054378708362    -1.309788504917    -0.232160366508    12.000000000000
         H            0.703664708362     1.894364495083     0.957078633492     1.007825032230
         H           -0.882474291638     0.439181495083     1.931827633492     1.007825032230
         H            1.783184708362    -0.224719504917     1.464530633492     1.007825032230
         H           -1.994543291638    -1.389952504917     0.958262633492     1.007825032230
         H            0.843010708362    -1.140624504917    -1.293477366508     1.007825032230
         H            1.805322708362    -2.094476504917    -0.130022366508     1.007825032230
         H           -0.393643291638     2.019027495083    -1.087179366508     1.007825032230
         H           -2.342299291638     0.983608495083    -0.343583366508     1.007825032230
         H            2.399108708362     0.942207495083    -0.996312366508     1.007825032230
         H           -1.996233291638    -1.669348504917    -1.282004366508     1.007825032230

  Basis Set: AUG-CC-PVTZ
    Blend: AUG-CC-PVTZ
  Basis Set: (AUG-CC-PVTZ AUX)
    Blend: AUG-CC-PVTZ-JKFIT
	 Reference Energy          =    -569.6722666278410543 [Eh]
	 Singles Energy            =      -0.0000000000000000 [Eh]
	 Same-Spin Energy          =      -0.5536423404768269 [Eh]
	 Opposite-Spin Energy      =      -1.7023469238806634 [Eh]
	 Correlation Energy        =      -2.2559892643574901 [Eh]
	 Total Energy              =    -571.9282558921985355 [Eh]

	 ================> DF-SCS-MP2 Energies <==================
	-----------------------------------------------------------
	 SCS Same-Spin Scale       =       0.3333333333333333 [-]
	 SCS Opposite-Spin Scale   =       1.2000000000000000 [-]
	 SCS Same-Spin Energy      =      -0.1845474468256090 [Eh]
	 SCS Opposite-Spin Energy  =      -2.0428163086567959 [Eh]
	 SCS Correlation Energy    =      -2.2273637554824051 [Eh]
	 SCS Total Energy          =    -571.8996303833234833 [Eh]
	-----------------------------------------------------------

  Dipole Moment: [D]
     X:    -2.1110      Y:    -0.9433      Z:    -0.1956     Total:     2.3204

*** Psi4 exiting successfully. Buy a developer a beer!
