                               Psi4 1.3.2 release

  ==> Input File <==

--------------------------------------------------------------------------
#psi4
#
memory 32 gb

molecule  {
0 1
  O       -0.1147700    -1.8002930     0.4548730
  O        0.3584290     1.3939840    -1.0246780
  O       -1.9551560     1.3713260     0.4690830
  O        2.7148150     0.4505790    -0.2056670
  O       -1.6716310    -0.8002260    -0.9984850
  C        0.4315910     1.0135520     0.3497470
  C       -0.9093320     0.4742750     0.8400700
  C        1.5277074    -0.0236205     0.4114944
  C       -1.2151430    -0.9364420     0.3397180
  C        1.0549700    -1.3167000    -0.2286510
  H        0.7042560     1.8874530     0.9605880
  H       -0.8818830     0.4322700     1.9353370
  H        1.7837760    -0.2316310     1.4680400
  H       -1.9939520    -1.3968640     0.9617720
  H        0.8436020    -1.1475360    -1.2899680
  H        1.8059140    -2.1013880    -0.1265130
  H       -0.3930520     2.0121160    -1.0836700
  H       -2.3417080     0.9766970    -0.3400740
  H        2.3916588     0.9334152    -0.9906959
  H       -1.9956420    -1.6762600    -1.2784950
units angstrom
no_reorient  #important for SAPT in psi4, default
symmetry c1  #important for SAPT in psi4, default
}

set PROPERTIES_ORIGIN ["COM"]
properties('MP2/aug-cc-pvtz', properties = ['dipole'])
--------------------------------------------------------------------------

    Molecular point group: c1
  Charge       = 0
  Multiplicity = 1
  Basis Set: AUG-CC-PVTZ
    Blend: AUG-CC-PVTZ
  Basis Set: (AUG-CC-PVTZ AUX)
    Blend: AUG-CC-PVTZ-JKFIT

    Orbital Energies [Eh]
    ---------------------

    Doubly Occupied:

       1A    -20.591740     2A    -20.580861     3A    -20.574962
       4A    -20.571494     5A    -20.558748     6A    -11.354062
       7A    -11.298745     8A    -11.291073     9A    -11.285755
      10A    -11.278227    11A     -1.438931    12A     -1.392199
      13A     -1.376179    14A     -1.354186    15A     -1.348232
      16A     -1.060296    17A     -1.023126    18A     -0.899582
      19A     -0.869908    20A     -0.797694    21A     -0.752390
      22A     -0.728444    23A     -0.712377    24A     -0.696364
      25A     -0.669708    26A     -0.645837    27A     -0.621255
      28A     -0.614690    29A     -0.603116    30A     -0.583305
      31A     -0.572067    32A     -0.556866    33A     -0.542896
      34A     -0.516092    35A     -0.502834    36A     -0.491493
      37A     -0.487530    38A     -0.471555    39A     -0.441716
      40A     -0.416232

  @DF-RHF Final Energy:  -569.67400180555683

   => Energetics <=

    Nuclear Repulsion Energy =            634.0511809541120556
    One-Electron Energy =               -2042.3048329380737869
    Two-Electron Energy =                 838.5796501784050179
    Total Energy =                       -569.6740018055568271
  Basis Set: (AUG-CC-PVTZ AUX)
    Blend: AUG-CC-PVTZ-RI
    Molecular point group: c1

    Geometry (in Angstrom), charge = 0, multiplicity = 1:

       Center              X                  Y                   Z               Mass
    ------------   -----------------  -----------------  -----------------  -----------------
         O           -0.114172066979    -1.800702172770     0.455571378060    15.994914619570
         O            0.359026933021     1.393574827230    -1.023979621940    15.994914619570
         O           -1.954558066979     1.370916827230     0.469781378060    15.994914619570
         O            2.715412933021     0.450169827230    -0.204968621940    15.994914619570
         O           -1.671033066979    -0.800635172770    -0.997786621940    15.994914619570
         C            0.432188933021     1.013142827230     0.350445378060    12.000000000000
         C           -0.908734066979     0.473865827230     0.840768378060    12.000000000000
         C            1.528305333021    -0.024029672770     0.412192778060    12.000000000000
         C           -1.214545066979    -0.936851172770     0.340416378060    12.000000000000
         C            1.055567933021    -1.317109172770    -0.227952621940    12.000000000000
         H            0.704853933021     1.887043827230     0.961286378060     1.007825032230
         H           -0.881285066979     0.431860827230     1.936035378060     1.007825032230
         H            1.784373933021    -0.232040172770     1.468738378060     1.007825032230
         H           -1.993354066979    -1.397273172770     0.962470378060     1.007825032230
         H            0.844199933021    -1.147945172770    -1.289269621940     1.007825032230
         H            1.806511933021    -2.101797172770    -0.125814621940     1.007825032230
         H           -0.392454066979     2.011706827230    -1.082971621940     1.007825032230
         H           -2.341110066979     0.976287827230    -0.339375621940     1.007825032230
         H            2.392256733021     0.933006027230    -0.989997521940     1.007825032230
         H           -1.995044066979    -1.676669172770    -1.277796621940     1.007825032230

  Basis Set: AUG-CC-PVTZ
    Blend: AUG-CC-PVTZ
  Basis Set: (AUG-CC-PVTZ AUX)
    Blend: AUG-CC-PVTZ-JKFIT
	 Reference Energy          =    -569.6740018055568271 [Eh]
	 Singles Energy            =      -0.0000000000000000 [Eh]
	 Same-Spin Energy          =      -0.5547618344671953 [Eh]
	 Opposite-Spin Energy      =      -1.7041387846492004 [Eh]
	 Correlation Energy        =      -2.2589006191163956 [Eh]
	 Total Energy              =    -571.9329024246732160 [Eh]

	 ================> DF-SCS-MP2 Energies <==================
	-----------------------------------------------------------
	 SCS Same-Spin Scale       =       0.3333333333333333 [-]
	 SCS Opposite-Spin Scale   =       1.2000000000000000 [-]
	 SCS Same-Spin Energy      =      -0.1849206114890651 [Eh]
	 SCS Opposite-Spin Energy  =      -2.0449665415790403 [Eh]
	 SCS Correlation Energy    =      -2.2298871530681055 [Eh]
	 SCS Total Energy          =    -571.9038889586249752 [Eh]
	-----------------------------------------------------------

  Dipole Moment: [D]
     X:    -2.2053      Y:    -0.9892      Z:    -0.3051     Total:     2.4362

*** Psi4 exiting successfully. Buy a developer a beer!
