                               Psi4 1.3.2 release

  ==> Input File <==

--------------------------------------------------------------------------
#psi4
#
memory 32 gb

molecule  {
0 1
  O       -0.1147700    -1.8002930     0.4548730
  O        0.3584290     1.3939840    -1.0246780
  O       -1.9716860     1.3562108     0.4799688
  O        2.7148150     0.4505790    -0.2056670
  O       -1.6716310    -0.8002260    -0.9984850
  C        0.4437195     0.9922923     0.3602569
  C       -0.9093320     0.4742750     0.8400700
  C        1.5345100    -0.0288940     0.4204030
  C       -1.2151430    -0.9364420     0.3397180
  C        1.0549700    -1.3167000    -0.2286510
  H        0.7042560     1.8874530     0.9605880
  H       -0.8818830     0.4322700     1.9353370
  H        1.7837760    -0.2316310     1.4680400
  H       -1.9939520    -1.3968640     0.9617720
  H        0.8436020    -1.1475360    -1.2899680
  H        1.8059140    -2.1013880    -0.1265130
  H       -0.3930520     2.0121160    -1.0836700
  H       -2.3417080     0.9766970    -0.3400740
  H        2.3997000     0.9352960    -0.9928030
  H       -1.9956420    -1.6762600    -1.2784950
units angstrom
no_reorient  #important for SAPT in psi4, default
symmetry c1  #important for SAPT in psi4, default
}

set PROPERTIES_ORIGIN ["COM"]
properties('MP2/aug-cc-pvtz', properties = ['dipole'])
--------------------------------------------------------------------------

    Molecular point group: c1
  Charge       = 0
  Multiplicity = 1
  Basis Set: AUG-CC-PVTZ
    Blend: AUG-CC-PVTZ
  Basis Set: (AUG-CC-PVTZ AUX)
    Blend: AUG-CC-PVTZ-JKFIT

    Orbital Energies [Eh]
    ---------------------

    Doubly Occupied:

       1A    -20.591261     2A    -20.580819     3A    -20.575227
       4A    -20.569652     5A    -20.559288     6A    -11.353332
       7A    -11.299314     8A    -11.292705     9A    -11.286034
      10A    -11.278657    11A     -1.438669    12A     -1.388585
      13A     -1.376467    14A     -1.354046    15A     -1.345813
      16A     -1.063598    17A     -1.023830    18A     -0.899194
      19A     -0.871960    20A     -0.798562    21A     -0.752373
      22A     -0.726755    23A     -0.711309    24A     -0.697235
      25A     -0.669042    26A     -0.645734    27A     -0.620790
      28A     -0.613632    29A     -0.602780    30A     -0.585289
      31A     -0.572346    32A     -0.556165    33A     -0.540290
      34A     -0.516730    35A     -0.502310    36A     -0.490173
      37A     -0.488594    38A     -0.473877    39A     -0.443552
      40A     -0.415608

  @DF-RHF Final Energy:  -569.67349003807396

   => Energetics <=

    Nuclear Repulsion Energy =            633.8272060258397005
    One-Electron Energy =               -2041.8581979725074689
    Two-Electron Energy =                 838.3575019085936901
    Total Energy =                       -569.6734900380739646
  Basis Set: (AUG-CC-PVTZ AUX)
    Blend: AUG-CC-PVTZ-RI
    Molecular point group: c1

    Geometry (in Angstrom), charge = 0, multiplicity = 1:

       Center              X                  Y                   Z               Mass
    ------------   -----------------  -----------------  -----------------  -----------------
         O           -0.113978011211    -1.796981688187     0.452872222894    15.994914619570
         O            0.359220988789     1.397295311813    -1.026678777106    15.994914619570
         O           -1.970894011211     1.359522111813     0.477968022894    15.994914619570
         O            2.715606988789     0.453890311813    -0.207667777106    15.994914619570
         O           -1.670839011211    -0.796914688187    -1.000485777106    15.994914619570
         C            0.444511488789     0.995603611813     0.358256122894    12.000000000000
         C           -0.908540011211     0.477586311813     0.838069222894    12.000000000000
         C            1.535301988789    -0.025582688187     0.418402222894    12.000000000000
         C           -1.214351011211    -0.933130688187     0.337717222894    12.000000000000
         C            1.055761988789    -1.313388688187    -0.230651777106    12.000000000000
         H            0.705047988789     1.890764311813     0.958587222894     1.007825032230
         H           -0.881091011211     0.435581311813     1.933336222894     1.007825032230
         H            1.784567988789    -0.228319688187     1.466039222894     1.007825032230
         H           -1.993160011211    -1.393552688187     0.959771222894     1.007825032230
         H            0.844393988789    -1.144224688187    -1.291968777106     1.007825032230
         H            1.806705988789    -2.098076688187    -0.128513777106     1.007825032230
         H           -0.392260011211     2.015427311813    -1.085670777106     1.007825032230
         H           -2.340916011211     0.980008311813    -0.342074777106     1.007825032230
         H            2.400491988789     0.938607311813    -0.994803777106     1.007825032230
         H           -1.994850011211    -1.672948688187    -1.280495777106     1.007825032230

  Basis Set: AUG-CC-PVTZ
    Blend: AUG-CC-PVTZ
  Basis Set: (AUG-CC-PVTZ AUX)
    Blend: AUG-CC-PVTZ-JKFIT
	 Reference Energy          =    -569.6734900380739646 [Eh]
	 Singles Energy            =      -0.0000000000000000 [Eh]
	 Same-Spin Energy          =      -0.5547017931488816 [Eh]
	 Opposite-Spin Energy      =      -1.7041434451907658 [Eh]
	 Correlation Energy        =      -2.2588452383396476 [Eh]
	 Total Energy              =    -571.9323352764135961 [Eh]

	 ================> DF-SCS-MP2 Energies <==================
	-----------------------------------------------------------
	 SCS Same-Spin Scale       =       0.3333333333333333 [-]
	 SCS Opposite-Spin Scale   =       1.2000000000000000 [-]
	 SCS Same-Spin Energy      =      -0.1849005977162939 [Eh]
	 SCS Opposite-Spin Energy  =      -2.0449721342289187 [Eh]
	 SCS Correlation Energy    =      -2.2298727319452123 [Eh]
	 SCS Total Energy          =    -571.9033627700191573 [Eh]
	-----------------------------------------------------------

  Dipole Moment: [D]
     X:    -2.1293      Y:    -0.9944      Z:    -0.2819     Total:     2.3669

*** Psi4 exiting successfully. Buy a developer a beer!
