                               Psi4 1.3.2 release

  ==> Input File <==

--------------------------------------------------------------------------
#psi4
#
memory 32 gb

molecule  {
0 1
  O       -0.1147700    -1.8002930     0.4548730
  O        0.3584290     1.3939840    -1.0246780
  O       -1.9551560     1.3713260     0.4690830
  O        2.7148150     0.4505790    -0.2056670
  O       -1.6932420    -0.8104503    -0.9919241
  C        0.4315910     1.0135520     0.3497470
  C       -0.9093320     0.4742750     0.8400700
  C        1.5345100    -0.0288940     0.4204030
  C       -1.2151430    -0.9364420     0.3397180
  C        1.0549700    -1.3167000    -0.2286510
  H        0.7042560     1.8874530     0.9605880
  H       -0.8818830     0.4322700     1.9353370
  H        1.7837760    -0.2316310     1.4680400
  H       -2.0054093    -1.3977988     0.9464404
  H        0.8436020    -1.1475360    -1.2899680
  H        1.8059140    -2.1013880    -0.1265130
  H       -0.3930520     2.0121160    -1.0836700
  H       -2.3417080     0.9766970    -0.3400740
  H        2.3997000     0.9352960    -0.9928030
  H       -1.9956420    -1.6762600    -1.2784950
units angstrom
no_reorient  #important for SAPT in psi4, default
symmetry c1  #important for SAPT in psi4, default
}

set PROPERTIES_ORIGIN ["COM"]
properties('MP2/aug-cc-pvtz', properties = ['dipole'])
--------------------------------------------------------------------------

    Molecular point group: c1
  Charge       = 0
  Multiplicity = 1
  Basis Set: AUG-CC-PVTZ
    Blend: AUG-CC-PVTZ
  Basis Set: (AUG-CC-PVTZ AUX)
    Blend: AUG-CC-PVTZ-JKFIT

    Orbital Energies [Eh]
    ---------------------

    Doubly Occupied:

       1A    -20.589183     2A    -20.581462     3A    -20.574787
       4A    -20.571688     5A    -20.558611     6A    -11.353984
       7A    -11.299046     8A    -11.291469     9A    -11.286061
      10A    -11.278762    11A     -1.439264    12A     -1.391979
      13A     -1.376241    14A     -1.355624    15A     -1.348112
      16A     -1.059499    17A     -1.023462    18A     -0.899737
      19A     -0.870612    20A     -0.799488    21A     -0.752457
      22A     -0.729277    23A     -0.712154    24A     -0.696546
      25A     -0.670119    26A     -0.646995    27A     -0.621449
      28A     -0.614536    29A     -0.603505    30A     -0.585626
      31A     -0.571208    32A     -0.556719    33A     -0.543153
      34A     -0.516662    35A     -0.501678    36A     -0.491303
      37A     -0.488264    38A     -0.471939    39A     -0.440799
      40A     -0.416413

  @DF-RHF Final Energy:  -569.67551634853839

   => Energetics <=

    Nuclear Repulsion Energy =            633.5203497195979025
    One-Electron Energy =               -2041.2319942175738561
    Two-Electron Energy =                 838.0361281494376726
    Total Energy =                       -569.6755163485383946
  Basis Set: (AUG-CC-PVTZ AUX)
    Blend: AUG-CC-PVTZ-RI
    Molecular point group: c1

    Geometry (in Angstrom), charge = 0, multiplicity = 1:

       Center              X                  Y                   Z               Mass
    ------------   -----------------  -----------------  -----------------  -----------------
         O           -0.112389509845    -1.799196933495     0.454276706807    15.994914619570
         O            0.360809490155     1.395080066505    -1.025274293193    15.994914619570
         O           -1.952775509845     1.372422066505     0.468486706807    15.994914619570
         O            2.717195490155     0.451675066505    -0.206263293193    15.994914619570
         O           -1.690861509845    -0.809354233495    -0.992520393193    15.994914619570
         C            0.433971490155     1.014648066505     0.349150706807    12.000000000000
         C           -0.906951509845     0.475371066505     0.839473706807    12.000000000000
         C            1.536890490155    -0.027797933495     0.419806706807    12.000000000000
         C           -1.212762509845    -0.935345933495     0.339121706807    12.000000000000
         C            1.057350490155    -1.315603933495    -0.229247293193    12.000000000000
         H            0.706636490155     1.888549066505     0.959991706807     1.007825032230
         H           -0.879502509845     0.433366066505     1.934740706807     1.007825032230
         H            1.786156490155    -0.230534933495     1.467443706807     1.007825032230
         H           -2.003028809845    -1.396702733495     0.945844106807     1.007825032230
         H            0.845982490155    -1.146439933495    -1.290564293193     1.007825032230
         H            1.808294490155    -2.100291933495    -0.127109293193     1.007825032230
         H           -0.390671509845     2.013212066505    -1.084266293193     1.007825032230
         H           -2.339327509845     0.977793066505    -0.340670293193     1.007825032230
         H            2.402080490155     0.936392066505    -0.993399293193     1.007825032230
         H           -1.993261509845    -1.675163933495    -1.279091293193     1.007825032230

  Basis Set: AUG-CC-PVTZ
    Blend: AUG-CC-PVTZ
  Basis Set: (AUG-CC-PVTZ AUX)
    Blend: AUG-CC-PVTZ-JKFIT
	 Reference Energy          =    -569.6755163485383946 [Eh]
	 Singles Energy            =      -0.0000000000000000 [Eh]
	 Same-Spin Energy          =      -0.5543225568624637 [Eh]
	 Opposite-Spin Energy      =      -1.7032611490388359 [Eh]
	 Correlation Energy        =      -2.2575837059012995 [Eh]
	 Total Energy              =    -571.9331000544397057 [Eh]

	 ================> DF-SCS-MP2 Energies <==================
	-----------------------------------------------------------
	 SCS Same-Spin Scale       =       0.3333333333333333 [-]
	 SCS Opposite-Spin Scale   =       1.2000000000000000 [-]
	 SCS Same-Spin Energy      =      -0.1847741856208212 [Eh]
	 SCS Opposite-Spin Energy  =      -2.0439133788466028 [Eh]
	 SCS Correlation Energy    =      -2.2286875644674242 [Eh]
	 SCS Total Energy          =    -571.9042039130058583 [Eh]
	-----------------------------------------------------------

  Dipole Moment: [D]
     X:    -2.1245      Y:    -0.9759      Z:    -0.3016     Total:     2.3573

*** Psi4 exiting successfully. Buy a developer a beer!
