                               Psi4 1.3.2 release

  ==> Input File <==

--------------------------------------------------------------------------
#psi4
#
memory 32 gb

molecule  {
0 1
  O       -0.1147700    -1.8002930     0.4548730
  O        0.3584290     1.3939840    -1.0246780
  O       -1.9551560     1.3713260     0.4690830
  O        2.7148150     0.4505790    -0.2056670
  O       -1.6716310    -0.8002260    -0.9984850
  C        0.4322334     1.0121004     0.3232790
  C       -0.9093320     0.4742750     0.8400700
  C        1.5345100    -0.0288940     0.4204030
  C       -1.2151430    -0.9364420     0.3397180
  C        1.0549700    -1.3167000    -0.2286510
  H        0.7042560     1.8874530     0.9605880
  H       -0.8818830     0.4322700     1.9353370
  H        1.7969269    -0.2442708     1.4622904
  H       -1.9939520    -1.3968640     0.9617720
  H        0.8436020    -1.1475360    -1.2899680
  H        1.8059140    -2.1013880    -0.1265130
  H       -0.3930520     2.0121160    -1.0836700
  H       -2.3417080     0.9766970    -0.3400740
  H        2.3997000     0.9352960    -0.9928030
  H       -1.9956420    -1.6762600    -1.2784950
units angstrom
no_reorient  #important for SAPT in psi4, default
symmetry c1  #important for SAPT in psi4, default
}

set PROPERTIES_ORIGIN ["COM"]
properties('MP2/aug-cc-pvtz', properties = ['dipole'])
--------------------------------------------------------------------------

    Molecular point group: c1
  Charge       = 0
  Multiplicity = 1
  Basis Set: AUG-CC-PVTZ
    Blend: AUG-CC-PVTZ
  Basis Set: (AUG-CC-PVTZ AUX)
    Blend: AUG-CC-PVTZ-JKFIT

    Orbital Energies [Eh]
    ---------------------

    Doubly Occupied:

       1A    -20.591616     2A    -20.580520     3A    -20.574456
       4A    -20.574160     5A    -20.557809     6A    -11.353185
       7A    -11.297859     8A    -11.291587     9A    -11.284988
      10A    -11.277582    11A     -1.438922    12A     -1.397697
      13A     -1.375982    14A     -1.354032    15A     -1.350955
      16A     -1.056856    17A     -1.022582    18A     -0.897358
      19A     -0.868816    20A     -0.800652    21A     -0.753085
      22A     -0.727331    23A     -0.712221    24A     -0.697041
      25A     -0.672512    26A     -0.645925    27A     -0.620890
      28A     -0.616564    29A     -0.602840    30A     -0.584517
      31A     -0.571404    32A     -0.555535    33A     -0.545683
      34A     -0.517823    35A     -0.502235    36A     -0.491380
      37A     -0.487546    38A     -0.471496    39A     -0.438181
      40A     -0.412945

  @DF-RHF Final Energy:  -569.67428666678177

   => Energetics <=

    Nuclear Repulsion Energy =            634.1074209645114479
    One-Electron Energy =               -2042.4138810502374781
    Two-Electron Energy =                 838.6321734189442623
    Total Energy =                       -569.6742866667817680
  Basis Set: (AUG-CC-PVTZ AUX)
    Blend: AUG-CC-PVTZ-RI
    Molecular point group: c1

    Geometry (in Angstrom), charge = 0, multiplicity = 1:

       Center              X                  Y                   Z               Mass
    ------------   -----------------  -----------------  -----------------  -----------------
         O           -0.114909793377    -1.800092091683     0.457028404819    15.994914619570
         O            0.358289206623     1.394184908317    -1.022522595181    15.994914619570
         O           -1.955295793377     1.371526908317     0.471238404819    15.994914619570
         O            2.714675206623     0.450779908317    -0.203511595181    15.994914619570
         O           -1.671770793377    -0.800025091683    -0.996329595181    15.994914619570
         C            0.432093606623     1.012301308317     0.325434404819    12.000000000000
         C           -0.909471793377     0.474475908317     0.842225404819    12.000000000000
         C            1.534370206623    -0.028693091683     0.422558404819    12.000000000000
         C           -1.215282793377    -0.936241091683     0.341873404819    12.000000000000
         C            1.054830206623    -1.316499091683    -0.226495595181    12.000000000000
         H            0.704116206623     1.887653908317     0.962743404819     1.007825032230
         H           -0.882022793377     0.432470908317     1.937492404819     1.007825032230
         H            1.796787106623    -0.244069891683     1.464445804819     1.007825032230
         H           -1.994091793377    -1.396663091683     0.963927404819     1.007825032230
         H            0.843462206623    -1.147335091683    -1.287812595181     1.007825032230
         H            1.805774206623    -2.101187091683    -0.124357595181     1.007825032230
         H           -0.393191793377     2.012316908317    -1.081514595181     1.007825032230
         H           -2.341847793377     0.976897908317    -0.337918595181     1.007825032230
         H            2.399560206623     0.935496908317    -0.990647595181     1.007825032230
         H           -1.995781793377    -1.676059091683    -1.276339595181     1.007825032230

  Basis Set: AUG-CC-PVTZ
    Blend: AUG-CC-PVTZ
  Basis Set: (AUG-CC-PVTZ AUX)
    Blend: AUG-CC-PVTZ-JKFIT
	 Reference Energy          =    -569.6742866667817680 [Eh]
	 Singles Energy            =      -0.0000000000000000 [Eh]
	 Same-Spin Energy          =      -0.5546192705760795 [Eh]
	 Opposite-Spin Energy      =      -1.7035890705295529 [Eh]
	 Correlation Energy        =      -2.2582083411056324 [Eh]
	 Total Energy              =    -571.9324950078873826 [Eh]

	 ================> DF-SCS-MP2 Energies <==================
	-----------------------------------------------------------
	 SCS Same-Spin Scale       =       0.3333333333333333 [-]
	 SCS Opposite-Spin Scale   =       1.2000000000000000 [-]
	 SCS Same-Spin Energy      =      -0.1848730901920265 [Eh]
	 SCS Opposite-Spin Energy  =      -2.0443068846354633 [Eh]
	 SCS Correlation Energy    =      -2.2291799748274896 [Eh]
	 SCS Total Energy          =    -571.9034666416092705 [Eh]
	-----------------------------------------------------------

  Dipole Moment: [D]
     X:    -2.1879      Y:    -0.9797      Z:    -0.3695     Total:     2.4256

*** Psi4 exiting successfully. Buy a developer a beer!
