                               Psi4 1.3.2 release

  ==> Input File <==

--------------------------------------------------------------------------
#psi4
#
memory 32 gb

molecule  {
0 1
  O       -0.1147700    -1.8002930     0.4548730
  O        0.3584290     1.3939840    -1.0246780
  O       -1.9551560     1.3713260     0.4690830
  O        2.7148150     0.4505790    -0.2056670
  O       -1.6716310    -0.8002260    -0.9984850
  C        0.4315910     1.0135520     0.3497470
  C       -0.9093320     0.4742750     0.8400700
  C        1.5345100    -0.0288940     0.4204030
  C       -1.2151430    -0.9364420     0.3397180
  C        1.0549700    -1.3167000    -0.2286510
  H        0.7042560     1.8874530     0.9605880
  H       -0.8818830     0.4322700     1.9353370
  H        1.7837760    -0.2316310     1.4680400
  H       -1.9939520    -1.3968640     0.9617720
  H        0.8436020    -1.1475360    -1.2899680
  H        1.8059140    -2.1013880    -0.1265130
  H       -0.3930520     2.0121160    -1.0836700
  H       -2.3417080     0.9766970    -0.3400740
  H        2.3997000     0.9352960    -0.9928030
  H       -2.0288704    -1.7661002    -1.3072110
units angstrom
no_reorient  #important for SAPT in psi4, default
symmetry c1  #important for SAPT in psi4, default
}

set PROPERTIES_ORIGIN ["COM"]
properties('MP2/aug-cc-pvtz', properties = ['dipole'])
--------------------------------------------------------------------------

    Molecular point group: c1
  Charge       = 0
  Multiplicity = 1
  Basis Set: AUG-CC-PVTZ
    Blend: AUG-CC-PVTZ
  Basis Set: (AUG-CC-PVTZ AUX)
    Blend: AUG-CC-PVTZ-JKFIT

    Orbital Energies [Eh]
    ---------------------

    Doubly Occupied:

       1A    -20.598614     2A    -20.579782     3A    -20.574160
       4A    -20.570864     5A    -20.557882     6A    -11.352565
       7A    -11.298015     8A    -11.290622     9A    -11.285201
      10A    -11.277509    11A     -1.432208    12A     -1.390394
      13A     -1.374065    14A     -1.347417    15A     -1.342041
      16A     -1.058343    17A     -1.020254    18A     -0.895135
      19A     -0.868232    20A     -0.793886    21A     -0.745370
      22A     -0.724359    23A     -0.710770    24A     -0.691826
      25A     -0.668380    26A     -0.645306    27A     -0.614427
      28A     -0.613497    29A     -0.600369    30A     -0.583554
      31A     -0.569081    32A     -0.554794    33A     -0.542089
      34A     -0.515127    35A     -0.500163    36A     -0.490296
      37A     -0.486567    38A     -0.470377    39A     -0.439933
      40A     -0.415057

  @DF-RHF Final Energy:  -569.66104819473458

   => Energetics <=

    Nuclear Repulsion Energy =            633.1699232631957557
    One-Electron Energy =               -2040.6848772116957207
    Two-Electron Energy =                 837.8539057537655026
    Total Energy =                       -569.6610481947345761
  Basis Set: (AUG-CC-PVTZ AUX)
    Blend: AUG-CC-PVTZ-RI
    Molecular point group: c1

    Geometry (in Angstrom), charge = 0, multiplicity = 1:

       Center              X                  Y                   Z               Mass
    ------------   -----------------  -----------------  -----------------  -----------------
         O           -0.114546914370    -1.799689664763     0.455065963323    15.994914619570
         O            0.358652085630     1.394587335237    -1.024485036677    15.994914619570
         O           -1.954932914370     1.371929335237     0.469275963323    15.994914619570
         O            2.715038085630     0.451182335237    -0.205474036677    15.994914619570
         O           -1.671407914370    -0.799622664763    -0.998292036677    15.994914619570
         C            0.431814085630     1.014155335237     0.349939963323    12.000000000000
         C           -0.909108914370     0.474878335237     0.840262963323    12.000000000000
         C            1.534733085630    -0.028290664763     0.420595963323    12.000000000000
         C           -1.214919914370    -0.935838664763     0.339910963323    12.000000000000
         C            1.055193085630    -1.316096664763    -0.228458036677    12.000000000000
         H            0.704479085630     1.888056335237     0.960780963323     1.007825032230
         H           -0.881659914370     0.432873335237     1.935529963323     1.007825032230
         H            1.783999085630    -0.231027664763     1.468232963323     1.007825032230
         H           -1.993728914370    -1.396260664763     0.961964963323     1.007825032230
         H            0.843825085630    -1.146932664763    -1.289775036677     1.007825032230
         H            1.806137085630    -2.100784664763    -0.126320036677     1.007825032230
         H           -0.392828914370     2.012719335237    -1.083477036677     1.007825032230
         H           -2.341484914370     0.977300335237    -0.339881036677     1.007825032230
         H            2.399923085630     0.935899335237    -0.992610036677     1.007825032230
         H           -2.028647314370    -1.765496864763    -1.307018036677     1.007825032230

  Basis Set: AUG-CC-PVTZ
    Blend: AUG-CC-PVTZ
  Basis Set: (AUG-CC-PVTZ AUX)
    Blend: AUG-CC-PVTZ-JKFIT
	 Reference Energy          =    -569.6610481947345761 [Eh]
	 Singles Energy            =      -0.0000000000000000 [Eh]
	 Same-Spin Energy          =      -0.5558054960541030 [Eh]
	 Opposite-Spin Energy      =      -1.7071939149324380 [Eh]
	 Correlation Energy        =      -2.2629994109865410 [Eh]
	 Total Energy              =    -571.9240476057211708 [Eh]

	 ================> DF-SCS-MP2 Energies <==================
	-----------------------------------------------------------
	 SCS Same-Spin Scale       =       0.3333333333333333 [-]
	 SCS Opposite-Spin Scale   =       1.2000000000000000 [-]
	 SCS Same-Spin Energy      =      -0.1852684986847010 [Eh]
	 SCS Opposite-Spin Energy  =      -2.0486326979189253 [Eh]
	 SCS Correlation Energy    =      -2.2339011966036262 [Eh]
	 SCS Total Energy          =    -571.8949493913381730 [Eh]
	-----------------------------------------------------------

  Dipole Moment: [D]
     X:    -2.2258      Y:    -1.0761      Z:    -0.3437     Total:     2.4961

*** Psi4 exiting successfully. Buy a developer a beer!
