                               Psi4 1.3.2 release

  ==> Input File <==

--------------------------------------------------------------------------
#psi4
#
memory 32 gb

molecule  {
0 1
  O       -0.1147700    -1.8002930     0.4548730
  O        0.3584290     1.3939840    -1.0246780
  O       -1.9551560     1.3713260     0.4690830
  O        2.7148150     0.4505790    -0.2056670
  O       -1.6716310    -0.8002260    -0.9984850
  C        0.4315910     1.0135520     0.3497470
  C       -0.9093320     0.4742750     0.8400700
  C        1.5345100    -0.0288940     0.4204030
  C       -1.2935350    -0.8749002     0.3315142
  C        1.0549700    -1.3167000    -0.2286510
  H        0.7042560     1.8874530     0.9605880
  H       -0.8818830     0.4322700     1.9353370
  H        1.7837760    -0.2316310     1.4680400
  H       -1.9939520    -1.3968640     0.9617720
  H        0.8436020    -1.1475360    -1.2899680
  H        1.8059140    -2.1013880    -0.1265130
  H       -0.3930520     2.0121160    -1.0836700
  H       -2.3417080     0.9766970    -0.3400740
  H        2.3997000     0.9352960    -0.9928030
  H       -1.9956420    -1.6762600    -1.2784950
units angstrom
no_reorient  #important for SAPT in psi4, default
symmetry c1  #important for SAPT in psi4, default
}

set PROPERTIES_ORIGIN ["COM"]
properties('MP2/aug-cc-pvtz', properties = ['dipole'])
--------------------------------------------------------------------------

    Molecular point group: c1
  Charge       = 0
  Multiplicity = 1
  Basis Set: AUG-CC-PVTZ
    Blend: AUG-CC-PVTZ
  Basis Set: (AUG-CC-PVTZ AUX)
    Blend: AUG-CC-PVTZ-JKFIT

    Orbital Energies [Eh]
    ---------------------

    Doubly Occupied:

       1A    -20.601482     2A    -20.576630     3A    -20.572195
       4A    -20.566311     5A    -20.555663     6A    -11.356217
       7A    -11.301066     8A    -11.292808     9A    -11.282303
      10A    -11.270462    11A     -1.439633    12A     -1.392666
      13A     -1.372523    14A     -1.348161    15A     -1.340195
      16A     -1.059841    17A     -1.020062    18A     -0.902858
      19A     -0.866102    20A     -0.800678    21A     -0.760558
      22A     -0.730237    23A     -0.703412    24A     -0.698224
      25A     -0.670011    26A     -0.647100    27A     -0.615957
      28A     -0.610302    29A     -0.602170    30A     -0.582959
      31A     -0.576356    32A     -0.555281    33A     -0.541561
      34A     -0.516716    35A     -0.504535    36A     -0.488957
      37A     -0.482200    38A     -0.463504    39A     -0.442121
      40A     -0.414343

  @DF-RHF Final Energy:  -569.66503749938943

   => Energetics <=

    Nuclear Repulsion Energy =            633.3417941371560573
    One-Electron Energy =               -2040.9649430751924228
    Two-Electron Energy =                 837.9581114386469380
    Total Energy =                       -569.6650374993894275
  Basis Set: (AUG-CC-PVTZ AUX)
    Blend: AUG-CC-PVTZ-RI
    Molecular point group: c1

    Geometry (in Angstrom), charge = 0, multiplicity = 1:

       Center              X                  Y                   Z               Mass
    ------------   -----------------  -----------------  -----------------  -----------------
         O           -0.108500939586    -1.805214684443     0.455529166179    15.994914619570
         O            0.364698060414     1.389062315557    -1.024021833821    15.994914619570
         O           -1.948886939586     1.366404315557     0.469739166179    15.994914619570
         O            2.721084060414     0.445657315557    -0.205010833821    15.994914619570
         O           -1.665361939586    -0.805147684443    -0.997828833821    15.994914619570
         C            0.437860060414     1.008630315557     0.350403166179    12.000000000000
         C           -0.903062939586     0.469353315557     0.840726166179    12.000000000000
         C            1.540779060414    -0.033815684443     0.421059166179    12.000000000000
         C           -1.287265939586    -0.879821884443     0.332170366179    12.000000000000
         C            1.061239060414    -1.321621684443    -0.227994833821    12.000000000000
         H            0.710525060414     1.882531315557     0.961244166179     1.007825032230
         H           -0.875613939586     0.427348315557     1.935993166179     1.007825032230
         H            1.790045060414    -0.236552684443     1.468696166179     1.007825032230
         H           -1.987682939586    -1.401785684443     0.962428166179     1.007825032230
         H            0.849871060414    -1.152457684443    -1.289311833821     1.007825032230
         H            1.812183060414    -2.106309684443    -0.125856833821     1.007825032230
         H           -0.386782939586     2.007194315557    -1.083013833821     1.007825032230
         H           -2.335438939586     0.971775315557    -0.339417833821     1.007825032230
         H            2.405969060414     0.930374315557    -0.992146833821     1.007825032230
         H           -1.989372939586    -1.681181684443    -1.277838833821     1.007825032230

  Basis Set: AUG-CC-PVTZ
    Blend: AUG-CC-PVTZ
  Basis Set: (AUG-CC-PVTZ AUX)
    Blend: AUG-CC-PVTZ-JKFIT
	 Reference Energy          =    -569.6650374993894275 [Eh]
	 Singles Energy            =      -0.0000000000000000 [Eh]
	 Same-Spin Energy          =      -0.5551883138694663 [Eh]
	 Opposite-Spin Energy      =      -1.7054956918775885 [Eh]
	 Correlation Energy        =      -2.2606840057470547 [Eh]
	 Total Energy              =    -571.9257215051364938 [Eh]

	 ================> DF-SCS-MP2 Energies <==================
	-----------------------------------------------------------
	 SCS Same-Spin Scale       =       0.3333333333333333 [-]
	 SCS Opposite-Spin Scale   =       1.2000000000000000 [-]
	 SCS Same-Spin Energy      =      -0.1850627712898221 [Eh]
	 SCS Opposite-Spin Energy  =      -2.0465948302531061 [Eh]
	 SCS Correlation Energy    =      -2.2316576015429281 [Eh]
	 SCS Total Energy          =    -571.8966951009323338 [Eh]
	-----------------------------------------------------------

  Dipole Moment: [D]
     X:    -2.6055      Y:    -0.7651      Z:    -0.3928     Total:     2.7438

*** Psi4 exiting successfully. Buy a developer a beer!
