                               Psi4 1.3.2 release

  ==> Input File <==

--------------------------------------------------------------------------
#psi4
#
memory 32 gb

molecule  {
0 1
  O       -0.1147700    -1.8002930     0.4548730
  O        0.3584290     1.3939840    -1.0246780
  O       -1.9551560     1.3713260     0.4690830
  O        2.7148150     0.4505790    -0.2056670
  O       -1.6716310    -0.8002260    -0.9984850
  C        0.4315910     1.0135520     0.3497470
  C       -0.9093320     0.4742750     0.8400700
  C        1.5345100    -0.0288940     0.4204030
  C       -1.2151430    -0.9364420     0.3397180
  C        1.0549700    -1.3167000    -0.2286510
  H        0.7042560     1.8874530     0.9605880
  H       -0.8868900     0.4399322     1.7355466
  H        1.7837760    -0.2316310     1.4680400
  H       -1.9939520    -1.3968640     0.9617720
  H        0.8436020    -1.1475360    -1.2899680
  H        1.8059140    -2.1013880    -0.1265130
  H       -0.3930520     2.0121160    -1.0836700
  H       -2.3417080     0.9766970    -0.3400740
  H        2.3997000     0.9352960    -0.9928030
  H       -1.9956420    -1.6762600    -1.2784950
units angstrom
no_reorient  #important for SAPT in psi4, default
symmetry c1  #important for SAPT in psi4, default
}

set PROPERTIES_ORIGIN ["COM"]
properties('MP2/aug-cc-pvtz', properties = ['dipole'])
--------------------------------------------------------------------------

    Molecular point group: c1
  Charge       = 0
  Multiplicity = 1
  Basis Set: AUG-CC-PVTZ
    Blend: AUG-CC-PVTZ
  Basis Set: (AUG-CC-PVTZ AUX)
    Blend: AUG-CC-PVTZ-JKFIT

    Orbital Energies [Eh]
    ---------------------

    Doubly Occupied:

       1A    -20.590815     2A    -20.580909     3A    -20.572347
       4A    -20.570159     5A    -20.558234     6A    -11.352916
       7A    -11.290022     8A    -11.285818     9A    -11.278201
      10A    -11.273655    11A     -1.438428    12A     -1.390769
      13A     -1.375094    14A     -1.353635    15A     -1.347204
      16A     -1.067981    17A     -1.028092    18A     -0.899908
      19A     -0.882467    20A     -0.808032    21A     -0.753927
      22A     -0.729214    23A     -0.712365    24A     -0.695793
      25A     -0.674047    26A     -0.653133    27A     -0.621110
      28A     -0.613536    29A     -0.608500    30A     -0.587392
      31A     -0.573247    32A     -0.556453    33A     -0.544190
      34A     -0.520880    35A     -0.502340    36A     -0.490537
      37A     -0.490180    38A     -0.471684    39A     -0.441349
      40A     -0.415516

  @DF-RHF Final Energy:  -569.64195322881005

   => Energetics <=

    Nuclear Repulsion Energy =            635.1825782620032896
    One-Electron Energy =               -2044.4489013414261080
    Two-Electron Energy =                 839.6243698506127657
    Total Energy =                       -569.6419532288100527
  Basis Set: (AUG-CC-PVTZ AUX)
    Blend: AUG-CC-PVTZ-RI
    Molecular point group: c1

    Geometry (in Angstrom), charge = 0, multiplicity = 1:

       Center              X                  Y                   Z               Mass
    ------------   -----------------  -----------------  -----------------  -----------------
         O           -0.114736462509    -1.800344536542     0.456214979108    15.994914619570
         O            0.358462537491     1.393932463458    -1.023336020892    15.994914619570
         O           -1.955122462509     1.371274463458     0.470424979108    15.994914619570
         O            2.714848537491     0.450527463458    -0.204325020892    15.994914619570
         O           -1.671597462509    -0.800277536542    -0.997143020892    15.994914619570
         C            0.431624537491     1.013500463458     0.351088979108    12.000000000000
         C           -0.909298462509     0.474223463458     0.841411979108    12.000000000000
         C            1.534543537491    -0.028945536542     0.421744979108    12.000000000000
         C           -1.215109462509    -0.936493536542     0.341059979108    12.000000000000
         C            1.055003537491    -1.316751536542    -0.227309020892    12.000000000000
         H            0.704289537491     1.887401463458     0.961929979108     1.007825032230
         H           -0.886856462509     0.439880663458     1.736888579108     1.007825032230
         H            1.783809537491    -0.231682536542     1.469381979108     1.007825032230
         H           -1.993918462509    -1.396915536542     0.963113979108     1.007825032230
         H            0.843635537491    -1.147587536542    -1.288626020892     1.007825032230
         H            1.805947537491    -2.101439536542    -0.125171020892     1.007825032230
         H           -0.393018462509     2.012064463458    -1.082328020892     1.007825032230
         H           -2.341674462509     0.976645463458    -0.338732020892     1.007825032230
         H            2.399733537491     0.935244463458    -0.991461020892     1.007825032230
         H           -1.995608462509    -1.676311536542    -1.277153020892     1.007825032230

  Basis Set: AUG-CC-PVTZ
    Blend: AUG-CC-PVTZ
  Basis Set: (AUG-CC-PVTZ AUX)
    Blend: AUG-CC-PVTZ-JKFIT
	 Reference Energy          =    -569.6419532288100527 [Eh]
	 Singles Energy            =      -0.0000000000000000 [Eh]
	 Same-Spin Energy          =      -0.5544768354855607 [Eh]
	 Opposite-Spin Energy      =      -1.7030017195016869 [Eh]
	 Correlation Energy        =      -2.2574785549872476 [Eh]
	 Total Energy              =    -571.8994317837973540 [Eh]

	 ================> DF-SCS-MP2 Energies <==================
	-----------------------------------------------------------
	 SCS Same-Spin Scale       =       0.3333333333333333 [-]
	 SCS Opposite-Spin Scale   =       1.2000000000000000 [-]
	 SCS Same-Spin Energy      =      -0.1848256118285202 [Eh]
	 SCS Opposite-Spin Energy  =      -2.0436020634020240 [Eh]
	 SCS Correlation Energy    =      -2.2284276752305443 [Eh]
	 SCS Total Energy          =    -571.8703809040406441 [Eh]
	-----------------------------------------------------------

  Dipole Moment: [D]
     X:    -2.1505      Y:    -1.0197      Z:    -0.2498     Total:     2.3931

*** Psi4 exiting successfully. Buy a developer a beer!
