                               Psi4 1.3.2 release

  ==> Input File <==

--------------------------------------------------------------------------
#psi4
#
memory 32 gb

molecule  {
0 1
  O       -0.1147700    -1.8002930     0.4548730
  O        0.3584290     1.3939840    -1.0246780
  O       -1.9634611     1.3638023     0.4745120
  O        2.7148150     0.4505790    -0.2056670
  O       -1.6716310    -0.8002260    -0.9984850
  C        0.4377065     1.0029423     0.3549835
  C       -0.9093320     0.4742750     0.8400700
  C        1.5345100    -0.0288940     0.4204030
  C       -1.2151430    -0.9364420     0.3397180
  C        1.0549700    -1.3167000    -0.2286510
  H        0.7042560     1.8874530     0.9605880
  H       -0.8818830     0.4322700     1.9353370
  H        1.7837760    -0.2316310     1.4680400
  H       -1.9939520    -1.3968640     0.9617720
  H        0.8436020    -1.1475360    -1.2899680
  H        1.8059140    -2.1013880    -0.1265130
  H       -0.3930520     2.0121160    -1.0836700
  H       -2.3417080     0.9766970    -0.3400740
  H        2.3997000     0.9352960    -0.9928030
  H       -1.9956420    -1.6762600    -1.2784950
units angstrom
no_reorient  #important for SAPT in psi4, default
symmetry c1  #important for SAPT in psi4, default
}

set PROPERTIES_ORIGIN ["COM"]
properties('MP2/aug-cc-pvtz', properties = ['dipole'])
--------------------------------------------------------------------------

    Molecular point group: c1
  Charge       = 0
  Multiplicity = 1
  Basis Set: AUG-CC-PVTZ
    Blend: AUG-CC-PVTZ
  Basis Set: (AUG-CC-PVTZ AUX)
    Blend: AUG-CC-PVTZ-JKFIT

    Orbital Energies [Eh]
    ---------------------

    Doubly Occupied:

       1A    -20.591428     2A    -20.580786     3A    -20.574915
       4A    -20.570446     5A    -20.558777     6A    -11.353602
       7A    -11.298839     8A    -11.291852     9A    -11.285865
      10A    -11.278408    11A     -1.438692    12A     -1.389968
      13A     -1.376093    14A     -1.353999    15A     -1.346864
      16A     -1.061301    17A     -1.023414    18A     -0.898923
      19A     -0.871017    20A     -0.798474    21A     -0.752323
      22A     -0.727189    23A     -0.711638    24A     -0.696657
      25A     -0.669339    26A     -0.646001    27A     -0.620935
      28A     -0.613840    29A     -0.602876    30A     -0.584971
      31A     -0.572044    32A     -0.556112    33A     -0.541481
      34A     -0.516540    35A     -0.502481    36A     -0.490636
      37A     -0.488109    38A     -0.472767    39A     -0.442142
      40A     -0.415766

  @DF-RHF Final Energy:  -569.67427730032932

   => Energetics <=

    Nuclear Repulsion Energy =            633.8245322164672189
    One-Electron Energy =               -2041.8625991854955828
    Two-Electron Energy =                 838.3637896686991553
    Total Energy =                       -569.6742773003293223
  Basis Set: (AUG-CC-PVTZ AUX)
    Blend: AUG-CC-PVTZ-RI
    Molecular point group: c1

    Geometry (in Angstrom), charge = 0, multiplicity = 1:

       Center              X                  Y                   Z               Mass
    ------------   -----------------  -----------------  -----------------  -----------------
         O           -0.114373875626    -1.798642605913     0.453875615211    15.994914619570
         O            0.358825124374     1.395634394087    -1.025675384789    15.994914619570
         O           -1.963064975626     1.365452694087     0.473514615211    15.994914619570
         O            2.715211124374     0.452229394087    -0.206664384789    15.994914619570
         O           -1.671234875626    -0.798575605913    -0.999482384789    15.994914619570
         C            0.438102624374     1.004592694087     0.353986115211    12.000000000000
         C           -0.908935875626     0.475925394087     0.839072615211    12.000000000000
         C            1.534906124374    -0.027243605913     0.419405615211    12.000000000000
         C           -1.214746875626    -0.934791605913     0.338720615211    12.000000000000
         C            1.055366124374    -1.315049605913    -0.229648384789    12.000000000000
         H            0.704652124374     1.889103394087     0.959590615211     1.007825032230
         H           -0.881486875626     0.433920394087     1.934339615211     1.007825032230
         H            1.784172124374    -0.229980605913     1.467042615211     1.007825032230
         H           -1.993555875626    -1.395213605913     0.960774615211     1.007825032230
         H            0.843998124374    -1.145885605913    -1.290965384789     1.007825032230
         H            1.806310124374    -2.099737605913    -0.127510384789     1.007825032230
         H           -0.392655875626     2.013766394087    -1.084667384789     1.007825032230
         H           -2.341311875626     0.978347394087    -0.341071384789     1.007825032230
         H            2.400096124374     0.936946394087    -0.993800384789     1.007825032230
         H           -1.995245875626    -1.674609605913    -1.279492384789     1.007825032230

  Basis Set: AUG-CC-PVTZ
    Blend: AUG-CC-PVTZ
  Basis Set: (AUG-CC-PVTZ AUX)
    Blend: AUG-CC-PVTZ-JKFIT
	 Reference Energy          =    -569.6742773003293223 [Eh]
	 Singles Energy            =      -0.0000000000000000 [Eh]
	 Same-Spin Energy          =      -0.5546507322187912 [Eh]
	 Opposite-Spin Energy      =      -1.7040122892044918 [Eh]
	 Correlation Energy        =      -2.2586630214232830 [Eh]
	 Total Energy              =    -571.9329403217526533 [Eh]

	 ================> DF-SCS-MP2 Energies <==================
	-----------------------------------------------------------
	 SCS Same-Spin Scale       =       0.3333333333333333 [-]
	 SCS Opposite-Spin Scale   =       1.2000000000000000 [-]
	 SCS Same-Spin Energy      =      -0.1848835774062637 [Eh]
	 SCS Opposite-Spin Energy  =      -2.0448147470453901 [Eh]
	 SCS Correlation Energy    =      -2.2296983244516539 [Eh]
	 SCS Total Energy          =    -571.9039756247809692 [Eh]
	-----------------------------------------------------------

  Dipole Moment: [D]
     X:    -2.1552      Y:    -0.9941      Z:    -0.2907     Total:     2.3912

*** Psi4 exiting successfully. Buy a developer a beer!
