                               Psi4 1.3.2 release

  ==> Input File <==

--------------------------------------------------------------------------
#psi4
#
memory 32 gb

molecule  {
0 1
  O       -0.1147700    -1.8002930     0.4548730
  O        0.3584290     1.3939840    -1.0246780
  O       -1.9551560     1.3713260     0.4690830
  O        2.7148150     0.4505790    -0.2056670
  O       -1.6716310    -0.8002260    -0.9984850
  C        0.4217977     1.0208464     0.3522309
  C       -0.9093320     0.4742750     0.8400700
  C        1.5345100    -0.0288940     0.4204030
  C       -1.2151430    -0.9364420     0.3397180
  C        1.0549700    -1.3167000    -0.2286510
  H        0.7042560     1.8874530     0.9605880
  H       -0.8818830     0.4322700     1.9353370
  H        1.7837760    -0.2316310     1.4680400
  H       -1.9939520    -1.3968640     0.9617720
  H        0.8436020    -1.1475360    -1.2899680
  H        1.8059140    -2.1013880    -0.1265130
  H       -0.3943857     2.0112335    -1.0753147
  H       -2.3417080     0.9766970    -0.3400740
  H        2.3997000     0.9352960    -0.9928030
  H       -1.9956420    -1.6762600    -1.2784950
units angstrom
no_reorient  #important for SAPT in psi4, default
symmetry c1  #important for SAPT in psi4, default
}

set PROPERTIES_ORIGIN ["COM"]
properties('MP2/aug-cc-pvtz', properties = ['dipole'])
--------------------------------------------------------------------------

    Molecular point group: c1
  Charge       = 0
  Multiplicity = 1
  Basis Set: AUG-CC-PVTZ
    Blend: AUG-CC-PVTZ
  Basis Set: (AUG-CC-PVTZ AUX)
    Blend: AUG-CC-PVTZ-JKFIT

    Orbital Energies [Eh]
    ---------------------

    Doubly Occupied:

       1A    -20.591696     2A    -20.580732     3A    -20.574543
       4A    -20.571666     5A    -20.558243     6A    -11.354157
       7A    -11.298227     8A    -11.290719     9A    -11.285906
      10A    -11.278039    11A     -1.438811    12A     -1.391875
      13A     -1.375642    14A     -1.354007    15A     -1.347938
      16A     -1.058382    17A     -1.022882    18A     -0.898688
      19A     -0.869864    20A     -0.797904    21A     -0.752267
      22A     -0.728174    23A     -0.712176    24A     -0.696033
      25A     -0.669372    26A     -0.646350    27A     -0.621280
      28A     -0.613637    29A     -0.603397    30A     -0.584556
      31A     -0.571608    32A     -0.556072    33A     -0.543971
      34A     -0.515618    35A     -0.502815    36A     -0.491281
      37A     -0.487549    38A     -0.470618    39A     -0.440941
      40A     -0.416184

  @DF-RHF Final Energy:  -569.67428893900410

   => Energetics <=

    Nuclear Repulsion Energy =            633.7671864892548683
    One-Electron Energy =               -2041.7553154184961386
    Two-Electron Energy =                 838.3138399902370566
    Total Energy =                       -569.6742889390041000
  Basis Set: (AUG-CC-PVTZ AUX)
    Blend: AUG-CC-PVTZ-RI
    Molecular point group: c1

    Geometry (in Angstrom), charge = 0, multiplicity = 1:

       Center              X                  Y                   Z               Mass
    ------------   -----------------  -----------------  -----------------  -----------------
         O           -0.113977945916    -1.800870492906     0.454618333065    15.994914619570
         O            0.359221054084     1.393406507094    -1.024932666935    15.994914619570
         O           -1.954363945916     1.370748507094     0.468828333065    15.994914619570
         O            2.715607054084     0.450001507094    -0.205921666935    15.994914619570
         O           -1.670838945916    -0.800803492906    -0.998739666935    15.994914619570
         C            0.422589754084     1.020268907094     0.351976233065    12.000000000000
         C           -0.908539945916     0.473697507094     0.839815333065    12.000000000000
         C            1.535302054084    -0.029471492906     0.420148333065    12.000000000000
         C           -1.214350945916    -0.937019492906     0.339463333065    12.000000000000
         C            1.055762054084    -1.317277492906    -0.228905666935    12.000000000000
         H            0.705048054084     1.886875507094     0.960333333065     1.007825032230
         H           -0.881090945916     0.431692507094     1.935082333065     1.007825032230
         H            1.784568054084    -0.232208492906     1.467785333065     1.007825032230
         H           -1.993159945916    -1.397441492906     0.961517333065     1.007825032230
         H            0.844394054084    -1.148113492906    -1.290222666935     1.007825032230
         H            1.806706054084    -2.101965492906    -0.126767666935     1.007825032230
         H           -0.393593645916     2.010656007094    -1.075569366935     1.007825032230
         H           -2.340915945916     0.976119507094    -0.340328666935     1.007825032230
         H            2.400492054084     0.934718507094    -0.993057666935     1.007825032230
         H           -1.994849945916    -1.676837492906    -1.278749666935     1.007825032230

  Basis Set: AUG-CC-PVTZ
    Blend: AUG-CC-PVTZ
  Basis Set: (AUG-CC-PVTZ AUX)
    Blend: AUG-CC-PVTZ-JKFIT
	 Reference Energy          =    -569.6742889390041000 [Eh]
	 Singles Energy            =      -0.0000000000000000 [Eh]
	 Same-Spin Energy          =      -0.5546461130924889 [Eh]
	 Opposite-Spin Energy      =      -1.7040096795210138 [Eh]
	 Correlation Energy        =      -2.2586557926135029 [Eh]
	 Total Energy              =    -571.9329447316175674 [Eh]

	 ================> DF-SCS-MP2 Energies <==================
	-----------------------------------------------------------
	 SCS Same-Spin Scale       =       0.3333333333333333 [-]
	 SCS Opposite-Spin Scale   =       1.2000000000000000 [-]
	 SCS Same-Spin Energy      =      -0.1848820376974963 [Eh]
	 SCS Opposite-Spin Energy  =      -2.0448116154252163 [Eh]
	 SCS Correlation Energy    =      -2.2296936531227125 [Eh]
	 SCS Total Energy          =    -571.9039825921267948 [Eh]
	-----------------------------------------------------------

  Dipole Moment: [D]
     X:    -2.1862      Y:    -0.9916      Z:    -0.2889     Total:     2.4179

*** Psi4 exiting successfully. Buy a developer a beer!
