                               Psi4 1.3.2 release

  ==> Input File <==

--------------------------------------------------------------------------
#psi4
#
memory 32 gb

molecule  {
0 1
  O       -0.1147700    -1.8002930     0.4548730
  O        0.3584290     1.3939840    -1.0246780
  O       -1.9551560     1.3713260     0.4690830
  O        2.7148150     0.4505790    -0.2056670
  O       -1.6716310    -0.8002260    -0.9984850
  C        0.4315910     1.0135520     0.3497470
  C       -0.8552144     0.4810272     0.7815635
  C        1.5345100    -0.0288940     0.4204030
  C       -1.2151430    -0.9364420     0.3397180
  C        1.0549700    -1.3167000    -0.2286510
  H        0.7042560     1.8874530     0.9605880
  H       -0.8818830     0.4322700     1.9353370
  H        1.7837760    -0.2316310     1.4680400
  H       -1.9902170    -1.4439166     0.9289658
  H        0.8436020    -1.1475360    -1.2899680
  H        1.8059140    -2.1013880    -0.1265130
  H       -0.3930520     2.0121160    -1.0836700
  H       -2.3417080     0.9766970    -0.3400740
  H        2.3997000     0.9352960    -0.9928030
  H       -1.9956420    -1.6762600    -1.2784950
units angstrom
no_reorient  #important for SAPT in psi4, default
symmetry c1  #important for SAPT in psi4, default
}

set PROPERTIES_ORIGIN ["COM"]
properties('MP2/aug-cc-pvtz', properties = ['dipole'])
--------------------------------------------------------------------------

    Molecular point group: c1
  Charge       = 0
  Multiplicity = 1
  Basis Set: AUG-CC-PVTZ
    Blend: AUG-CC-PVTZ
  Basis Set: (AUG-CC-PVTZ AUX)
    Blend: AUG-CC-PVTZ-JKFIT

    Orbital Energies [Eh]
    ---------------------

    Doubly Occupied:

       1A    -20.589881     2A    -20.580064     3A    -20.573397
       4A    -20.571752     5A    -20.559984     6A    -11.355714
       7A    -11.301355     8A    -11.291123     9A    -11.287855
      10A    -11.278981    11A     -1.439349    12A     -1.393172
      13A     -1.373065    14A     -1.353058    15A     -1.347312
      16A     -1.070117    17A     -1.022672    18A     -0.901283
      19A     -0.872307    20A     -0.795784    21A     -0.754079
      22A     -0.730955    23A     -0.711695    24A     -0.693493
      25A     -0.673505    26A     -0.645328    27A     -0.622366
      28A     -0.616741    29A     -0.601156    30A     -0.581516
      31A     -0.570269    32A     -0.556745    33A     -0.539555
      34A     -0.511074    35A     -0.501195    36A     -0.491964
      37A     -0.484072    38A     -0.472903    39A     -0.451466
      40A     -0.418170

  @DF-RHF Final Energy:  -569.66483704446682

   => Energetics <=

    Nuclear Repulsion Energy =            635.0247475315507018
    One-Electron Energy =               -2044.2062235294199581
    Two-Electron Energy =                 839.5166389534024347
    Total Energy =                       -569.6648370444668217
  Basis Set: (AUG-CC-PVTZ AUX)
    Blend: AUG-CC-PVTZ-RI
    Molecular point group: c1

    Geometry (in Angstrom), charge = 0, multiplicity = 1:

       Center              X                  Y                   Z               Mass
    ------------   -----------------  -----------------  -----------------  -----------------
         O           -0.119123061784    -1.800517032163     0.459772307328    15.994914619570
         O            0.354075938216     1.393759967837    -1.019778692672    15.994914619570
         O           -1.959509061784     1.371101967837     0.473982307328    15.994914619570
         O            2.710461938216     0.450354967837    -0.200767692672    15.994914619570
         O           -1.675984061784    -0.800450032163    -0.993585692672    15.994914619570
         C            0.427237938216     1.013327967837     0.354646307328    12.000000000000
         C           -0.859567461784     0.480803167837     0.786462807328    12.000000000000
         C            1.530156938216    -0.029118032163     0.425302307328    12.000000000000
         C           -1.219496061784    -0.936666032163     0.344617307328    12.000000000000
         C            1.050616938216    -1.316924032163    -0.223751692672    12.000000000000
         H            0.699902938216     1.887228967837     0.965487307328     1.007825032230
         H           -0.886236061784     0.432045967837     1.940236307328     1.007825032230
         H            1.779422938216    -0.231855032163     1.472939307328     1.007825032230
         H           -1.994570061784    -1.444140632163     0.933865107328     1.007825032230
         H            0.839248938216    -1.147760032163    -1.285068692672     1.007825032230
         H            1.801560938216    -2.101612032163    -0.121613692672     1.007825032230
         H           -0.397405061784     2.011891967837    -1.078770692672     1.007825032230
         H           -2.346061061784     0.976472967837    -0.335174692672     1.007825032230
         H            2.395346938216     0.935071967837    -0.987903692672     1.007825032230
         H           -1.999995061784    -1.676484032163    -1.273595692672     1.007825032230

  Basis Set: AUG-CC-PVTZ
    Blend: AUG-CC-PVTZ
  Basis Set: (AUG-CC-PVTZ AUX)
    Blend: AUG-CC-PVTZ-JKFIT
	 Reference Energy          =    -569.6648370444668217 [Eh]
	 Singles Energy            =      -0.0000000000000000 [Eh]
	 Same-Spin Energy          =      -0.5555155492756303 [Eh]
	 Opposite-Spin Energy      =      -1.7055569416065519 [Eh]
	 Correlation Energy        =      -2.2610724908821824 [Eh]
	 Total Energy              =    -571.9259095353489784 [Eh]

	 ================> DF-SCS-MP2 Energies <==================
	-----------------------------------------------------------
	 SCS Same-Spin Scale       =       0.3333333333333333 [-]
	 SCS Opposite-Spin Scale   =       1.2000000000000000 [-]
	 SCS Same-Spin Energy      =      -0.1851718497585434 [Eh]
	 SCS Opposite-Spin Energy  =      -2.0466683299278623 [Eh]
	 SCS Correlation Energy    =      -2.2318401796864058 [Eh]
	 SCS Total Energy          =    -571.8966772241532226 [Eh]
	-----------------------------------------------------------

  Dipole Moment: [D]
     X:    -2.0525      Y:    -1.0352      Z:    -0.3500     Total:     2.3253

*** Psi4 exiting successfully. Buy a developer a beer!
