                               Psi4 1.3.2 release

  ==> Input File <==

--------------------------------------------------------------------------
#psi4
#
memory 32 gb

molecule  {
0 1
  O       -0.1147700    -1.8002930     0.4548730
  O        0.3584290     1.3939840    -1.0246780
  O       -1.9551560     1.3713260     0.4690830
  O        2.7148150     0.4505790    -0.2056670
  O       -1.6716310    -0.8002260    -0.9984850
  C        0.4315910     1.0135520     0.3497470
  C       -0.9093320     0.4742750     0.8400700
  C        1.6071063    -0.0975099     0.4250537
  C       -1.2151430    -0.9364420     0.3397180
  C        1.0549700    -1.3167000    -0.2286510
  H        0.7042560     1.8874530     0.9605880
  H       -0.8818830     0.4322700     1.9353370
  H        1.7837760    -0.2316310     1.4680400
  H       -1.9939520    -1.3968640     0.9617720
  H        0.8436020    -1.1475360    -1.2899680
  H        1.8059140    -2.1013880    -0.1265130
  H       -0.3930520     2.0121160    -1.0836700
  H       -2.3417080     0.9766970    -0.3400740
  H        2.3997000     0.9352960    -0.9928030
  H       -1.9956420    -1.6762600    -1.2784950
units angstrom
no_reorient  #important for SAPT in psi4, default
symmetry c1  #important for SAPT in psi4, default
}

set PROPERTIES_ORIGIN ["COM"]
properties('MP2/aug-cc-pvtz', properties = ['dipole'])
--------------------------------------------------------------------------

    Molecular point group: c1
  Charge       = 0
  Multiplicity = 1
  Basis Set: AUG-CC-PVTZ
    Blend: AUG-CC-PVTZ
  Basis Set: (AUG-CC-PVTZ AUX)
    Blend: AUG-CC-PVTZ-JKFIT

    Orbital Energies [Eh]
    ---------------------

    Doubly Occupied:

       1A    -20.591010     2A    -20.582385     3A    -20.572326
       4A    -20.569401     5A    -20.560456     6A    -11.352947
       7A    -11.295542     8A    -11.289825     9A    -11.287324
      10A    -11.277359    11A     -1.438314    12A     -1.390743
      13A     -1.378123    14A     -1.355932    15A     -1.350088
      16A     -1.047609    17A     -1.026816    18A     -0.895470
      19A     -0.867657    20A     -0.800637    21A     -0.753006
      22A     -0.724692    23A     -0.711308    24A     -0.695128
      25A     -0.671651    26A     -0.651223    27A     -0.625317
      28A     -0.612783    29A     -0.602650    30A     -0.590492
      31A     -0.573368    32A     -0.556179    33A     -0.542316
      34A     -0.511048    35A     -0.502369    36A     -0.490303
      37A     -0.489633    38A     -0.466432    39A     -0.429867
      40A     -0.413006

  @DF-RHF Final Energy:  -569.66710436618735

   => Energetics <=

    Nuclear Repulsion Energy =            632.7172270385542561
    One-Electron Energy =               -2039.6831923727288540
    Two-Electron Energy =                 837.2988609679872525
    Total Energy =                       -569.6671043661873455
  Basis Set: (AUG-CC-PVTZ AUX)
    Blend: AUG-CC-PVTZ-RI
    Molecular point group: c1

    Geometry (in Angstrom), charge = 0, multiplicity = 1:

       Center              X                  Y                   Z               Mass
    ------------   -----------------  -----------------  -----------------  -----------------
         O           -0.120575751367    -1.794805734019     0.454501168195    15.994914619570
         O            0.352623248633     1.399471265981    -1.025049831805    15.994914619570
         O           -1.960961751367     1.376813265981     0.468711168195    15.994914619570
         O            2.709009248633     0.456066265981    -0.206038831805    15.994914619570
         O           -1.677436751367    -0.794738734019    -0.998856831805    15.994914619570
         C            0.425785248633     1.019039265981     0.349375168195    12.000000000000
         C           -0.915137751367     0.479762265981     0.839698168195    12.000000000000
         C            1.601300548633    -0.092022634019     0.424681868195    12.000000000000
         C           -1.220948751367    -0.930954734019     0.339346168195    12.000000000000
         C            1.049164248633    -1.311212734019    -0.229022831805    12.000000000000
         H            0.698450248633     1.892940265981     0.960216168195     1.007825032230
         H           -0.887688751367     0.437757265981     1.934965168195     1.007825032230
         H            1.777970248633    -0.226143734019     1.467668168195     1.007825032230
         H           -1.999757751367    -1.391376734019     0.961400168195     1.007825032230
         H            0.837796248633    -1.142048734019    -1.290339831805     1.007825032230
         H            1.800108248633    -2.095900734019    -0.126884831805     1.007825032230
         H           -0.398857751367     2.017603265981    -1.084041831805     1.007825032230
         H           -2.347513751367     0.982184265981    -0.340445831805     1.007825032230
         H            2.393894248633     0.940783265981    -0.993174831805     1.007825032230
         H           -2.001447751367    -1.670772734019    -1.278866831805     1.007825032230

  Basis Set: AUG-CC-PVTZ
    Blend: AUG-CC-PVTZ
  Basis Set: (AUG-CC-PVTZ AUX)
    Blend: AUG-CC-PVTZ-JKFIT
	 Reference Energy          =    -569.6671043661873455 [Eh]
	 Singles Energy            =      -0.0000000000000000 [Eh]
	 Same-Spin Energy          =      -0.5545473325391959 [Eh]
	 Opposite-Spin Energy      =      -1.7035125969940454 [Eh]
	 Correlation Energy        =      -2.2580599295332413 [Eh]
	 Total Energy              =    -571.9251642957206059 [Eh]

	 ================> DF-SCS-MP2 Energies <==================
	-----------------------------------------------------------
	 SCS Same-Spin Scale       =       0.3333333333333333 [-]
	 SCS Opposite-Spin Scale   =       1.2000000000000000 [-]
	 SCS Same-Spin Energy      =      -0.1848491108463986 [Eh]
	 SCS Opposite-Spin Energy  =      -2.0442151163928544 [Eh]
	 SCS Correlation Energy    =      -2.2290642272392529 [Eh]
	 SCS Total Energy          =    -571.8961685934266370 [Eh]
	-----------------------------------------------------------

  Dipole Moment: [D]
     X:    -2.0149      Y:    -1.0397      Z:    -0.3229     Total:     2.2902

*** Psi4 exiting successfully. Buy a developer a beer!
