                               Psi4 1.4a3.dev225

  ==> Input File <==

--------------------------------------------------------------------------
#psi4
#
memory 32 gb

molecule  {
0 1
  O       -0.2343850     1.7978400    -0.4145210
  O        0.4791390    -1.3900560     0.9851260
  O       -1.8902550    -1.4798720    -0.4079610
  O        2.7489250    -0.2990660     0.0843650
  O       -1.6766260     0.6849030     1.0797040
  C        0.4758930    -0.9871420    -0.3839460
  C       -0.9153110    -0.5160320    -0.8112700
  C        1.5148540     0.1205520    -0.4811210
  C       -1.2654471     0.8770476    -0.3201175
  C        0.9914930     1.3693070     0.2124490
  H        0.7732420    -1.8350180    -1.0199460
  H       -0.9367810    -0.4539690    -1.9062570
  H        1.7061480     0.3550680    -1.5342930
  H       -2.1075740     1.2945610    -0.8542440
  H        0.8333730     1.1741050     1.2776920
  H        1.6908660     2.1982840     0.0933200
  H       -0.2684360    -2.0097880     1.0741120
  H       -2.2907410    -1.1048270     0.4011470
  H        2.5001980    -0.8049050     0.8819700
  H       -2.0397460     1.5332780     1.3914430
units angstrom
no_reorient  #important for SAPT in psi4, default
symmetry c1  #important for SAPT in psi4, default
}

set PROPERTIES_ORIGIN ["COM"]
properties('MP2/aug-cc-pvtz', properties = ['dipole'])
--------------------------------------------------------------------------

    Molecular point group: c1
  Charge       = 0
  Multiplicity = 1
  Basis Set: AUG-CC-PVTZ
    Blend: AUG-CC-PVTZ
  Basis Set: (AUG-CC-PVTZ AUX)
    Blend: AUG-CC-PVTZ-JKFIT

    Orbital Energies [Eh]
    ---------------------

    Doubly Occupied:

       1A    -20.585146     2A    -20.582700     3A    -20.575920
       4A    -20.570049     5A    -20.559733     6A    -11.355746
       7A    -11.300402     8A    -11.292350     9A    -11.287720
      10A    -11.281135    11A     -1.434735    12A     -1.391572
      13A     -1.375089    14A     -1.348225    15A     -1.344217
      16A     -1.060356    17A     -1.027655    18A     -0.900114
      19A     -0.872767    20A     -0.796004    21A     -0.750184
      22A     -0.725468    23A     -0.713810    24A     -0.693431
      25A     -0.666736    26A     -0.647218    27A     -0.619135
      28A     -0.617423    29A     -0.600734    30A     -0.584229
      31A     -0.568889    32A     -0.557902    33A     -0.542683
      34A     -0.516444    35A     -0.503166    36A     -0.493082
      37A     -0.485302    38A     -0.471348    39A     -0.442652
      40A     -0.418701

  @DF-RHF Final Energy:  -569.67203383927540

   => Energetics <=

    Nuclear Repulsion Energy =            632.9156930129285001
    One-Electron Energy =               -2040.0551099030760724
    Two-Electron Energy =                 837.4673830508720584
    Total Energy =                       -569.6720338392754002
  Basis Set: (AUG-CC-PVTZ AUX)
    Blend: AUG-CC-PVTZ-RI
    Molecular point group: c1

    Geometry (in Angstrom), charge = 0, multiplicity = 1:

       Center              X                  Y                   Z               Mass
    ------------   -----------------  -----------------  -----------------  -----------------
         O           -0.236443765271     1.799587600022    -0.411961986773    15.994914619570
         O            0.477080234729    -1.388308399978     0.987685013227    15.994914619570
         O           -1.892313765271    -1.478124399978    -0.405401986773    15.994914619570
         O            2.746866234729    -0.297318399978     0.086924013227    15.994914619570
         O           -1.678684765271     0.686650600022     1.082263013227    15.994914619570
         C            0.473834234729    -0.985394399978    -0.381386986773    12.000000000000
         C           -0.917369765271    -0.514284399978    -0.808710986773    12.000000000000
         C            1.512795234729     0.122299600022    -0.478561986773    12.000000000000
         C           -1.267505865271     0.878795200022    -0.317558486773    12.000000000000
         C            0.989434234729     1.371054600022     0.215008013227    12.000000000000
         H            0.771183234729    -1.833270399978    -1.017386986773     1.007825032230
         H           -0.938839765271    -0.452221399978    -1.903697986773     1.007825032230
         H            1.704089234729     0.356815600022    -1.531733986773     1.007825032230
         H           -2.109632765271     1.296308600022    -0.851684986773     1.007825032230
         H            0.831314234729     1.175852600022     1.280251013227     1.007825032230
         H            1.688807234729     2.200031600022     0.095879013227     1.007825032230
         H           -0.270494765271    -2.008040399978     1.076671013227     1.007825032230
         H           -2.292799765271    -1.103079399978     0.403706013227     1.007825032230
         H            2.498139234729    -0.803157399978     0.884529013227     1.007825032230
         H           -2.041804765271     1.535025600022     1.394002013227     1.007825032230

  Basis Set: AUG-CC-PVTZ
    Blend: AUG-CC-PVTZ
  Basis Set: (AUG-CC-PVTZ AUX)
    Blend: AUG-CC-PVTZ-JKFIT
	 Reference Energy          =    -569.6720338392754002 [Eh]
	 Singles Energy            =      -0.0000000000000000 [Eh]
	 Same-Spin Energy          =      -0.5546443060323889 [Eh]
	 Opposite-Spin Energy      =      -1.7044670242289743 [Eh]
	 Correlation Energy        =      -2.2591113302613630 [Eh]
	 Total Energy              =    -571.9311451695367623 [Eh]

	 ================> DF-SCS-MP2 Energies <==================
	-----------------------------------------------------------
	 SCS Same-Spin Scale       =       0.3333333333333333 [-]
	 SCS Opposite-Spin Scale   =       1.2000000000000000 [-]
	 SCS Same-Spin Energy      =      -0.1848814353441296 [Eh]
	 SCS Opposite-Spin Energy  =      -2.0453604290747691 [Eh]
	 SCS Correlation Energy    =      -2.2302418644188986 [Eh]
	 SCS Total Energy          =    -571.9022757036942721 [Eh]
	-----------------------------------------------------------

  Dipole Moment: [D]
     X:    -2.1389      Y:     0.9922      Z:     0.1950     Total:     2.3659

*** Psi4 exiting successfully. Buy a developer a beer!
