                               Psi4 1.4a3.dev225

  ==> Input File <==

--------------------------------------------------------------------------
#psi4
#
memory 32 gb

molecule  {
0 1
  O       -0.2343850     1.7978400    -0.4145210
  O        0.4791390    -1.3900560     0.9851260
  O       -1.8902550    -1.4798720    -0.4079610
  O        2.7489250    -0.2990660     0.0843650
  O       -1.6766260     0.6849030     1.0797040
  C        0.4758930    -0.9871420    -0.3839460
  C       -0.9153110    -0.5160320    -0.8112700
  C        1.5148540     0.1205520    -0.4811210
  C       -1.2794180     0.8705190    -0.2725550
  C        0.9914930     1.3693070     0.2124490
  H        0.7732420    -1.8350180    -1.0199460
  H       -0.9367810    -0.4539690    -1.9062570
  H        1.7061480     0.3550680    -1.5342930
  H       -2.1075740     1.2945610    -0.8542440
  H        0.8333730     1.1741050     1.2776920
  H        1.6908660     2.1982840     0.0933200
  H       -0.2684360    -2.0097880     1.0741120
  H       -2.2907410    -1.1048270     0.4011470
  H        2.5001980    -0.8049050     0.8819700
  H       -2.0322901     1.5158585     1.3850421
units angstrom
no_reorient  #important for SAPT in psi4, default
symmetry c1  #important for SAPT in psi4, default
}

set PROPERTIES_ORIGIN ["COM"]
properties('MP2/aug-cc-pvtz', properties = ['dipole'])
--------------------------------------------------------------------------

    Molecular point group: c1
  Charge       = 0
  Multiplicity = 1
  Basis Set: AUG-CC-PVTZ
    Blend: AUG-CC-PVTZ
  Basis Set: (AUG-CC-PVTZ AUX)
    Blend: AUG-CC-PVTZ-JKFIT

    Orbital Energies [Eh]
    ---------------------

    Doubly Occupied:

       1A    -20.590417     2A    -20.581417     3A    -20.575358
       4A    -20.570133     5A    -20.558739     6A    -11.355179
       7A    -11.299777     8A    -11.291311     9A    -11.286357
      10A    -11.278996    11A     -1.439993    12A     -1.391234
      13A     -1.376014    14A     -1.356332    15A     -1.347533
      16A     -1.058096    17A     -1.023350    18A     -0.899467
      19A     -0.870630    20A     -0.799183    21A     -0.753882
      22A     -0.727577    23A     -0.712522    24A     -0.696664
      25A     -0.668179    26A     -0.647576    27A     -0.622139
      28A     -0.614788    29A     -0.601850    30A     -0.584805
      31A     -0.572996    32A     -0.556866    33A     -0.543082
      34A     -0.515986    35A     -0.503558    36A     -0.490770
      37A     -0.487825    38A     -0.471392    39A     -0.441229
      40A     -0.416180

  @DF-RHF Final Energy:  -569.67539429157750

   => Energetics <=

    Nuclear Repulsion Energy =            633.2897674733612803
    One-Electron Energy =               -2040.7715653763871160
    Two-Electron Energy =                 837.8064036114483315
    Total Energy =                       -569.6753942915775042
  Basis Set: (AUG-CC-PVTZ AUX)
    Blend: AUG-CC-PVTZ-RI
    Molecular point group: c1

    Geometry (in Angstrom), charge = 0, multiplicity = 1:

       Center              X                  Y                   Z               Mass
    ------------   -----------------  -----------------  -----------------  -----------------
         O           -0.235376564043     1.800226701679    -0.415722655849    15.994914619570
         O            0.478147435957    -1.387669298321     0.983924344151    15.994914619570
         O           -1.891246564043    -1.477485298321    -0.409162655849    15.994914619570
         O            2.747933435957    -0.296679298321     0.083163344151    15.994914619570
         O           -1.677617564043     0.687289701679     1.078502344151    15.994914619570
         C            0.474901435957    -0.984755298321    -0.385147655849    12.000000000000
         C           -0.916302564043    -0.513645298321    -0.812471655849    12.000000000000
         C            1.513862435957     0.122938701679    -0.482322655849    12.000000000000
         C           -1.280409564043     0.872905701679    -0.273756655849    12.000000000000
         C            0.990501435957     1.371693701679     0.211247344151    12.000000000000
         H            0.772250435957    -1.832631298321    -1.021147655849     1.007825032230
         H           -0.937772564043    -0.451582298321    -1.907458655849     1.007825032230
         H            1.705156435957     0.357454701679    -1.535494655849     1.007825032230
         H           -2.108565564043     1.296947701679    -0.855445655849     1.007825032230
         H            0.832381435957     1.176491701679     1.276490344151     1.007825032230
         H            1.689874435957     2.200670701679     0.092118344151     1.007825032230
         H           -0.269427564043    -2.007401298321     1.072910344151     1.007825032230
         H           -2.291732564043    -1.102440298321     0.399945344151     1.007825032230
         H            2.499206435957    -0.802518298321     0.880768344151     1.007825032230
         H           -2.033281664043     1.518245201679     1.383840444151     1.007825032230

  Basis Set: AUG-CC-PVTZ
    Blend: AUG-CC-PVTZ
  Basis Set: (AUG-CC-PVTZ AUX)
    Blend: AUG-CC-PVTZ-JKFIT
	 Reference Energy          =    -569.6753942915775042 [Eh]
	 Singles Energy            =      -0.0000000000000000 [Eh]
	 Same-Spin Energy          =      -0.5542769862134106 [Eh]
	 Opposite-Spin Energy      =      -1.7033476746890257 [Eh]
	 Correlation Energy        =      -2.2576246609024362 [Eh]
	 Total Energy              =    -571.9330189524799835 [Eh]

	 ================> DF-SCS-MP2 Energies <==================
	-----------------------------------------------------------
	 SCS Same-Spin Scale       =       0.3333333333333333 [-]
	 SCS Opposite-Spin Scale   =       1.2000000000000000 [-]
	 SCS Same-Spin Energy      =      -0.1847589954044702 [Eh]
	 SCS Opposite-Spin Energy  =      -2.0440172096268308 [Eh]
	 SCS Correlation Energy    =      -2.2287762050313011 [Eh]
	 SCS Total Energy          =    -571.9041704966087991 [Eh]
	-----------------------------------------------------------

  Dipole Moment: [D]
     X:    -2.2842      Y:     0.9493      Z:     0.3872     Total:     2.5037

*** Psi4 exiting successfully. Buy a developer a beer!
