                               Psi4 1.3.2 release

  ==> Input File <==

--------------------------------------------------------------------------
#psi4
#
memory 32 gb

molecule  {
0 1
  O       -0.1147700    -1.8002930     0.4548730
  O        0.3584290     1.3939840    -1.0246780
  O       -1.9551560     1.3713260     0.4690830
  O        2.7476206     0.3860580    -0.1888222
  O       -1.6716310    -0.8002260    -0.9984850
  C        0.3841492     0.9629630     0.3886882
  C       -0.9093320     0.4742750     0.8400700
  C        1.5345100    -0.0288940     0.4204030
  C       -1.2151430    -0.9364420     0.3397180
  C        1.0549700    -1.3167000    -0.2286510
  H        0.7042560     1.8874530     0.9605880
  H       -0.8818830     0.4322700     1.9353370
  H        1.7837760    -0.2316310     1.4680400
  H       -1.9939520    -1.3968640     0.9617720
  H        0.8436020    -1.1475360    -1.2899680
  H        1.8059140    -2.1013880    -0.1265130
  H       -0.3930520     2.0121160    -1.0836700
  H       -2.3417080     0.9766970    -0.3400740
  H        2.3997000     0.9352960    -0.9928030
  H       -1.9956420    -1.6762600    -1.2784950
units angstrom
no_reorient  #important for SAPT in psi4, default
symmetry c1  #important for SAPT in psi4, default
}

set PROPERTIES_ORIGIN ["COM"]
properties('MP2/aug-cc-pvtz', properties = ['dipole'])
--------------------------------------------------------------------------

    Molecular point group: c1
  Charge       = 0
  Multiplicity = 1
  Basis Set: AUG-CC-PVTZ
    Blend: AUG-CC-PVTZ
  Basis Set: (AUG-CC-PVTZ AUX)
    Blend: AUG-CC-PVTZ-JKFIT

    Orbital Energies [Eh]
    ---------------------

    Doubly Occupied:

       1A    -20.592427     2A    -20.580815     3A    -20.577413
       4A    -20.567993     5A    -20.566888     6A    -11.355101
       7A    -11.299771     8A    -11.295727     9A    -11.286983
      10A    -11.276627    11A     -1.439767    12A     -1.386035
      13A     -1.371440    14A     -1.353362    15A     -1.338080
      16A     -1.072721    17A     -1.024225    18A     -0.897812
      19A     -0.874715    20A     -0.794343    21A     -0.752465
      22A     -0.723858    23A     -0.712555    24A     -0.697499
      25A     -0.665038    26A     -0.640702    27A     -0.621198
      28A     -0.608794    29A     -0.604612    30A     -0.582558
      31A     -0.572839    32A     -0.556788    33A     -0.539853
      34A     -0.511728    35A     -0.502713    36A     -0.489520
      37A     -0.487090    38A     -0.470308    39A     -0.456005
      40A     -0.413109

  @DF-RHF Final Energy:  -569.65751435445088

   => Energetics <=

    Nuclear Repulsion Energy =            633.7083247402885036
    One-Electron Energy =               -2041.6087295194072340
    Two-Electron Energy =                 838.2428904246677348
    Total Energy =                       -569.6575143544508819
  Basis Set: (AUG-CC-PVTZ AUX)
    Blend: AUG-CC-PVTZ-RI
    Molecular point group: c1

    Geometry (in Angstrom), charge = 0, multiplicity = 1:

       Center              X                  Y                   Z               Mass
    ------------   -----------------  -----------------  -----------------  -----------------
         O           -0.114473004294    -1.789369747760     0.449963318641    15.994914619570
         O            0.358725995706     1.404907252240    -1.029587681359    15.994914619570
         O           -1.954859004294     1.382249252240     0.464173318641    15.994914619570
         O            2.747917595706     0.396981252240    -0.193731881359    15.994914619570
         O           -1.671334004294    -0.789302747760    -1.003394681359    15.994914619570
         C            0.384446195706     0.973886252240     0.383778518641    12.000000000000
         C           -0.909035004294     0.485198252240     0.835160318641    12.000000000000
         C            1.534806995706    -0.017970747760     0.415493318641    12.000000000000
         C           -1.214846004294    -0.925518747760     0.334808318641    12.000000000000
         C            1.055266995706    -1.305776747760    -0.233560681359    12.000000000000
         H            0.704552995706     1.898376252240     0.955678318641     1.007825032230
         H           -0.881586004294     0.443193252240     1.930427318641     1.007825032230
         H            1.784072995706    -0.220707747760     1.463130318641     1.007825032230
         H           -1.993655004294    -1.385940747760     0.956862318641     1.007825032230
         H            0.843898995706    -1.136612747760    -1.294877681359     1.007825032230
         H            1.806210995706    -2.090464747760    -0.131422681359     1.007825032230
         H           -0.392755004294     2.023039252240    -1.088579681359     1.007825032230
         H           -2.341411004294     0.987620252240    -0.344983681359     1.007825032230
         H            2.399996995706     0.946219252240    -0.997712681359     1.007825032230
         H           -1.995345004294    -1.665336747760    -1.283404681359     1.007825032230

  Basis Set: AUG-CC-PVTZ
    Blend: AUG-CC-PVTZ
  Basis Set: (AUG-CC-PVTZ AUX)
    Blend: AUG-CC-PVTZ-JKFIT
	 Reference Energy          =    -569.6575143544508819 [Eh]
	 Singles Energy            =      -0.0000000000000000 [Eh]
	 Same-Spin Energy          =      -0.5564400136855652 [Eh]
	 Opposite-Spin Energy      =      -1.7079737654353209 [Eh]
	 Correlation Energy        =      -2.2644137791208863 [Eh]
	 Total Energy              =    -571.9219281335717824 [Eh]

	 ================> DF-SCS-MP2 Energies <==================
	-----------------------------------------------------------
	 SCS Same-Spin Scale       =       0.3333333333333333 [-]
	 SCS Opposite-Spin Scale   =       1.2000000000000000 [-]
	 SCS Same-Spin Energy      =      -0.1854800045618550 [Eh]
	 SCS Opposite-Spin Energy  =      -2.0495685185223849 [Eh]
	 SCS Correlation Energy    =      -2.2350485230842398 [Eh]
	 SCS Total Energy          =    -571.8925628775351697 [Eh]
	-----------------------------------------------------------

  Dipole Moment: [D]
     X:    -2.2569      Y:    -0.9542      Z:    -0.2204     Total:     2.4602

*** Psi4 exiting successfully. Buy a developer a beer!
