                               Psi4 1.3.2 release

  ==> Input File <==

--------------------------------------------------------------------------
#psi4
#
memory 32 gb

molecule  {
0 1
  O       -0.1147700    -1.8002930     0.4548730
  O        0.3584290     1.3939840    -1.0246780
  O       -1.9551560     1.3713260     0.4690830
  O        2.7148150     0.4505790    -0.2056670
  O       -1.6716310    -0.8002260    -0.9984850
  C        0.4315910     1.0135520     0.3497470
  C       -0.9093320     0.4742750     0.8400700
  C        1.5345100    -0.0288940     0.4204030
  C       -1.3719269    -0.8133583     0.3233104
  C        1.0549700    -1.3167000    -0.2286510
  H        0.7042560     1.8874530     0.9605880
  H       -0.8818830     0.4322700     1.9353370
  H        1.7837760    -0.2316310     1.4680400
  H       -1.9939520    -1.3968640     0.9617720
  H        0.8436020    -1.1475360    -1.2899680
  H        1.8059140    -2.1013880    -0.1265130
  H       -0.3930520     2.0121160    -1.0836700
  H       -2.3417080     0.9766970    -0.3400740
  H        2.3997000     0.9352960    -0.9928030
  H       -1.9956420    -1.6762600    -1.2784950
units angstrom
no_reorient  #important for SAPT in psi4, default
symmetry c1  #important for SAPT in psi4, default
}

set PROPERTIES_ORIGIN ["COM"]
properties('MP2/aug-cc-pvtz', properties = ['dipole'])
--------------------------------------------------------------------------

    Molecular point group: c1
  Charge       = 0
  Multiplicity = 1
  Basis Set: AUG-CC-PVTZ
    Blend: AUG-CC-PVTZ
  Basis Set: (AUG-CC-PVTZ AUX)
    Blend: AUG-CC-PVTZ-JKFIT

    Orbital Energies [Eh]
    ---------------------

    Doubly Occupied:

       1A    -20.611398     2A    -20.579370     3A    -20.573210
       4A    -20.553115     5A    -20.549716     6A    -11.362017
       7A    -11.304306     8A    -11.294598     9A    -11.279008
      10A    -11.262775    11A     -1.450831    12A     -1.396132
      13A     -1.374367    14A     -1.346935    15A     -1.317442
      16A     -1.062180    17A     -1.017725    18A     -0.906494
      19A     -0.863408    20A     -0.805095    21A     -0.768341
      22A     -0.734918    23A     -0.704215    24A     -0.695411
      25A     -0.671235    26A     -0.647357    27A     -0.614480
      28A     -0.611509    29A     -0.600572    30A     -0.580800
      31A     -0.578743    32A     -0.553187    33A     -0.540002
      34A     -0.518315    35A     -0.506386    36A     -0.485316
      37A     -0.474186    38A     -0.453549    39A     -0.437100
      40A     -0.408816

  @DF-RHF Final Energy:  -569.64231337693616

   => Energetics <=

    Nuclear Repulsion Energy =            632.8918916074192111
    One-Electron Energy =               -2040.0792880488215815
    Two-Electron Energy =                 837.5450830644662119
    Total Energy =                       -569.6423133769361584
  Basis Set: (AUG-CC-PVTZ AUX)
    Blend: AUG-CC-PVTZ-RI
    Molecular point group: c1

    Geometry (in Angstrom), charge = 0, multiplicity = 1:

       Center              X                  Y                   Z               Mass
    ------------   -----------------  -----------------  -----------------  -----------------
         O           -0.102231795304    -1.810136303265     0.456185239139    15.994914619570
         O            0.370967204696     1.384140696735    -1.023365760861    15.994914619570
         O           -1.942617795304     1.361482696735     0.470395239139    15.994914619570
         O            2.727353204696     0.440735696735    -0.204354760861    15.994914619570
         O           -1.659092795304    -0.810069303265    -0.997172760861    15.994914619570
         C            0.444129204696     1.003708696735     0.351059239139    12.000000000000
         C           -0.896793795304     0.464431696735     0.841382239139    12.000000000000
         C            1.547048204696    -0.038737303265     0.421715239139    12.000000000000
         C           -1.359388695304    -0.823201603265     0.324622639139    12.000000000000
         C            1.067508204696    -1.326543303265    -0.227338760861    12.000000000000
         H            0.716794204696     1.877609696735     0.961900239139     1.007825032230
         H           -0.869344795304     0.422426696735     1.936649239139     1.007825032230
         H            1.796314204696    -0.241474303265     1.469352239139     1.007825032230
         H           -1.981413795304    -1.406707303265     0.963084239139     1.007825032230
         H            0.856140204696    -1.157379303265    -1.288655760861     1.007825032230
         H            1.818452204696    -2.111231303265    -0.125200760861     1.007825032230
         H           -0.380513795304     2.002272696735    -1.082357760861     1.007825032230
         H           -2.329169795304     0.966853696735    -0.338761760861     1.007825032230
         H            2.412238204696     0.925452696735    -0.991490760861     1.007825032230
         H           -1.983103795304    -1.686103303265    -1.277182760861     1.007825032230

  Basis Set: AUG-CC-PVTZ
    Blend: AUG-CC-PVTZ
  Basis Set: (AUG-CC-PVTZ AUX)
    Blend: AUG-CC-PVTZ-JKFIT
	 Reference Energy          =    -569.6423133769361584 [Eh]
	 Singles Energy            =      -0.0000000000000000 [Eh]
	 Same-Spin Energy          =      -0.5565438294156537 [Eh]
	 Opposite-Spin Energy      =      -1.7082371762248822 [Eh]
	 Correlation Energy        =      -2.2647810056405362 [Eh]
	 Total Energy              =    -571.9070943825767017 [Eh]

	 ================> DF-SCS-MP2 Energies <==================
	-----------------------------------------------------------
	 SCS Same-Spin Scale       =       0.3333333333333333 [-]
	 SCS Opposite-Spin Scale   =       1.2000000000000000 [-]
	 SCS Same-Spin Energy      =      -0.1855146098052179 [Eh]
	 SCS Opposite-Spin Energy  =      -2.0498846114698588 [Eh]
	 SCS Correlation Energy    =      -2.2353992212750766 [Eh]
	 SCS Total Energy          =    -571.8777125982112466 [Eh]
	-----------------------------------------------------------

  Dipole Moment: [D]
     X:    -2.9967      Y:    -0.5370      Z:    -0.4871     Total:     3.0831

*** Psi4 exiting successfully. Buy a developer a beer!
