                               Psi4 1.3.2 release

  ==> Input File <==

--------------------------------------------------------------------------
#psi4
#
memory 32 gb

molecule  {
0 1
  O       -0.1147700    -1.8002930     0.4548730
  O        0.3584290     1.3939840    -1.0246780
  O       -1.9490618     1.3806478     0.4746526
  O        2.7148150     0.4505790    -0.2056670
  O       -1.6716310    -0.8002260    -0.9984850
  C        0.4315910     1.0135520     0.3497470
  C       -0.9093320     0.4742750     0.8400700
  C        1.5345100    -0.0288940     0.4204030
  C       -1.2037132    -0.9407513     0.3450595
  C        1.0549700    -1.3167000    -0.2286510
  H        0.7042560     1.8874530     0.9605880
  H       -0.8818830     0.4322700     1.9353370
  H        1.7837760    -0.2316310     1.4680400
  H       -1.9939520    -1.3968640     0.9617720
  H        0.8436020    -1.1475360    -1.2899680
  H        1.8059140    -2.1013880    -0.1265130
  H       -0.3930520     2.0121160    -1.0836700
  H       -2.3417080     0.9766970    -0.3400740
  H        2.3997000     0.9352960    -0.9928030
  H       -1.9956420    -1.6762600    -1.2784950
units angstrom
no_reorient  #important for SAPT in psi4, default
symmetry c1  #important for SAPT in psi4, default
}

set PROPERTIES_ORIGIN ["COM"]
properties('MP2/aug-cc-pvtz', properties = ['dipole'])
--------------------------------------------------------------------------

    Molecular point group: c1
  Charge       = 0
  Multiplicity = 1
  Basis Set: AUG-CC-PVTZ
    Blend: AUG-CC-PVTZ
  Basis Set: (AUG-CC-PVTZ AUX)
    Blend: AUG-CC-PVTZ-JKFIT

    Orbital Energies [Eh]
    ---------------------

    Doubly Occupied:

       1A    -20.589893     2A    -20.582918     3A    -20.575744
       4A    -20.571010     5A    -20.558564     6A    -11.354278
       7A    -11.297981     8A    -11.290782     9A    -11.286057
      10A    -11.279215    11A     -1.439482    12A     -1.391445
      13A     -1.375273    14A     -1.353313    15A     -1.347454
      16A     -1.059249    17A     -1.023876    18A     -0.898649
      19A     -0.870085    20A     -0.797760    21A     -0.751069
      22A     -0.727466    23A     -0.713329    24A     -0.694243
      25A     -0.669691    26A     -0.645627    27A     -0.621443
      28A     -0.615390    29A     -0.602382    30A     -0.584674
      31A     -0.570437    32A     -0.556532    33A     -0.542906
      34A     -0.515996    35A     -0.502763    36A     -0.491761
      37A     -0.487404    38A     -0.472199    39A     -0.440250
      40A     -0.416331

  @DF-RHF Final Energy:  -569.67348977959716

   => Energetics <=

    Nuclear Repulsion Energy =            633.8038212177494870
    One-Electron Energy =               -2041.8247849969284289
    Two-Electron Energy =                 838.3474739995818936
    Total Energy =                       -569.6734897795971619
  Basis Set: (AUG-CC-PVTZ AUX)
    Blend: AUG-CC-PVTZ-RI
    Molecular point group: c1

    Geometry (in Angstrom), charge = 0, multiplicity = 1:

       Center              X                  Y                   Z               Mass
    ------------   -----------------  -----------------  -----------------  -----------------
         O           -0.116333766599    -1.800942110357     0.453852230879    15.994914619570
         O            0.356865233401     1.393334889643    -1.025698769121    15.994914619570
         O           -1.950625566599     1.379998689643     0.473631830879    15.994914619570
         O            2.713251233401     0.449929889643    -0.206687769121    15.994914619570
         O           -1.673194766599    -0.800875110357    -0.999505769121    15.994914619570
         C            0.430027233401     1.012902889643     0.348726230879    12.000000000000
         C           -0.910895766599     0.473625889643     0.839049230879    12.000000000000
         C            1.532946233401    -0.029543110357     0.419382230879    12.000000000000
         C           -1.205276966599    -0.941400410357     0.344038730879    12.000000000000
         C            1.053406233401    -1.317349110357    -0.229671769121    12.000000000000
         H            0.702692233401     1.886803889643     0.959567230879     1.007825032230
         H           -0.883446766599     0.431620889643     1.934316230879     1.007825032230
         H            1.782212233401    -0.232280110357     1.467019230879     1.007825032230
         H           -1.995515766599    -1.397513110357     0.960751230879     1.007825032230
         H            0.842038233401    -1.148185110357    -1.290988769121     1.007825032230
         H            1.804350233401    -2.102037110357    -0.127533769121     1.007825032230
         H           -0.394615766599     2.011466889643    -1.084690769121     1.007825032230
         H           -2.343271766599     0.976047889643    -0.341094769121     1.007825032230
         H            2.398136233401     0.934646889643    -0.993823769121     1.007825032230
         H           -1.997205766599    -1.676909110357    -1.279515769121     1.007825032230

  Basis Set: AUG-CC-PVTZ
    Blend: AUG-CC-PVTZ
  Basis Set: (AUG-CC-PVTZ AUX)
    Blend: AUG-CC-PVTZ-JKFIT
	 Reference Energy          =    -569.6734897795971619 [Eh]
	 Singles Energy            =      -0.0000000000000000 [Eh]
	 Same-Spin Energy          =      -0.5548248371174064 [Eh]
	 Opposite-Spin Energy      =      -1.7043206470671715 [Eh]
	 Correlation Energy        =      -2.2591454841845779 [Eh]
	 Total Energy              =    -571.9326352637817763 [Eh]

	 ================> DF-SCS-MP2 Energies <==================
	-----------------------------------------------------------
	 SCS Same-Spin Scale       =       0.3333333333333333 [-]
	 SCS Opposite-Spin Scale   =       1.2000000000000000 [-]
	 SCS Same-Spin Energy      =      -0.1849416123724688 [Eh]
	 SCS Opposite-Spin Energy  =      -2.0451847764806055 [Eh]
	 SCS Correlation Energy    =      -2.2301263888530745 [Eh]
	 SCS Total Energy          =    -571.9036161684501849 [Eh]
	-----------------------------------------------------------

  Dipole Moment: [D]
     X:    -2.1313      Y:    -1.0329      Z:    -0.2779     Total:     2.3846

*** Psi4 exiting successfully. Buy a developer a beer!
