                               Psi4 1.3.2 release

  ==> Input File <==

--------------------------------------------------------------------------
#psi4
#
memory 32 gb

molecule  {
0 1
  O       -0.1147700    -1.8002930     0.4548730
  O        0.3584290     1.3939840    -1.0246780
  O       -1.9551560     1.3713260     0.4690830
  O        2.7148150     0.4505790    -0.2056670
  O       -1.6716310    -0.8002260    -0.9984850
  C        0.4315910     1.0135520     0.3497470
  C       -0.9093320     0.4742750     0.8400700
  C        1.5345100    -0.0288940     0.4204030
  C       -1.2151430    -0.9364420     0.3397180
  C        1.0234164    -1.4014374    -0.2713586
  H        0.7042560     1.8874530     0.9605880
  H       -0.8818830     0.4322700     1.9353370
  H        1.7837760    -0.2316310     1.4680400
  H       -1.9939520    -1.3968640     0.9617720
  H        0.8436020    -1.1475360    -1.2899680
  H        1.8059140    -2.1013880    -0.1265130
  H       -0.3930520     2.0121160    -1.0836700
  H       -2.3417080     0.9766970    -0.3400740
  H        2.3997000     0.9352960    -0.9928030
  H       -1.9956420    -1.6762600    -1.2784950
units angstrom
no_reorient  #important for SAPT in psi4, default
symmetry c1  #important for SAPT in psi4, default
}

set PROPERTIES_ORIGIN ["COM"]
properties('MP2/aug-cc-pvtz', properties = ['dipole'])
--------------------------------------------------------------------------

    Molecular point group: c1
  Charge       = 0
  Multiplicity = 1
  Basis Set: AUG-CC-PVTZ
    Blend: AUG-CC-PVTZ
  Basis Set: (AUG-CC-PVTZ AUX)
    Blend: AUG-CC-PVTZ-JKFIT

    Orbital Energies [Eh]
    ---------------------

    Doubly Occupied:

       1A    -20.593358     2A    -20.581913     3A    -20.574639
       4A    -20.570310     5A    -20.555690     6A    -11.356221
       7A    -11.298115     8A    -11.289829     9A    -11.285966
      10A    -11.276707    11A     -1.442827    12A     -1.391219
      13A     -1.376305    14A     -1.356835    15A     -1.345361
      16A     -1.053893    17A     -1.017755    18A     -0.897059
      19A     -0.870018    20A     -0.797038    21A     -0.755125
      22A     -0.726673    23A     -0.716783    24A     -0.696654
      25A     -0.668506    26A     -0.642215    27A     -0.624302
      28A     -0.613866    29A     -0.603847    30A     -0.585595
      31A     -0.573338    32A     -0.554534    33A     -0.541828
      34A     -0.516898    35A     -0.506339    36A     -0.494569
      37A     -0.488542    38A     -0.473726    39A     -0.438768
      40A     -0.396989

  @DF-RHF Final Energy:  -569.66762930243874

   => Energetics <=

    Nuclear Repulsion Energy =            632.6204317206646692
    One-Electron Energy =               -2039.4758139849554937
    Two-Electron Energy =                 837.1877529618519702
    Total Energy =                       -569.6676293024387405
  Basis Set: (AUG-CC-PVTZ AUX)
    Blend: AUG-CC-PVTZ-RI
    Molecular point group: c1

    Geometry (in Angstrom), charge = 0, multiplicity = 1:

       Center              X                  Y                   Z               Mass
    ------------   -----------------  -----------------  -----------------  -----------------
         O           -0.112246692496    -1.793516468042     0.458288498464    15.994914619570
         O            0.360952307504     1.400760531958    -1.021262501536    15.994914619570
         O           -1.952632692496     1.378102531958     0.472498498464    15.994914619570
         O            2.717338307504     0.457355531958    -0.202251501536    15.994914619570
         O           -1.669107692496    -0.793449468042    -0.995069501536    15.994914619570
         C            0.434114307504     1.020328531958     0.353162498464    12.000000000000
         C           -0.906808692496     0.481051531958     0.843485498464    12.000000000000
         C            1.537033307504    -0.022117468042     0.423818498464    12.000000000000
         C           -1.212619692496    -0.929665468042     0.343133498464    12.000000000000
         C            1.025939707504    -1.394660868042    -0.267943101536    12.000000000000
         H            0.706779307504     1.894229531958     0.964003498464     1.007825032230
         H           -0.879359692496     0.439046531958     1.938752498464     1.007825032230
         H            1.786299307504    -0.224854468042     1.471455498464     1.007825032230
         H           -1.991428692496    -1.390087468042     0.965187498464     1.007825032230
         H            0.846125307504    -1.140759468042    -1.286552501536     1.007825032230
         H            1.808437307504    -2.094611468042    -0.123097501536     1.007825032230
         H           -0.390528692496     2.018892531958    -1.080254501536     1.007825032230
         H           -2.339184692496     0.983473531958    -0.336658501536     1.007825032230
         H            2.402223307504     0.942072531958    -0.989387501536     1.007825032230
         H           -1.993118692496    -1.669483468042    -1.275079501536     1.007825032230

  Basis Set: AUG-CC-PVTZ
    Blend: AUG-CC-PVTZ
  Basis Set: (AUG-CC-PVTZ AUX)
    Blend: AUG-CC-PVTZ-JKFIT
	 Reference Energy          =    -569.6676293024387405 [Eh]
	 Singles Energy            =      -0.0000000000000000 [Eh]
	 Same-Spin Energy          =      -0.5542564031976169 [Eh]
	 Opposite-Spin Energy      =      -1.7034883209741525 [Eh]
	 Correlation Energy        =      -2.2577447241717694 [Eh]
	 Total Energy              =    -571.9253740266104842 [Eh]

	 ================> DF-SCS-MP2 Energies <==================
	-----------------------------------------------------------
	 SCS Same-Spin Scale       =       0.3333333333333333 [-]
	 SCS Opposite-Spin Scale   =       1.2000000000000000 [-]
	 SCS Same-Spin Energy      =      -0.1847521343992056 [Eh]
	 SCS Opposite-Spin Energy  =      -2.0441859851689830 [Eh]
	 SCS Correlation Energy    =      -2.2289381195681885 [Eh]
	 SCS Total Energy          =    -571.8965674220069104 [Eh]
	-----------------------------------------------------------

  Dipole Moment: [D]
     X:    -2.2752      Y:    -1.0933      Z:    -0.3180     Total:     2.5442

*** Psi4 exiting successfully. Buy a developer a beer!
