                               Psi4 1.3.2 release

  ==> Input File <==

--------------------------------------------------------------------------
#psi4
#
memory 32 gb

molecule  {
0 1
  O       -0.1147700    -1.8002930     0.4548730
  O        0.3584290     1.3939840    -1.0246780
  O       -1.9525504     1.3693110     0.4570744
  O        2.7148150     0.4505790    -0.2056670
  O       -1.6716310    -0.8002260    -0.9984850
  C        0.4315910     1.0135520     0.3497470
  C       -0.9093320     0.4742750     0.8400700
  C        1.5345100    -0.0288940     0.4204030
  C       -1.2151430    -0.9364420     0.3397180
  C        1.0549700    -1.3167000    -0.2286510
  H        0.7042560     1.8874530     0.9605880
  H       -0.8746035     0.4260778     1.9348753
  H        1.7837760    -0.2316310     1.4680400
  H       -1.9939520    -1.3968640     0.9617720
  H        0.8436020    -1.1475360    -1.2899680
  H        1.8059140    -2.1013880    -0.1265130
  H       -0.3930520     2.0121160    -1.0836700
  H       -2.3417080     0.9766970    -0.3400740
  H        2.3997000     0.9352960    -0.9928030
  H       -1.9956420    -1.6762600    -1.2784950
units angstrom
no_reorient  #important for SAPT in psi4, default
symmetry c1  #important for SAPT in psi4, default
}

set PROPERTIES_ORIGIN ["COM"]
properties('MP2/aug-cc-pvtz', properties = ['dipole'])
--------------------------------------------------------------------------

    Molecular point group: c1
  Charge       = 0
  Multiplicity = 1
  Basis Set: AUG-CC-PVTZ
    Blend: AUG-CC-PVTZ
  Basis Set: (AUG-CC-PVTZ AUX)
    Blend: AUG-CC-PVTZ-JKFIT

    Orbital Energies [Eh]
    ---------------------

    Doubly Occupied:

       1A    -20.591314     2A    -20.580654     3A    -20.573839
       4A    -20.570883     5A    -20.558179     6A    -11.353747
       7A    -11.298735     8A    -11.290913     9A    -11.285593
      10A    -11.278081    11A     -1.438783    12A     -1.391810
      13A     -1.376495    14A     -1.354041    15A     -1.347772
      16A     -1.059405    17A     -1.023194    18A     -0.898640
      19A     -0.870537    20A     -0.798438    21A     -0.752130
      22A     -0.727674    23A     -0.712205    24A     -0.697040
      25A     -0.669595    26A     -0.647113    27A     -0.620901
      28A     -0.613956    29A     -0.603324    30A     -0.584798
      31A     -0.572047    32A     -0.556031    33A     -0.542492
      34A     -0.516385    35A     -0.502513    36A     -0.490891
      37A     -0.487475    38A     -0.471483    39A     -0.440672
      40A     -0.415774

  @DF-RHF Final Energy:  -569.67515386138552

   => Energetics <=

    Nuclear Repulsion Energy =            634.0246613382614669
    One-Electron Energy =               -2042.2685255085373228
    Two-Electron Energy =                 838.5687103088903314
    Total Energy =                       -569.6751538613855246
  Basis Set: (AUG-CC-PVTZ AUX)
    Blend: AUG-CC-PVTZ-RI
    Molecular point group: c1

    Geometry (in Angstrom), charge = 0, multiplicity = 1:

       Center              X                  Y                   Z               Mass
    ------------   -----------------  -----------------  -----------------  -----------------
         O           -0.115096728917    -1.800036694523     0.456156253643    15.994914619570
         O            0.358102271083     1.394240305477    -1.023394746357    15.994914619570
         O           -1.952877128917     1.369567305477     0.458357653643    15.994914619570
         O            2.714488271083     0.450835305477    -0.204383746357    15.994914619570
         O           -1.671957728917    -0.799969694523    -0.997201746357    15.994914619570
         C            0.431264271083     1.013808305477     0.351030253643    12.000000000000
         C           -0.909658728917     0.474531305477     0.841353253643    12.000000000000
         C            1.534183271083    -0.028637694523     0.421686253643    12.000000000000
         C           -1.215469728917    -0.936185694523     0.341001253643    12.000000000000
         C            1.054643271083    -1.316443694523    -0.227367746357    12.000000000000
         H            0.703929271083     1.887709305477     0.961871253643     1.007825032230
         H           -0.874930228917     0.426334105477     1.936158553643     1.007825032230
         H            1.783449271083    -0.231374694523     1.469323253643     1.007825032230
         H           -1.994278728917    -1.396607694523     0.963055253643     1.007825032230
         H            0.843275271083    -1.147279694523    -1.288684746357     1.007825032230
         H            1.805587271083    -2.101131694523    -0.125229746357     1.007825032230
         H           -0.393378728917     2.012372305477    -1.082386746357     1.007825032230
         H           -2.342034728917     0.976953305477    -0.338790746357     1.007825032230
         H            2.399373271083     0.935552305477    -0.991519746357     1.007825032230
         H           -1.995968728917    -1.676003694523    -1.277211746357     1.007825032230

  Basis Set: AUG-CC-PVTZ
    Blend: AUG-CC-PVTZ
  Basis Set: (AUG-CC-PVTZ AUX)
    Blend: AUG-CC-PVTZ-JKFIT
	 Reference Energy          =    -569.6751538613855246 [Eh]
	 Singles Energy            =      -0.0000000000000000 [Eh]
	 Same-Spin Energy          =      -0.5544966473782220 [Eh]
	 Opposite-Spin Energy      =      -1.7035870025356257 [Eh]
	 Correlation Energy        =      -2.2580836499138477 [Eh]
	 Total Energy              =    -571.9332375112993532 [Eh]

	 ================> DF-SCS-MP2 Energies <==================
	-----------------------------------------------------------
	 SCS Same-Spin Scale       =       0.3333333333333333 [-]
	 SCS Opposite-Spin Scale   =       1.2000000000000000 [-]
	 SCS Same-Spin Energy      =      -0.1848322157927407 [Eh]
	 SCS Opposite-Spin Energy  =      -2.0443044030427506 [Eh]
	 SCS Correlation Energy    =      -2.2291366188354913 [Eh]
	 SCS Total Energy          =    -571.9042904802209932 [Eh]
	-----------------------------------------------------------

  Dipole Moment: [D]
     X:    -2.1900      Y:    -0.9920      Z:    -0.2776     Total:     2.4202

*** Psi4 exiting successfully. Buy a developer a beer!
