                               Psi4 1.4a3.dev225

  ==> Input File <==

--------------------------------------------------------------------------
#psi4
#
memory 32 gb

molecule  {
0 1
  O       -0.2343850     1.7978400    -0.4145210
  O        0.4791390    -1.3900560     0.9851260
  O       -1.8902550    -1.4798720    -0.4079610
  O        2.7489250    -0.2990660     0.0843650
  O       -1.6766260     0.6849030     1.0797040
  C        0.4758930    -0.9871420    -0.3839460
  C       -0.9153110    -0.5160320    -0.8112700
  C        1.5148540     0.1205520    -0.4811210
  C       -1.2794180     0.8705190    -0.2725550
  C        0.9914930     1.3693070     0.2124490
  H        0.7732420    -1.8350180    -1.0199460
  H       -0.9367810    -0.4539690    -1.9062570
  H        1.7061480     0.3550680    -1.5342930
  H       -2.1075740     1.2945610    -0.8542440
  H        0.8333730     1.1741050     1.2776920
  H        1.6908660     2.1982840     0.0933200
  H       -0.2684360    -2.0097880     1.0741120
  H       -2.3112241    -1.0856451     0.4425293
  H        2.5001980    -0.8049050     0.8819700
  H       -2.0397460     1.5332780     1.3914430
units angstrom
no_reorient  #important for SAPT in psi4, default
symmetry c1  #important for SAPT in psi4, default
}

set PROPERTIES_ORIGIN ["COM"]
properties('MP2/aug-cc-pvtz', properties = ['dipole'])
--------------------------------------------------------------------------

    Molecular point group: c1
  Charge       = 0
  Multiplicity = 1
  Basis Set: AUG-CC-PVTZ
    Blend: AUG-CC-PVTZ
  Basis Set: (AUG-CC-PVTZ AUX)
    Blend: AUG-CC-PVTZ-JKFIT

    Orbital Energies [Eh]
    ---------------------

    Doubly Occupied:

       1A    -20.593119     2A    -20.581178     3A    -20.577574
       4A    -20.569601     5A    -20.558433     6A    -11.354820
       7A    -11.298870     8A    -11.290725     9A    -11.285994
      10A    -11.278786    11A     -1.437881    12A     -1.388953
      13A     -1.371161    14A     -1.352407    15A     -1.344823
      16A     -1.056512    17A     -1.021791    18A     -0.898321
      19A     -0.867898    20A     -0.796699    21A     -0.751896
      22A     -0.726607    23A     -0.711767    24A     -0.691014
      25A     -0.667405    26A     -0.645147    27A     -0.620895
      28A     -0.613929    29A     -0.600530    30A     -0.583694
      31A     -0.570093    32A     -0.555815    33A     -0.542085
      34A     -0.514975    35A     -0.503277    36A     -0.490035
      37A     -0.486321    38A     -0.470999    39A     -0.440051
      40A     -0.415605

  @DF-RHF Final Energy:  -569.66931949494744

   => Energetics <=

    Nuclear Repulsion Energy =            632.8956879240632816
    One-Electron Energy =               -2040.0746397596501538
    Two-Electron Energy =                 837.5096323406393140
    Total Energy =                       -569.6693194949474446
  Basis Set: (AUG-CC-PVTZ AUX)
    Blend: AUG-CC-PVTZ-RI
    Molecular point group: c1

    Geometry (in Angstrom), charge = 0, multiplicity = 1:

       Center              X                  Y                   Z               Mass
    ------------   -----------------  -----------------  -----------------  -----------------
         O           -0.235188912636     1.799980869536    -0.416043590197    15.994914619570
         O            0.478335087364    -1.387915130464     0.983603409803    15.994914619570
         O           -1.891058912636    -1.477731130464    -0.409483590197    15.994914619570
         O            2.748121087364    -0.296925130464     0.082842409803    15.994914619570
         O           -1.677429912636     0.687043869536     1.078181409803    15.994914619570
         C            0.475089087364    -0.985001130464    -0.385468590197    12.000000000000
         C           -0.916114912636    -0.513891130464    -0.812792590197    12.000000000000
         C            1.514050087364     0.122692869536    -0.482643590197    12.000000000000
         C           -1.280221912636     0.872659869536    -0.274077590197    12.000000000000
         C            0.990689087364     1.371447869536     0.210926409803    12.000000000000
         H            0.772438087364    -1.832877130464    -1.021468590197     1.007825032230
         H           -0.937584912636    -0.451828130464    -1.907779590197     1.007825032230
         H            1.705344087364     0.357208869536    -1.535815590197     1.007825032230
         H           -2.108377912636     1.296701869536    -0.855766590197     1.007825032230
         H            0.832569087364     1.176245869536     1.276169409803     1.007825032230
         H            1.690062087364     2.200424869536     0.091797409803     1.007825032230
         H           -0.269239912636    -2.007647130464     1.072589409803     1.007825032230
         H           -2.312028012636    -1.083504230464     0.441006709803     1.007825032230
         H            2.499394087364    -0.802764130464     0.880447409803     1.007825032230
         H           -2.040549912636     1.535418869536     1.389920409803     1.007825032230

  Basis Set: AUG-CC-PVTZ
    Blend: AUG-CC-PVTZ
  Basis Set: (AUG-CC-PVTZ AUX)
    Blend: AUG-CC-PVTZ-JKFIT
	 Reference Energy          =    -569.6693194949474446 [Eh]
	 Singles Energy            =      -0.0000000000000000 [Eh]
	 Same-Spin Energy          =      -0.5552504404696205 [Eh]
	 Opposite-Spin Energy      =      -1.7056010025408763 [Eh]
	 Correlation Energy        =      -2.2608514430104969 [Eh]
	 Total Energy              =    -571.9301709379579961 [Eh]

	 ================> DF-SCS-MP2 Energies <==================
	-----------------------------------------------------------
	 SCS Same-Spin Scale       =       0.3333333333333333 [-]
	 SCS Opposite-Spin Scale   =       1.2000000000000000 [-]
	 SCS Same-Spin Energy      =      -0.1850834801565401 [Eh]
	 SCS Opposite-Spin Energy  =      -2.0467212030490516 [Eh]
	 SCS Correlation Energy    =      -2.2318046832055916 [Eh]
	 SCS Total Energy          =    -571.9011241781530543 [Eh]
	-----------------------------------------------------------

  Dipole Moment: [D]
     X:    -2.3260      Y:     1.0008      Z:     0.4510     Total:     2.5720

*** Psi4 exiting successfully. Buy a developer a beer!
