                               Psi4 1.4a3.dev225

  ==> Input File <==

--------------------------------------------------------------------------
#psi4
#
memory 32 gb

molecule  {
0 1
  O       -0.2343850     1.7978400    -0.4145210
  O        0.4791390    -1.3900560     0.9851260
  O       -1.8902550    -1.4798720    -0.4079610
  O        2.7489250    -0.2990660     0.0843650
  O       -1.6766260     0.6849030     1.0797040
  C        0.4758930    -0.9871420    -0.3839460
  C       -0.9153110    -0.5160320    -0.8112700
  C        1.5148540     0.1205520    -0.4811210
  C       -1.2794180     0.8705190    -0.2725550
  C        0.9914930     1.3693070     0.2124490
  H        0.7732420    -1.8350180    -1.0199460
  H       -0.9367810    -0.4539690    -1.9062570
  H        1.7061480     0.3550680    -1.5342930
  H       -2.1075740     1.2945610    -0.8542440
  H        0.8333730     1.1741050     1.2776920
  H        1.6908660     2.1982840     0.0933200
  H       -0.2684360    -2.0097880     1.0741120
  H       -2.2907410    -1.1048270     0.4011470
  H        2.5001980    -0.8049050     0.8819700
  H       -2.0211063     1.4897293     1.3754408
units angstrom
no_reorient  #important for SAPT in psi4, default
symmetry c1  #important for SAPT in psi4, default
}

set PROPERTIES_ORIGIN ["COM"]
properties('MP2/aug-cc-pvtz', properties = ['dipole'])
--------------------------------------------------------------------------

    Molecular point group: c1
  Charge       = 0
  Multiplicity = 1
  Basis Set: AUG-CC-PVTZ
    Blend: AUG-CC-PVTZ
  Basis Set: (AUG-CC-PVTZ AUX)
    Blend: AUG-CC-PVTZ-JKFIT

    Orbital Energies [Eh]
    ---------------------

    Doubly Occupied:

       1A    -20.587824     2A    -20.581727     3A    -20.575530
       4A    -20.570261     5A    -20.558865     6A    -11.355611
       7A    -11.299937     8A    -11.291462     9A    -11.286508
      10A    -11.279199    11A     -1.443291    12A     -1.391765
      13A     -1.377002    14A     -1.359745    15A     -1.347672
      16A     -1.058365    17A     -1.024381    18A     -0.900968
      19A     -0.871255    20A     -0.801113    21A     -0.756277
      22A     -0.728512    23A     -0.712913    24A     -0.697713
      25A     -0.668539    26A     -0.647872    27A     -0.624077
      28A     -0.614993    29A     -0.602331    30A     -0.585148
      31A     -0.573677    32A     -0.557236    33A     -0.543335
      34A     -0.516306    35A     -0.504409    36A     -0.491039
      37A     -0.488170    38A     -0.471740    39A     -0.441451
      40A     -0.416420

  @DF-RHF Final Energy:  -569.67518783778792

   => Energetics <=

    Nuclear Repulsion Energy =            633.5107418565920625
    One-Electron Energy =               -2041.1625769258780565
    Two-Electron Energy =                 837.9766472314979637
    Total Energy =                       -569.6751878377879166
  Basis Set: (AUG-CC-PVTZ AUX)
    Blend: AUG-CC-PVTZ-RI
    Molecular point group: c1

    Geometry (in Angstrom), charge = 0, multiplicity = 1:

       Center              X                  Y                   Z               Mass
    ------------   -----------------  -----------------  -----------------  -----------------
         O           -0.235451679682     1.800402197623    -0.415658169022    15.994914619570
         O            0.478072320318    -1.387493802377     0.983988830978    15.994914619570
         O           -1.891321679682    -1.477309802377    -0.409098169022    15.994914619570
         O            2.747858320318    -0.296503802377     0.083227830978    15.994914619570
         O           -1.677692679682     0.687465197623     1.078566830978    15.994914619570
         C            0.474826320318    -0.984579802377    -0.385083169022    12.000000000000
         C           -0.916377679682    -0.513469802377    -0.812407169022    12.000000000000
         C            1.513787320318     0.123114197623    -0.482258169022    12.000000000000
         C           -1.280484679682     0.873081197623    -0.273692169022    12.000000000000
         C            0.990426320318     1.371869197623     0.211311830978    12.000000000000
         H            0.772175320318    -1.832455802377    -1.021083169022     1.007825032230
         H           -0.937847679682    -0.451406802377    -1.907394169022     1.007825032230
         H            1.705081320318     0.357630197623    -1.535430169022     1.007825032230
         H           -2.108640679682     1.297123197623    -0.855381169022     1.007825032230
         H            0.832306320318     1.176667197623     1.276554830978     1.007825032230
         H            1.689799320318     2.200846197623     0.092182830978     1.007825032230
         H           -0.269502679682    -2.007225802377     1.072974830978     1.007825032230
         H           -2.291807679682    -1.102264802377     0.400009830978     1.007825032230
         H            2.499131320318    -0.802342802377     0.880832830978     1.007825032230
         H           -2.022172979682     1.492291497623     1.374303630978     1.007825032230

  Basis Set: AUG-CC-PVTZ
    Blend: AUG-CC-PVTZ
  Basis Set: (AUG-CC-PVTZ AUX)
    Blend: AUG-CC-PVTZ-JKFIT
	 Reference Energy          =    -569.6751878377879166 [Eh]
	 Singles Energy            =      -0.0000000000000000 [Eh]
	 Same-Spin Energy          =      -0.5539097024245142 [Eh]
	 Opposite-Spin Energy      =      -1.7024333945050054 [Eh]
	 Correlation Energy        =      -2.2563430969295197 [Eh]
	 Total Energy              =    -571.9315309347174434 [Eh]

	 ================> DF-SCS-MP2 Energies <==================
	-----------------------------------------------------------
	 SCS Same-Spin Scale       =       0.3333333333333333 [-]
	 SCS Opposite-Spin Scale   =       1.2000000000000000 [-]
	 SCS Same-Spin Energy      =      -0.1846365674748381 [Eh]
	 SCS Opposite-Spin Energy  =      -2.0429200734060062 [Eh]
	 SCS Correlation Energy    =      -2.2275566408808443 [Eh]
	 SCS Total Energy          =    -571.9027444786687511 [Eh]
	-----------------------------------------------------------

  Dipole Moment: [D]
     X:    -2.2685      Y:     0.9246      Z:     0.3703     Total:     2.4775

*** Psi4 exiting successfully. Buy a developer a beer!
