                               Psi4 1.3.2 release

  ==> Input File <==

--------------------------------------------------------------------------
#psi4
#
memory 32 gb

molecule  {
0 1
  O       -0.1149208    -1.7877077     0.5272753
  O        0.3584290     1.3939840    -1.0246780
  O       -1.9551560     1.3713260     0.4690830
  O        2.7148150     0.4505790    -0.2056670
  O       -1.7241788    -0.7537709    -0.9737648
  C        0.4315910     1.0135520     0.3497470
  C       -0.9093320     0.4742750     0.8400700
  C        1.5345100    -0.0288940     0.4204030
  C       -1.2151430    -0.9364420     0.3397180
  C        1.0549700    -1.3167000    -0.2286510
  H        0.7042560     1.8874530     0.9605880
  H       -0.8818830     0.4322700     1.9353370
  H        1.7837760    -0.2316310     1.4680400
  H       -1.9939520    -1.3968640     0.9617720
  H        0.8436020    -1.1475360    -1.2899680
  H        1.8059140    -2.1013880    -0.1265130
  H       -0.3930520     2.0121160    -1.0836700
  H       -2.3417080     0.9766970    -0.3400740
  H        2.3997000     0.9352960    -0.9928030
  H       -1.9956420    -1.6762600    -1.2784950
units angstrom
no_reorient  #important for SAPT in psi4, default
symmetry c1  #important for SAPT in psi4, default
}

set PROPERTIES_ORIGIN ["COM"]
properties('MP2/aug-cc-pvtz', properties = ['dipole'])
--------------------------------------------------------------------------

    Molecular point group: c1
  Charge       = 0
  Multiplicity = 1
  Basis Set: AUG-CC-PVTZ
    Blend: AUG-CC-PVTZ
  Basis Set: (AUG-CC-PVTZ AUX)
    Blend: AUG-CC-PVTZ-JKFIT

    Orbital Energies [Eh]
    ---------------------

    Doubly Occupied:

       1A    -20.599154     2A    -20.585963     3A    -20.571052
       4A    -20.570519     5A    -20.558792     6A    -11.351986
       7A    -11.294693     8A    -11.290342     9A    -11.286551
      10A    -11.283342    11A     -1.434109    12A     -1.389905
      13A     -1.374610    14A     -1.352345    15A     -1.347278
      16A     -1.058150    17A     -1.020767    18A     -0.898664
      19A     -0.865568    20A     -0.796976    21A     -0.752610
      22A     -0.727203    23A     -0.709054    24A     -0.692178
      25A     -0.668441    26A     -0.645961    27A     -0.621274
      28A     -0.612488    29A     -0.599046    30A     -0.584492
      31A     -0.570972    32A     -0.556490    33A     -0.540921
      34A     -0.517044    35A     -0.500847    36A     -0.494639
      37A     -0.485498    38A     -0.476448    39A     -0.439415
      40A     -0.415643

  @DF-RHF Final Energy:  -569.66546045630560

   => Energetics <=

    Nuclear Repulsion Energy =            633.0796896307283532
    One-Electron Energy =               -2040.4074394497013145
    Two-Electron Energy =                 837.6622893626673658
    Total Energy =                       -569.6654604563055955
  Basis Set: (AUG-CC-PVTZ AUX)
    Blend: AUG-CC-PVTZ-RI
    Molecular point group: c1

    Geometry (in Angstrom), charge = 0, multiplicity = 1:

       Center              X                  Y                   Z               Mass
    ------------   -----------------  -----------------  -----------------  -----------------
         O           -0.109303472690    -1.794001198398     0.516922598385    15.994914619570
         O            0.364046327310     1.387690501602    -1.035030701615    15.994914619570
         O           -1.949538672690     1.365032501602     0.458730298385    15.994914619570
         O            2.720432327310     0.444285501602    -0.216019701615    15.994914619570
         O           -1.718561472690    -0.760064398398    -0.984117501615    15.994914619570
         C            0.437208327310     1.007258501602     0.339394298385    12.000000000000
         C           -0.903714672690     0.467981501602     0.829717298385    12.000000000000
         C            1.540127327310    -0.035187498398     0.410050298385    12.000000000000
         C           -1.209525672690    -0.942735498398     0.329365298385    12.000000000000
         C            1.060587327310    -1.322993498398    -0.239003701615    12.000000000000
         H            0.709873327310     1.881159501602     0.950235298385     1.007825032230
         H           -0.876265672690     0.425976501602     1.924984298385     1.007825032230
         H            1.789393327310    -0.237924498398     1.457687298385     1.007825032230
         H           -1.988334672690    -1.403157498398     0.951419298385     1.007825032230
         H            0.849219327310    -1.153829498398    -1.300320701615     1.007825032230
         H            1.811531327310    -2.107681498398    -0.136865701615     1.007825032230
         H           -0.387434672690     2.005822501602    -1.094022701615     1.007825032230
         H           -2.336090672690     0.970403501602    -0.350426701615     1.007825032230
         H            2.405317327310     0.929002501602    -1.003155701615     1.007825032230
         H           -1.990024672690    -1.682553498398    -1.288847701615     1.007825032230

  Basis Set: AUG-CC-PVTZ
    Blend: AUG-CC-PVTZ
  Basis Set: (AUG-CC-PVTZ AUX)
    Blend: AUG-CC-PVTZ-JKFIT
	 Reference Energy          =    -569.6654604563055955 [Eh]
	 Singles Energy            =      -0.0000000000000000 [Eh]
	 Same-Spin Energy          =      -0.5557323616726497 [Eh]
	 Opposite-Spin Energy      =      -1.7066992602585360 [Eh]
	 Correlation Energy        =      -2.2624316219311860 [Eh]
	 Total Energy              =    -571.9278920782368232 [Eh]

	 ================> DF-SCS-MP2 Energies <==================
	-----------------------------------------------------------
	 SCS Same-Spin Scale       =       0.3333333333333333 [-]
	 SCS Opposite-Spin Scale   =       1.2000000000000000 [-]
	 SCS Same-Spin Energy      =      -0.1852441205575499 [Eh]
	 SCS Opposite-Spin Energy  =      -2.0480391123102430 [Eh]
	 SCS Correlation Energy    =      -2.2332832328677927 [Eh]
	 SCS Total Energy          =    -571.8987436891734433 [Eh]
	-----------------------------------------------------------

  Dipole Moment: [D]
     X:    -2.0011      Y:    -1.1478      Z:    -0.5329     Total:     2.3677

*** Psi4 exiting successfully. Buy a developer a beer!
