                               Psi4 1.3.2 release

  ==> Input File <==

--------------------------------------------------------------------------
#psi4
#
memory 32 gb

molecule  {
0 1
  O       -0.1147700    -1.8002930     0.4548730
  O        0.3584290     1.3939840    -1.0246780
  O       -1.9551560     1.3713260     0.4690830
  O        2.7148150     0.4505790    -0.2056670
  O       -1.6716310    -0.8002260    -0.9984850
  C        0.4315910     1.0135520     0.3497470
  C       -0.9093320     0.4742750     0.8400700
  C        1.5345100    -0.0288940     0.4204030
  C       -1.2151430    -0.9364420     0.3397180
  C        1.0549700    -1.3167000    -0.2286510
  H        0.7042560     1.8874530     0.9605880
  H       -0.8818830     0.4322700     1.9353370
  H        1.7837760    -0.2316310     1.4680400
  H       -1.9939520    -1.3968640     0.9617720
  H        0.8436020    -1.1475360    -1.2899680
  H        1.8059140    -2.1013880    -0.1265130
  H       -0.3930520     2.0121160    -1.0836700
  H       -2.3417080     0.9766970    -0.3400740
  H        2.3674349     0.9849269    -1.0733991
  H       -1.9956420    -1.6762600    -1.2784950
units angstrom
no_reorient  #important for SAPT in psi4, default
symmetry c1  #important for SAPT in psi4, default
}

set PROPERTIES_ORIGIN ["COM"]
properties('MP2/aug-cc-pvtz', properties = ['dipole'])
--------------------------------------------------------------------------

    Molecular point group: c1
  Charge       = 0
  Multiplicity = 1
  Basis Set: AUG-CC-PVTZ
    Blend: AUG-CC-PVTZ
  Basis Set: (AUG-CC-PVTZ AUX)
    Blend: AUG-CC-PVTZ-JKFIT

    Orbital Energies [Eh]
    ---------------------

    Doubly Occupied:

       1A    -20.591482     2A    -20.580174     3A    -20.574567
       4A    -20.572613     5A    -20.563308     6A    -11.353614
       7A    -11.298200     8A    -11.290790     9A    -11.284292
      10A    -11.277278    11A     -1.438369    12A     -1.390445
      13A     -1.372323    14A     -1.353210    15A     -1.334108
      16A     -1.056937    17A     -1.020977    18A     -0.898224
      19A     -0.866641    20A     -0.794458    21A     -0.751636
      22A     -0.726233    23A     -0.711541    24A     -0.694618
      25A     -0.665294    26A     -0.638399    27A     -0.619416
      28A     -0.612467    29A     -0.602282    30A     -0.582796
      31A     -0.570460    32A     -0.553648    33A     -0.541443
      34A     -0.513675    35A     -0.502066    36A     -0.490667
      37A     -0.485215    38A     -0.469571    39A     -0.439716
      40A     -0.414535

  @DF-RHF Final Energy:  -569.66129841399345

   => Energetics <=

    Nuclear Repulsion Energy =            633.3483390475948909
    One-Electron Energy =               -2041.0239011794435555
    Two-Electron Energy =                 838.0142637178552150
    Total Energy =                       -569.6612984139934497
  Basis Set: (AUG-CC-PVTZ AUX)
    Blend: AUG-CC-PVTZ-RI
    Molecular point group: c1

    Geometry (in Angstrom), charge = 0, multiplicity = 1:

       Center              X                  Y                   Z               Mass
    ------------   -----------------  -----------------  -----------------  -----------------
         O           -0.114553384344    -1.800626417985     0.455414414370    15.994914619570
         O            0.358645615656     1.393650582015    -1.024136585630    15.994914619570
         O           -1.954939384344     1.370992582015     0.469624414370    15.994914619570
         O            2.715031615656     0.450245582015    -0.205125585630    15.994914619570
         O           -1.671414384344    -0.800559417985    -0.997943585630    15.994914619570
         C            0.431807615656     1.013218582015     0.350288414370    12.000000000000
         C           -0.909115384344     0.473941582015     0.840611414370    12.000000000000
         C            1.534726615656    -0.029227417985     0.420944414370    12.000000000000
         C           -1.214926384344    -0.936775417985     0.340259414370    12.000000000000
         C            1.055186615656    -1.317033417985    -0.228109585630    12.000000000000
         H            0.704472615656     1.887119582015     0.961129414370     1.007825032230
         H           -0.881666384344     0.431936582015     1.935878414370     1.007825032230
         H            1.783992615656    -0.231964417985     1.468581414370     1.007825032230
         H           -1.993735384344    -1.397197417985     0.962313414370     1.007825032230
         H            0.843818615656    -1.147869417985    -1.289426585630     1.007825032230
         H            1.806130615656    -2.101721417985    -0.125971585630     1.007825032230
         H           -0.392835384344     2.011782582015    -1.083128585630     1.007825032230
         H           -2.341491384344     0.976363582015    -0.339532585630     1.007825032230
         H            2.367651515656     0.984593482015    -1.072857685630     1.007825032230
         H           -1.995425384344    -1.676593417985    -1.277953585630     1.007825032230

  Basis Set: AUG-CC-PVTZ
    Blend: AUG-CC-PVTZ
  Basis Set: (AUG-CC-PVTZ AUX)
    Blend: AUG-CC-PVTZ-JKFIT
	 Reference Energy          =    -569.6612984139934497 [Eh]
	 Singles Energy            =      -0.0000000000000000 [Eh]
	 Same-Spin Energy          =      -0.5559906920980282 [Eh]
	 Opposite-Spin Energy      =      -1.7072069626388207 [Eh]
	 Correlation Energy        =      -2.2631976547368486 [Eh]
	 Total Energy              =    -571.9244960687302637 [Eh]

	 ================> DF-SCS-MP2 Energies <==================
	-----------------------------------------------------------
	 SCS Same-Spin Scale       =       0.3333333333333333 [-]
	 SCS Opposite-Spin Scale   =       1.2000000000000000 [-]
	 SCS Same-Spin Energy      =      -0.1853302306993427 [Eh]
	 SCS Opposite-Spin Energy  =      -2.0486483551665846 [Eh]
	 SCS Correlation Energy    =      -2.2339785858659273 [Eh]
	 SCS Total Energy          =    -571.8952769998593340 [Eh]
	-----------------------------------------------------------

  Dipole Moment: [D]
     X:    -2.2205      Y:    -0.9231      Z:    -0.3820     Total:     2.4349

*** Psi4 exiting successfully. Buy a developer a beer!
