                               Psi4 1.3.2 release

  ==> Input File <==

--------------------------------------------------------------------------
#psi4
#
memory 32 gb

molecule  {
0 1
  O       -0.1147700    -1.8002930     0.4548730
  O        0.3584290     1.3939840    -1.0246780
  O       -1.9551560     1.3713260     0.4690830
  O        2.7148150     0.4505790    -0.2056670
  O       -1.6716310    -0.8002260    -0.9984850
  C        0.4549433     1.0188755     0.4259757
  C       -0.9093320     0.4742750     0.8400700
  C        1.5345100    -0.0288940     0.4204030
  C       -1.2151430    -0.9364420     0.3397180
  C        1.0549700    -1.3167000    -0.2286510
  H        0.7042560     1.8874530     0.9605880
  H       -0.8283748     0.4529488     1.9332849
  H        1.7837760    -0.2316310     1.4680400
  H       -1.9939520    -1.3968640     0.9617720
  H        0.8436020    -1.1475360    -1.2899680
  H        1.8059140    -2.1013880    -0.1265130
  H       -0.3930520     2.0121160    -1.0836700
  H       -2.3417080     0.9766970    -0.3400740
  H        2.3997000     0.9352960    -0.9928030
  H       -1.9956420    -1.6762600    -1.2784950
units angstrom
no_reorient  #important for SAPT in psi4, default
symmetry c1  #important for SAPT in psi4, default
}

set PROPERTIES_ORIGIN ["COM"]
properties('MP2/aug-cc-pvtz', properties = ['dipole'])
--------------------------------------------------------------------------

    Molecular point group: c1
  Charge       = 0
  Multiplicity = 1
  Basis Set: AUG-CC-PVTZ
    Blend: AUG-CC-PVTZ
  Basis Set: (AUG-CC-PVTZ AUX)
    Blend: AUG-CC-PVTZ-JKFIT

    Orbital Energies [Eh]
    ---------------------

    Doubly Occupied:

       1A    -20.591756     2A    -20.581457     3A    -20.576035
       4A    -20.561546     5A    -20.558810     6A    -11.356106
       7A    -11.301096     8A    -11.291112     9A    -11.287387
      10A    -11.279878    11A     -1.438581    12A     -1.381913
      13A     -1.374016    14A     -1.354240    15A     -1.332497
      16A     -1.065003    17A     -1.023918    18A     -0.903942
      19A     -0.873414    20A     -0.794212    21A     -0.750979
      22A     -0.730293    23A     -0.710937    24A     -0.692589
      25A     -0.661970    26A     -0.646535    27A     -0.622516
      28A     -0.609843    29A     -0.605035    30A     -0.585782
      31A     -0.572603    32A     -0.558114    33A     -0.533713
      34A     -0.510332    35A     -0.504179    36A     -0.488394
      37A     -0.487705    38A     -0.472524    39A     -0.441875
      40A     -0.422574

  @DF-RHF Final Energy:  -569.66632774053573

   => Energetics <=

    Nuclear Repulsion Energy =            632.8469008313834365
    One-Electron Energy =               -2039.9556347055536207
    Two-Electron Energy =                 837.4424061336344494
    Total Energy =                       -569.6663277405357348
  Basis Set: (AUG-CC-PVTZ AUX)
    Blend: AUG-CC-PVTZ-RI
    Molecular point group: c1

    Geometry (in Angstrom), charge = 0, multiplicity = 1:

       Center              X                  Y                   Z               Mass
    ------------   -----------------  -----------------  -----------------  -----------------
         O           -0.116997004334    -1.800857692200     0.448790726880    15.994914619570
         O            0.356201995666     1.393419307800    -1.030760273120    15.994914619570
         O           -1.957383004334     1.370761307800     0.463000726880    15.994914619570
         O            2.712587995666     0.450014307800    -0.211749273120    15.994914619570
         O           -1.673858004334    -0.800790692200    -1.004567273120    15.994914619570
         C            0.452716295666     1.018310807800     0.419893426880    12.000000000000
         C           -0.911559004334     0.473710307800     0.833987726880    12.000000000000
         C            1.532282995666    -0.029458692200     0.414320726880    12.000000000000
         C           -1.217370004334    -0.937006692200     0.333635726880    12.000000000000
         C            1.052742995666    -1.317264692200    -0.234733273120    12.000000000000
         H            0.702028995666     1.886888307800     0.954505726880     1.007825032230
         H           -0.830601804334     0.452384107800     1.927202626880     1.007825032230
         H            1.781548995666    -0.232195692200     1.461957726880     1.007825032230
         H           -1.996179004334    -1.397428692200     0.955689726880     1.007825032230
         H            0.841374995666    -1.148100692200    -1.296050273120     1.007825032230
         H            1.803686995666    -2.101952692200    -0.132595273120     1.007825032230
         H           -0.395279004334     2.011551307800    -1.089752273120     1.007825032230
         H           -2.343935004334     0.976132307800    -0.346156273120     1.007825032230
         H            2.397472995666     0.934731307800    -0.998885273120     1.007825032230
         H           -1.997869004334    -1.676824692200    -1.284577273120     1.007825032230

  Basis Set: AUG-CC-PVTZ
    Blend: AUG-CC-PVTZ
  Basis Set: (AUG-CC-PVTZ AUX)
    Blend: AUG-CC-PVTZ-JKFIT
	 Reference Energy          =    -569.6663277405357348 [Eh]
	 Singles Energy            =      -0.0000000000000000 [Eh]
	 Same-Spin Energy          =      -0.5548311522100446 [Eh]
	 Opposite-Spin Energy      =      -1.7052947054615610 [Eh]
	 Correlation Energy        =      -2.2601258576716057 [Eh]
	 Total Energy              =    -571.9264535982073312 [Eh]

	 ================> DF-SCS-MP2 Energies <==================
	-----------------------------------------------------------
	 SCS Same-Spin Scale       =       0.3333333333333333 [-]
	 SCS Opposite-Spin Scale   =       1.2000000000000000 [-]
	 SCS Same-Spin Energy      =      -0.1849437174033482 [Eh]
	 SCS Opposite-Spin Energy  =      -2.0463536465538730 [Eh]
	 SCS Correlation Energy    =      -2.2312973639572213 [Eh]
	 SCS Total Energy          =    -571.8976251044929313 [Eh]
	-----------------------------------------------------------

  Dipole Moment: [D]
     X:    -2.1422      Y:    -1.0426      Z:    -0.1052     Total:     2.3848

*** Psi4 exiting successfully. Buy a developer a beer!
