                               Psi4 1.3.2 release

  ==> Input File <==

--------------------------------------------------------------------------
#psi4
#
memory 32 gb

molecule  {
0 1
  O       -0.1147700    -1.8002930     0.4548730
  O        0.3584290     1.3939840    -1.0246780
  O       -1.9551560     1.3713260     0.4690830
  O        2.7148150     0.4505790    -0.2056670
  O       -1.6716310    -0.8002260    -0.9984850
  C        0.4357401     1.0145423     0.3623641
  C       -0.9093320     0.4742750     0.8400700
  C        1.5345100    -0.0288940     0.4204030
  C       -1.2151430    -0.9364420     0.3397180
  C        1.0549700    -1.3167000    -0.2286510
  H        0.7042560     1.8874530     0.9605880
  H       -0.8729558     0.4357100     1.9352034
  H        1.7837760    -0.2316310     1.4680400
  H       -1.9939520    -1.3968640     0.9617720
  H        0.8436020    -1.1475360    -1.2899680
  H        1.8059140    -2.1013880    -0.1265130
  H       -0.3930520     2.0121160    -1.0836700
  H       -2.3417080     0.9766970    -0.3400740
  H        2.3997000     0.9352960    -0.9928030
  H       -1.9956420    -1.6762600    -1.2784950
units angstrom
no_reorient  #important for SAPT in psi4, default
symmetry c1  #important for SAPT in psi4, default
}

set PROPERTIES_ORIGIN ["COM"]
properties('MP2/aug-cc-pvtz', properties = ['dipole'])
--------------------------------------------------------------------------

    Molecular point group: c1
  Charge       = 0
  Multiplicity = 1
  Basis Set: AUG-CC-PVTZ
    Blend: AUG-CC-PVTZ
  Basis Set: (AUG-CC-PVTZ AUX)
    Blend: AUG-CC-PVTZ-JKFIT

    Orbital Energies [Eh]
    ---------------------

    Doubly Occupied:

       1A    -20.591607     2A    -20.580854     3A    -20.574860
       4A    -20.569662     5A    -20.558341     6A    -11.354224
       7A    -11.298780     8A    -11.290890     9A    -11.285884
      10A    -11.278427    11A     -1.438643    12A     -1.389028
      13A     -1.375549    14A     -1.353967    15A     -1.345764
      16A     -1.060020    17A     -1.023121    18A     -0.899525
      19A     -0.870551    20A     -0.797538    21A     -0.751868
      22A     -0.727978    23A     -0.711744    24A     -0.695526
      25A     -0.668308    26A     -0.646303    27A     -0.621185
      28A     -0.613198    29A     -0.603170    30A     -0.584819
      31A     -0.571878    32A     -0.556395    33A     -0.541073
      34A     -0.515669    35A     -0.502856    36A     -0.490755
      37A     -0.487705    38A     -0.471980    39A     -0.441007
      40A     -0.417118

  @DF-RHF Final Energy:  -569.67419155406230

   => Energetics <=

    Nuclear Repulsion Energy =            633.6603492802023538
    One-Electron Energy =               -2041.5535445865109523
    Two-Electron Energy =                 838.2190037522462944
    Total Energy =                       -569.6741915540623040
  Basis Set: (AUG-CC-PVTZ AUX)
    Blend: AUG-CC-PVTZ-RI
    Molecular point group: c1

    Geometry (in Angstrom), charge = 0, multiplicity = 1:

       Center              X                  Y                   Z               Mass
    ------------   -----------------  -----------------  -----------------  -----------------
         O           -0.115161862272    -1.800395374380     0.453864977870    15.994914619570
         O            0.358037137728     1.393881625620    -1.025686022130    15.994914619570
         O           -1.955547862272     1.371223625620     0.468074977870    15.994914619570
         O            2.714423137728     0.450476625620    -0.206675022130    15.994914619570
         O           -1.672022862272    -0.800328374380    -0.999493022130    15.994914619570
         C            0.435348237728     1.014439925620     0.361356077870    12.000000000000
         C           -0.909723862272     0.474172625620     0.839061977870    12.000000000000
         C            1.534118137728    -0.028996374380     0.419394977870    12.000000000000
         C           -1.215534862272    -0.936544374380     0.338709977870    12.000000000000
         C            1.054578137728    -1.316802374380    -0.229659022130    12.000000000000
         H            0.703864137728     1.887350625620     0.959579977870     1.007825032230
         H           -0.873347662272     0.435607625620     1.934195377870     1.007825032230
         H            1.783384137728    -0.231733374380     1.467031977870     1.007825032230
         H           -1.994343862272    -1.396966374380     0.960763977870     1.007825032230
         H            0.843210137728    -1.147638374380    -1.290976022130     1.007825032230
         H            1.805522137728    -2.101490374380    -0.127521022130     1.007825032230
         H           -0.393443862272     2.012013625620    -1.084678022130     1.007825032230
         H           -2.342099862272     0.976594625620    -0.341082022130     1.007825032230
         H            2.399308137728     0.935193625620    -0.993811022130     1.007825032230
         H           -1.996033862272    -1.676362374380    -1.279503022130     1.007825032230

  Basis Set: AUG-CC-PVTZ
    Blend: AUG-CC-PVTZ
  Basis Set: (AUG-CC-PVTZ AUX)
    Blend: AUG-CC-PVTZ-JKFIT
	 Reference Energy          =    -569.6741915540623040 [Eh]
	 Singles Energy            =      -0.0000000000000000 [Eh]
	 Same-Spin Energy          =      -0.5546261900868190 [Eh]
	 Opposite-Spin Energy      =      -1.7040917144576060 [Eh]
	 Correlation Energy        =      -2.2587179045444250 [Eh]
	 Total Energy              =    -571.9329094586066731 [Eh]

	 ================> DF-SCS-MP2 Energies <==================
	-----------------------------------------------------------
	 SCS Same-Spin Scale       =       0.3333333333333333 [-]
	 SCS Opposite-Spin Scale   =       1.2000000000000000 [-]
	 SCS Same-Spin Energy      =      -0.1848753966956063 [Eh]
	 SCS Opposite-Spin Energy  =      -2.0449100573491270 [Eh]
	 SCS Correlation Energy    =      -2.2297854540447335 [Eh]
	 SCS Total Energy          =    -571.9039770081070628 [Eh]
	-----------------------------------------------------------

  Dipole Moment: [D]
     X:    -2.1746      Y:    -1.0005      Z:    -0.2656     Total:     2.4084

*** Psi4 exiting successfully. Buy a developer a beer!
