                               Psi4 1.3.2 release

  ==> Input File <==

--------------------------------------------------------------------------
#psi4
#
memory 32 gb

molecule  {
0 1
  O       -0.1152627    -1.8100612     0.4470035
  O        0.3584290     1.3939840    -1.0246780
  O       -1.9551560     1.3713260     0.4690830
  O        2.7148150     0.4505790    -0.2056670
  O       -1.6716310    -0.8002260    -0.9984850
  C        0.4315910     1.0135520     0.3497470
  C       -0.9093320     0.4742750     0.8400700
  C        1.5444471    -0.0282478     0.4116436
  C       -1.2151430    -0.9364420     0.3397180
  C        1.0549700    -1.3167000    -0.2286510
  H        0.7042560     1.8874530     0.9605880
  H       -0.8818830     0.4322700     1.9353370
  H        1.7837760    -0.2316310     1.4680400
  H       -1.9939520    -1.3968640     0.9617720
  H        0.8436020    -1.1475360    -1.2899680
  H        1.8059140    -2.1013880    -0.1265130
  H       -0.3930520     2.0121160    -1.0836700
  H       -2.3417080     0.9766970    -0.3400740
  H        2.3997000     0.9352960    -0.9928030
  H       -1.9956420    -1.6762600    -1.2784950
units angstrom
no_reorient  #important for SAPT in psi4, default
symmetry c1  #important for SAPT in psi4, default
}

set PROPERTIES_ORIGIN ["COM"]
properties('MP2/aug-cc-pvtz', properties = ['dipole'])
--------------------------------------------------------------------------

    Molecular point group: c1
  Charge       = 0
  Multiplicity = 1
  Basis Set: AUG-CC-PVTZ
    Blend: AUG-CC-PVTZ
  Basis Set: (AUG-CC-PVTZ AUX)
    Blend: AUG-CC-PVTZ-JKFIT

    Orbital Energies [Eh]
    ---------------------

    Doubly Occupied:

       1A    -20.591384     2A    -20.580990     3A    -20.575032
       4A    -20.571092     5A    -20.559880     6A    -11.354124
       7A    -11.298847     8A    -11.290946     9A    -11.286113
      10A    -11.277380    11A     -1.437774    12A     -1.392327
      13A     -1.376952    14A     -1.353956    15A     -1.350124
      16A     -1.057942    17A     -1.022131    18A     -0.898610
      19A     -0.869801    20A     -0.798444    21A     -0.752010
      22A     -0.727261    23A     -0.711574    24A     -0.696548
      25A     -0.670356    26A     -0.646948    27A     -0.621378
      28A     -0.614297    29A     -0.602928    30A     -0.584521
      31A     -0.572575    32A     -0.557474    33A     -0.543145
      34A     -0.515219    35A     -0.502329    36A     -0.491558
      37A     -0.487897    38A     -0.469526    39A     -0.440373
      40A     -0.415852

  @DF-RHF Final Energy:  -569.67430380555265

   => Energetics <=

    Nuclear Repulsion Energy =            633.5796641902018109
    One-Electron Energy =               -2041.3727006667156729
    Two-Electron Energy =                 838.1187326709612080
    Total Energy =                       -569.6743038055526540
  Basis Set: (AUG-CC-PVTZ AUX)
    Blend: AUG-CC-PVTZ-RI
    Molecular point group: c1

    Geometry (in Angstrom), charge = 0, multiplicity = 1:

       Center              X                  Y                   Z               Mass
    ------------   -----------------  -----------------  -----------------  -----------------
         O           -0.116004960544    -1.809071707934     0.448542949663    15.994914619570
         O            0.357686739456     1.394973492066    -1.023138550337    15.994914619570
         O           -1.955898260544     1.372315492066     0.470622449663    15.994914619570
         O            2.714072739456     0.451568492066    -0.204127550337    15.994914619570
         O           -1.672373260544    -0.799236507934    -0.996945550337    15.994914619570
         C            0.430848739456     1.014541492066     0.351286449663    12.000000000000
         C           -0.910074260544     0.475264492066     0.841609449663    12.000000000000
         C            1.543704839456    -0.027258307934     0.413183049663    12.000000000000
         C           -1.215885260544    -0.935452507934     0.341257449663    12.000000000000
         C            1.054227739456    -1.315710507934    -0.227111550337    12.000000000000
         H            0.703513739456     1.888442492066     0.962127449663     1.007825032230
         H           -0.882625260544     0.433259492066     1.936876449663     1.007825032230
         H            1.783033739456    -0.230641507934     1.469579449663     1.007825032230
         H           -1.994694260544    -1.395874507934     0.963311449663     1.007825032230
         H            0.842859739456    -1.146546507934    -1.288428550337     1.007825032230
         H            1.805171739456    -2.100398507934    -0.124973550337     1.007825032230
         H           -0.393794260544     2.013105492066    -1.082130550337     1.007825032230
         H           -2.342450260544     0.977686492066    -0.338534550337     1.007825032230
         H            2.398957739456     0.936285492066    -0.991263550337     1.007825032230
         H           -1.996384260544    -1.675270507934    -1.276955550337     1.007825032230

  Basis Set: AUG-CC-PVTZ
    Blend: AUG-CC-PVTZ
  Basis Set: (AUG-CC-PVTZ AUX)
    Blend: AUG-CC-PVTZ-JKFIT
	 Reference Energy          =    -569.6743038055526540 [Eh]
	 Singles Energy            =      -0.0000000000000000 [Eh]
	 Same-Spin Energy          =      -0.5546298693884801 [Eh]
	 Opposite-Spin Energy      =      -1.7039265337177942 [Eh]
	 Correlation Energy        =      -2.2585564031062741 [Eh]
	 Total Energy              =    -571.9328602086588944 [Eh]

	 ================> DF-SCS-MP2 Energies <==================
	-----------------------------------------------------------
	 SCS Same-Spin Scale       =       0.3333333333333333 [-]
	 SCS Opposite-Spin Scale   =       1.2000000000000000 [-]
	 SCS Same-Spin Energy      =      -0.1848766231294934 [Eh]
	 SCS Opposite-Spin Energy  =      -2.0447118404613529 [Eh]
	 SCS Correlation Energy    =      -2.2295884635908463 [Eh]
	 SCS Total Energy          =    -571.9038922691435118 [Eh]
	-----------------------------------------------------------

  Dipole Moment: [D]
     X:    -2.1560      Y:    -0.9475      Z:    -0.3048     Total:     2.3746

*** Psi4 exiting successfully. Buy a developer a beer!
