                               Psi4 1.4a3.dev225

  ==> Input File <==

--------------------------------------------------------------------------
#psi4
#
memory 32 gb

molecule  {
0 1
  O       -0.2343850     1.7978400    -0.4145210
  O        0.4791390    -1.3900560     0.9851260
  O       -1.8902550    -1.4798720    -0.4079610
  O        2.7489250    -0.2990660     0.0843650
  O       -1.6766260     0.6849030     1.0797040
  C        0.4758930    -0.9871420    -0.3839460
  C       -0.9153110    -0.5160320    -0.8112700
  C        1.5148540     0.1205520    -0.4811210
  C       -1.2794180     0.8705190    -0.2725550
  C        0.9914930     1.3693070     0.2124490
  H        0.7732420    -1.8350180    -1.0199460
  H       -0.9367810    -0.4539690    -1.9062570
  H        1.7061480     0.3550680    -1.5342930
  H       -2.1075740     1.2945610    -0.8542440
  H        0.8333730     1.1741050     1.2776920
  H        1.6908660     2.1982840     0.0933200
  H       -0.2684360    -2.0097880     1.0741120
  H       -2.2907410    -1.1048270     0.4011470
  H        2.5052913    -0.7945467     0.8656371
  H       -2.0397460     1.5332780     1.3914430
units angstrom
no_reorient  #important for SAPT in psi4, default
symmetry c1  #important for SAPT in psi4, default
}

set PROPERTIES_ORIGIN ["COM"]
properties('MP2/aug-cc-pvtz', properties = ['dipole'])
--------------------------------------------------------------------------

    Molecular point group: c1
  Charge       = 0
  Multiplicity = 1
  Basis Set: AUG-CC-PVTZ
    Blend: AUG-CC-PVTZ
  Basis Set: (AUG-CC-PVTZ AUX)
    Blend: AUG-CC-PVTZ-JKFIT

    Orbital Energies [Eh]
    ---------------------

    Doubly Occupied:

       1A    -20.592075     2A    -20.581331     3A    -20.575272
       4A    -20.569819     5A    -20.557336     6A    -11.354955
       7A    -11.299730     8A    -11.291287     9A    -11.286533
      10A    -11.279036    11A     -1.438206    12A     -1.391536
      13A     -1.376767    14A     -1.354574    15A     -1.349493
      16A     -1.058451    17A     -1.023133    18A     -0.898663
      19A     -0.871058    20A     -0.798955    21A     -0.752444
      22A     -0.727350    23A     -0.712366    24A     -0.696287
      25A     -0.669137    26A     -0.648722    27A     -0.621120
      28A     -0.614940    29A     -0.601607    30A     -0.584943
      31A     -0.572812    32A     -0.557095    33A     -0.543139
      34A     -0.516198    35A     -0.503145    36A     -0.490645
      37A     -0.488068    38A     -0.471483    39A     -0.441281
      40A     -0.416276

  @DF-RHF Final Energy:  -569.67541156376274

   => Energetics <=

    Nuclear Repulsion Energy =            633.2528208362268742
    One-Electron Energy =               -2040.7019332919865064
    Two-Electron Energy =                 837.7737008919968957
    Total Energy =                       -569.6754115637627365
  Basis Set: (AUG-CC-PVTZ AUX)
    Blend: AUG-CC-PVTZ-RI
    Molecular point group: c1

    Geometry (in Angstrom), charge = 0, multiplicity = 1:

       Center              X                  Y                   Z               Mass
    ------------   -----------------  -----------------  -----------------  -----------------
         O           -0.235360695715     1.800040132966    -0.415655947886    15.994914619570
         O            0.478163304285    -1.387855867034     0.983991052114    15.994914619570
         O           -1.891230695715    -1.477671867034    -0.409095947886    15.994914619570
         O            2.747949304285    -0.296865867034     0.083230052114    15.994914619570
         O           -1.677601695715     0.687103132966     1.078569052114    15.994914619570
         C            0.474917304285    -0.984941867034    -0.385080947886    12.000000000000
         C           -0.916286695715    -0.513831867034    -0.812404947886    12.000000000000
         C            1.513878304285     0.122752132966    -0.482255947886    12.000000000000
         C           -1.280393695715     0.872719132966    -0.273689947886    12.000000000000
         C            0.990517304285     1.371507132966     0.211314052114    12.000000000000
         H            0.772266304285    -1.832817867034    -1.021080947886     1.007825032230
         H           -0.937756695715    -0.451768867034    -1.907391947886     1.007825032230
         H            1.705172304285     0.357268132966    -1.535427947886     1.007825032230
         H           -2.108549695715     1.296761132966    -0.855378947886     1.007825032230
         H            0.832397304285     1.176305132966     1.276557052114     1.007825032230
         H            1.689890304285     2.200484132966     0.092185052114     1.007825032230
         H           -0.269411695715    -2.007587867034     1.072977052114     1.007825032230
         H           -2.291716695715    -1.102626867034     0.400012052114     1.007825032230
         H            2.504315604285    -0.792346567034     0.864502152114     1.007825032230
         H           -2.040721695715     1.535478132966     1.390308052114     1.007825032230

  Basis Set: AUG-CC-PVTZ
    Blend: AUG-CC-PVTZ
  Basis Set: (AUG-CC-PVTZ AUX)
    Blend: AUG-CC-PVTZ-JKFIT
	 Reference Energy          =    -569.6754115637627365 [Eh]
	 Singles Energy            =      -0.0000000000000000 [Eh]
	 Same-Spin Energy          =      -0.5542482341352233 [Eh]
	 Opposite-Spin Energy      =      -1.7033480339064255 [Eh]
	 Correlation Energy        =      -2.2575962680416488 [Eh]
	 Total Energy              =    -571.9330078318043888 [Eh]

	 ================> DF-SCS-MP2 Energies <==================
	-----------------------------------------------------------
	 SCS Same-Spin Scale       =       0.3333333333333333 [-]
	 SCS Opposite-Spin Scale   =       1.2000000000000000 [-]
	 SCS Same-Spin Energy      =      -0.1847494113784078 [Eh]
	 SCS Opposite-Spin Energy  =      -2.0440176406877106 [Eh]
	 SCS Correlation Energy    =      -2.2287670520661185 [Eh]
	 SCS Total Energy          =    -571.9041786158288687 [Eh]
	-----------------------------------------------------------

  Dipole Moment: [D]
     X:    -2.2906      Y:     0.9797      Z:     0.3813     Total:     2.5204

*** Psi4 exiting successfully. Buy a developer a beer!
