                               Psi4 1.3.2 release

  ==> Input File <==

--------------------------------------------------------------------------
#psi4
#
memory 32 gb

molecule  {
0 1
  O       -0.1147700    -1.8002930     0.4548730
  O        0.3584290     1.3939840    -1.0246780
  O       -1.9551560     1.3713260     0.4690830
  O        2.7148150     0.4505790    -0.2056670
  O       -1.6716310    -0.8002260    -0.9984850
  C        0.4315910     1.0135520     0.3497470
  C       -0.9093320     0.4742750     0.8400700
  C        1.5345100    -0.0288940     0.4204030
  C       -1.2151430    -0.9364420     0.3397180
  C        1.0549700    -1.3167000    -0.2286510
  H        0.7042560     1.8874530     0.9605880
  H       -0.8818830     0.4322700     1.9353370
  H        1.7837760    -0.2316310     1.4680400
  H       -1.9939520    -1.3968640     0.9617720
  H        0.8436020    -1.1475360    -1.2899680
  H        1.8059140    -2.1013880    -0.1265130
  H       -0.3159635     1.9487067    -1.0776185
  H       -2.3417080     0.9766970    -0.3400740
  H        2.3997000     0.9352960    -0.9928030
  H       -1.9956420    -1.6762600    -1.2784950
units angstrom
no_reorient  #important for SAPT in psi4, default
symmetry c1  #important for SAPT in psi4, default
}

set PROPERTIES_ORIGIN ["COM"]
properties('MP2/aug-cc-pvtz', properties = ['dipole'])
--------------------------------------------------------------------------

    Molecular point group: c1
  Charge       = 0
  Multiplicity = 1
  Basis Set: AUG-CC-PVTZ
    Blend: AUG-CC-PVTZ
  Basis Set: (AUG-CC-PVTZ AUX)
    Blend: AUG-CC-PVTZ-JKFIT

    Orbital Energies [Eh]
    ---------------------

    Doubly Occupied:

       1A    -20.591949     2A    -20.581165     3A    -20.573999
       4A    -20.563144     5A    -20.558916     6A    -11.354241
       7A    -11.298936     8A    -11.292452     9A    -11.286318
      10A    -11.278701    11A     -1.440036    12A     -1.408185
      13A     -1.376291    14A     -1.356585    15A     -1.353943
      16A     -1.063762    17A     -1.023454    18A     -0.902503
      19A     -0.870640    20A     -0.806840    21A     -0.754923
      22A     -0.731416    23A     -0.713568    24A     -0.699867
      25A     -0.673943    26A     -0.646783    27A     -0.621788
      28A     -0.616650    29A     -0.605985    30A     -0.585831
      31A     -0.572453    32A     -0.556930    33A     -0.547549
      34A     -0.517754    35A     -0.503279    36A     -0.493337
      37A     -0.487993    38A     -0.472846    39A     -0.441414
      40A     -0.416892

  @DF-RHF Final Energy:  -569.66997332414121

   => Energetics <=

    Nuclear Repulsion Energy =            634.5070307085251216
    One-Electron Energy =               -2043.0674895491879397
    Two-Electron Energy =                 838.8904855165214940
    Total Energy =                       -569.6699733241412105
  Basis Set: (AUG-CC-PVTZ AUX)
    Blend: AUG-CC-PVTZ-RI
    Molecular point group: c1

    Geometry (in Angstrom), charge = 0, multiplicity = 1:

       Center              X                  Y                   Z               Mass
    ------------   -----------------  -----------------  -----------------  -----------------
         O           -0.115287854332    -1.799867187065     0.454832448512    15.994914619570
         O            0.357911145668     1.394409812935    -1.024718551488    15.994914619570
         O           -1.955673854332     1.371751812935     0.469042448512    15.994914619570
         O            2.714297145668     0.451004812935    -0.205707551488    15.994914619570
         O           -1.672148854332    -0.799800187065    -0.998525551488    15.994914619570
         C            0.431073145668     1.013977812935     0.349706448512    12.000000000000
         C           -0.909849854332     0.474700812935     0.840029448512    12.000000000000
         C            1.533992145668    -0.028468187065     0.420362448512    12.000000000000
         C           -1.215660854332    -0.936016187065     0.339677448512    12.000000000000
         C            1.054452145668    -1.316274187065    -0.228691551488    12.000000000000
         H            0.703738145668     1.887878812935     0.960547448512     1.007825032230
         H           -0.882400854332     0.432695812935     1.935296448512     1.007825032230
         H            1.783258145668    -0.231205187065     1.467999448512     1.007825032230
         H           -1.994469854332    -1.396438187065     0.961731448512     1.007825032230
         H            0.843084145668    -1.147110187065    -1.290008551488     1.007825032230
         H            1.805396145668    -2.100962187065    -0.126553551488     1.007825032230
         H           -0.316481354332     1.949132512935    -1.077659051488     1.007825032230
         H           -2.342225854332     0.977122812935    -0.340114551488     1.007825032230
         H            2.399182145668     0.935721812935    -0.992843551488     1.007825032230
         H           -1.996159854332    -1.675834187065    -1.278535551488     1.007825032230

  Basis Set: AUG-CC-PVTZ
    Blend: AUG-CC-PVTZ
  Basis Set: (AUG-CC-PVTZ AUX)
    Blend: AUG-CC-PVTZ-JKFIT
	 Reference Energy          =    -569.6699733241412105 [Eh]
	 Singles Energy            =      -0.0000000000000000 [Eh]
	 Same-Spin Energy          =      -0.5532610978442876 [Eh]
	 Opposite-Spin Energy      =      -1.7008414140734986 [Eh]
	 Correlation Energy        =      -2.2541025119177860 [Eh]
	 Total Energy              =    -571.9240758360590462 [Eh]

	 ================> DF-SCS-MP2 Energies <==================
	-----------------------------------------------------------
	 SCS Same-Spin Scale       =       0.3333333333333333 [-]
	 SCS Opposite-Spin Scale   =       1.2000000000000000 [-]
	 SCS Same-Spin Energy      =      -0.1844203659480959 [Eh]
	 SCS Opposite-Spin Energy  =      -2.0410096968881981 [Eh]
	 SCS Correlation Energy    =      -2.2254300628362937 [Eh]
	 SCS Total Energy          =    -571.8954033869774776 [Eh]
	-----------------------------------------------------------

  Dipole Moment: [D]
     X:    -2.0979      Y:    -1.0618      Z:    -0.2772     Total:     2.3676

*** Psi4 exiting successfully. Buy a developer a beer!
