                               Psi4 1.3.2 release

  ==> Input File <==

--------------------------------------------------------------------------
#psi4
#
memory 32 gb

molecule  {
0 1
  O       -0.1413638    -1.8288262     0.4845236
  O        0.3584290     1.3939840    -1.0246780
  O       -1.9551560     1.3713260     0.4690830
  O        2.7148150     0.4505790    -0.2056670
  O       -1.6716310    -0.8002260    -0.9984850
  C        0.4315910     1.0135520     0.3497470
  C       -0.9093320     0.4742750     0.8400700
  C        1.5345100    -0.0288940     0.4204030
  C       -1.2151430    -0.9364420     0.3397180
  C        1.0549700    -1.3167000    -0.2286510
  H        0.7042560     1.8874530     0.9605880
  H       -0.8818830     0.4322700     1.9353370
  H        1.7837760    -0.2316310     1.4680400
  H       -1.9695049    -1.4251237     0.9702823
  H        0.8436020    -1.1475360    -1.2899680
  H        1.8059140    -2.1013880    -0.1265130
  H       -0.3930520     2.0121160    -1.0836700
  H       -2.3417080     0.9766970    -0.3400740
  H        2.3997000     0.9352960    -0.9928030
  H       -1.9956420    -1.6762600    -1.2784950
units angstrom
no_reorient  #important for SAPT in psi4, default
symmetry c1  #important for SAPT in psi4, default
}

set PROPERTIES_ORIGIN ["COM"]
properties('MP2/aug-cc-pvtz', properties = ['dipole'])
--------------------------------------------------------------------------

    Molecular point group: c1
  Charge       = 0
  Multiplicity = 1
  Basis Set: AUG-CC-PVTZ
    Blend: AUG-CC-PVTZ
  Basis Set: (AUG-CC-PVTZ AUX)
    Blend: AUG-CC-PVTZ-JKFIT

    Orbital Energies [Eh]
    ---------------------

    Doubly Occupied:

       1A    -20.591865     2A    -20.582271     3A    -20.574600
       4A    -20.571953     5A    -20.560359     6A    -11.351617
       7A    -11.298613     8A    -11.291750     9A    -11.288116
      10A    -11.281979    11A     -1.434259    12A     -1.391754
      13A     -1.373950    14A     -1.350057    15A     -1.348959
      16A     -1.060555    17A     -1.019566    18A     -0.900364
      19A     -0.867634    20A     -0.798923    21A     -0.752543
      22A     -0.726807    23A     -0.705903    24A     -0.696198
      25A     -0.670137    26A     -0.645125    27A     -0.619006
      28A     -0.613476    29A     -0.601344    30A     -0.583014
      31A     -0.571465    32A     -0.556797    33A     -0.542876
      34A     -0.516108    35A     -0.499568    36A     -0.492612
      37A     -0.487136    38A     -0.475004    39A     -0.441301
      40A     -0.418884

  @DF-RHF Final Energy:  -569.67009211066556

   => Energetics <=

    Nuclear Repulsion Energy =            632.5274682297640538
    One-Electron Energy =               -2039.2862232169147774
    Two-Electron Energy =                 837.0886628764851594
    Total Energy =                       -569.6700921106655642
  Basis Set: (AUG-CC-PVTZ AUX)
    Blend: AUG-CC-PVTZ-RI
    Molecular point group: c1

    Geometry (in Angstrom), charge = 0, multiplicity = 1:

       Center              X                  Y                   Z               Mass
    ------------   -----------------  -----------------  -----------------  -----------------
         O           -0.138693317918    -1.825594965338     0.481305921652    15.994914619570
         O            0.361099482082     1.397215234662    -1.027895678348    15.994914619570
         O           -1.952485517918     1.374557234662     0.465865321652    15.994914619570
         O            2.717485482082     0.453810234662    -0.208884678348    15.994914619570
         O           -1.668960517918    -0.796994765338    -1.001702678348    15.994914619570
         C            0.434261482082     1.016783234662     0.346529321652    12.000000000000
         C           -0.906661517918     0.477506234662     0.836852321652    12.000000000000
         C            1.537180482082    -0.025662765338     0.417185321652    12.000000000000
         C           -1.212472517918    -0.933210765338     0.336500321652    12.000000000000
         C            1.057640482082    -1.313468765338    -0.231868678348    12.000000000000
         H            0.706926482082     1.890684234662     0.957370321652     1.007825032230
         H           -0.879212517918     0.435501234662     1.932119321652     1.007825032230
         H            1.786446482082    -0.228399765338     1.464822321652     1.007825032230
         H           -1.966834417918    -1.421892465338     0.967064621652     1.007825032230
         H            0.846272482082    -1.144304765338    -1.293185678348     1.007825032230
         H            1.808584482082    -2.098156765338    -0.129730678348     1.007825032230
         H           -0.390381517918     2.015347234662    -1.086887678348     1.007825032230
         H           -2.339037517918     0.979928234662    -0.343291678348     1.007825032230
         H            2.402370482082     0.938527234662    -0.996020678348     1.007825032230
         H           -1.992971517918    -1.673028765338    -1.281712678348     1.007825032230

  Basis Set: AUG-CC-PVTZ
    Blend: AUG-CC-PVTZ
  Basis Set: (AUG-CC-PVTZ AUX)
    Blend: AUG-CC-PVTZ-JKFIT
	 Reference Energy          =    -569.6700921106655642 [Eh]
	 Singles Energy            =      -0.0000000000000000 [Eh]
	 Same-Spin Energy          =      -0.5550796750434721 [Eh]
	 Opposite-Spin Energy      =      -1.7056080471854751 [Eh]
	 Correlation Energy        =      -2.2606877222289472 [Eh]
	 Total Energy              =    -571.9307798328944727 [Eh]

	 ================> DF-SCS-MP2 Energies <==================
	-----------------------------------------------------------
	 SCS Same-Spin Scale       =       0.3333333333333333 [-]
	 SCS Opposite-Spin Scale   =       1.2000000000000000 [-]
	 SCS Same-Spin Energy      =      -0.1850265583478240 [Eh]
	 SCS Opposite-Spin Energy  =      -2.0467296566225701 [Eh]
	 SCS Correlation Energy    =      -2.2317562149703942 [Eh]
	 SCS Total Energy          =    -571.9018483256359104 [Eh]
	-----------------------------------------------------------

  Dipole Moment: [D]
     X:    -2.0533      Y:    -0.9209      Z:    -0.3781     Total:     2.2819

*** Psi4 exiting successfully. Buy a developer a beer!
