                               Psi4 1.4a3.dev225

  ==> Input File <==

--------------------------------------------------------------------------
#psi4
#
memory 32 gb

molecule  {
0 1
  O       -0.2343850     1.7978400    -0.4145210
  O        0.4791390    -1.3900560     0.9851260
  O       -1.8902550    -1.4798720    -0.4079610
  O        2.7489250    -0.2990660     0.0843650
  O       -1.6766260     0.6849030     1.0797040
  C        0.4758930    -0.9871420    -0.3839460
  C       -0.9153110    -0.5160320    -0.8112700
  C        1.5148540     0.1205520    -0.4811210
  C       -1.2794180     0.8705190    -0.2725550
  C        0.9914930     1.3693070     0.2124490
  H        0.7597362    -1.7965069    -0.9910585
  H       -0.9367810    -0.4539690    -1.9062570
  H        1.7061480     0.3550680    -1.5342930
  H       -2.1075740     1.2945610    -0.8542440
  H        0.8333730     1.1741050     1.2776920
  H        1.6908660     2.1982840     0.0933200
  H       -0.2684360    -2.0097880     1.0741120
  H       -2.2907410    -1.1048270     0.4011470
  H        2.5001980    -0.8049050     0.8819700
  H       -2.0397460     1.5332780     1.3914430
units angstrom
no_reorient  #important for SAPT in psi4, default
symmetry c1  #important for SAPT in psi4, default
}

set PROPERTIES_ORIGIN ["COM"]
properties('MP2/aug-cc-pvtz', properties = ['dipole'])
--------------------------------------------------------------------------

    Molecular point group: c1
  Charge       = 0
  Multiplicity = 1
  Basis Set: AUG-CC-PVTZ
    Blend: AUG-CC-PVTZ
  Basis Set: (AUG-CC-PVTZ AUX)
    Blend: AUG-CC-PVTZ-JKFIT

    Orbital Energies [Eh]
    ---------------------

    Doubly Occupied:

       1A    -20.591814     2A    -20.580938     3A    -20.575170
       4A    -20.569160     5A    -20.558621     6A    -11.354565
       7A    -11.299257     8A    -11.285999     9A    -11.285003
      10A    -11.278491    11A     -1.437857    12A     -1.390728
      13A     -1.375345    14A     -1.353735    15A     -1.347184
      16A     -1.059121    17A     -1.022402    18A     -0.901796
      19A     -0.870053    20A     -0.798221    21A     -0.752187
      22A     -0.730876    23A     -0.712382    24A     -0.696033
      25A     -0.668514    26A     -0.647850    27A     -0.621411
      28A     -0.614935    29A     -0.602114    30A     -0.584444
      31A     -0.572422    32A     -0.556830    33A     -0.543090
      34A     -0.516289    35A     -0.503103    36A     -0.491007
      37A     -0.487556    38A     -0.471470    39A     -0.440905
      40A     -0.416861

  @DF-RHF Final Energy:  -569.67392000219184

   => Energetics <=

    Nuclear Repulsion Energy =            633.4651690107082231
    One-Electron Energy =               -2041.1467013220733406
    Two-Electron Energy =                 838.0076123091732825
    Total Energy =                       -569.6739200021918350
  Basis Set: (AUG-CC-PVTZ AUX)
    Blend: AUG-CC-PVTZ-RI
    Molecular point group: c1

    Geometry (in Angstrom), charge = 0, multiplicity = 1:

       Center              X                  Y                   Z               Mass
    ------------   -----------------  -----------------  -----------------  -----------------
         O           -0.235235775450     1.799851045577    -0.415959669269    15.994914619570
         O            0.478288224550    -1.388044954423     0.983687330731    15.994914619570
         O           -1.891105775450    -1.477860954423    -0.409399669269    15.994914619570
         O            2.748074224550    -0.297054954423     0.082926330731    15.994914619570
         O           -1.677476775450     0.686914045577     1.078265330731    15.994914619570
         C            0.475042224550    -0.985130954423    -0.385384669269    12.000000000000
         C           -0.916161775450    -0.514020954423    -0.812708669269    12.000000000000
         C            1.514003224550     0.122563045577    -0.482559669269    12.000000000000
         C           -1.280268775450     0.872530045577    -0.273993669269    12.000000000000
         C            0.990642224550     1.371318045577     0.211010330731    12.000000000000
         H            0.758885424550    -1.794495854423    -0.992497169269     1.007825032230
         H           -0.937631775450    -0.451957954423    -1.907695669269     1.007825032230
         H            1.705297224550     0.357079045577    -1.535731669269     1.007825032230
         H           -2.108424775450     1.296572045577    -0.855682669269     1.007825032230
         H            0.832522224550     1.176116045577     1.276253330731     1.007825032230
         H            1.690015224550     2.200295045577     0.091881330731     1.007825032230
         H           -0.269286775450    -2.007776954423     1.072673330731     1.007825032230
         H           -2.291591775450    -1.102815954423     0.399708330731     1.007825032230
         H            2.499347224550    -0.802893954423     0.880531330731     1.007825032230
         H           -2.040596775450     1.535289045577     1.390004330731     1.007825032230

  Basis Set: AUG-CC-PVTZ
    Blend: AUG-CC-PVTZ
  Basis Set: (AUG-CC-PVTZ AUX)
    Blend: AUG-CC-PVTZ-JKFIT
	 Reference Energy          =    -569.6739200021918350 [Eh]
	 Singles Energy            =      -0.0000000000000000 [Eh]
	 Same-Spin Energy          =      -0.5544240006947672 [Eh]
	 Opposite-Spin Energy      =      -1.7035721946072537 [Eh]
	 Correlation Energy        =      -2.2579961953020211 [Eh]
	 Total Energy              =    -571.9319161974938197 [Eh]

	 ================> DF-SCS-MP2 Energies <==================
	-----------------------------------------------------------
	 SCS Same-Spin Scale       =       0.3333333333333333 [-]
	 SCS Opposite-Spin Scale   =       1.2000000000000000 [-]
	 SCS Same-Spin Energy      =      -0.1848080002315891 [Eh]
	 SCS Opposite-Spin Energy  =      -2.0442866335287042 [Eh]
	 SCS Correlation Energy    =      -2.2290946337602930 [Eh]
	 SCS Total Energy          =    -571.9030146359521041 [Eh]
	-----------------------------------------------------------

  Dipole Moment: [D]
     X:    -2.2857      Y:     0.9426      Z:     0.3712     Total:     2.5001

*** Psi4 exiting successfully. Buy a developer a beer!
