                               Psi4 1.3.2 release

  ==> Input File <==

--------------------------------------------------------------------------
#psi4
#
memory 32 gb

molecule  {
0 1
  O       -0.1147700    -1.8002930     0.4548730
  O        0.3584290     1.3939840    -1.0246780
  O       -1.9383074     1.3861679     0.4583102
  O        2.7148150     0.4505790    -0.2056670
  O       -1.6716310    -0.8002260    -0.9984850
  C        0.4190541     1.0346474     0.3393865
  C       -0.9093320     0.4742750     0.8400700
  C        1.5345100    -0.0288940     0.4204030
  C       -1.2151430    -0.9364420     0.3397180
  C        1.0549700    -1.3167000    -0.2286510
  H        0.7042560     1.8874530     0.9605880
  H       -0.8818830     0.4322700     1.9353370
  H        1.7837760    -0.2316310     1.4680400
  H       -1.9939520    -1.3968640     0.9617720
  H        0.8436020    -1.1475360    -1.2899680
  H        1.8059140    -2.1013880    -0.1265130
  H       -0.3930520     2.0121160    -1.0836700
  H       -2.3417080     0.9766970    -0.3400740
  H        2.3997000     0.9352960    -0.9928030
  H       -1.9956420    -1.6762600    -1.2784950
units angstrom
no_reorient  #important for SAPT in psi4, default
symmetry c1  #important for SAPT in psi4, default
}

set PROPERTIES_ORIGIN ["COM"]
properties('MP2/aug-cc-pvtz', properties = ['dipole'])
--------------------------------------------------------------------------

    Molecular point group: c1
  Charge       = 0
  Multiplicity = 1
  Basis Set: AUG-CC-PVTZ
    Blend: AUG-CC-PVTZ
  Basis Set: (AUG-CC-PVTZ AUX)
    Blend: AUG-CC-PVTZ-JKFIT

    Orbital Energies [Eh]
    ---------------------

    Doubly Occupied:

       1A    -20.591943     2A    -20.580689     3A    -20.574197
       4A    -20.572730     5A    -20.557246     6A    -11.354405
       7A    -11.297542     8A    -11.289625     9A    -11.285134
      10A    -11.277656    11A     -1.438839    12A     -1.395094
      13A     -1.374992    14A     -1.353903    15A     -1.349084
      16A     -1.054814    17A     -1.022128    18A     -0.898403
      19A     -0.867962    20A     -0.798212    21A     -0.752186
      22A     -0.728736    23A     -0.712623    24A     -0.694929
      25A     -0.670722    26A     -0.646526    27A     -0.621278
      28A     -0.614896    29A     -0.602688    30A     -0.584112
      31A     -0.571123    32A     -0.555920    33A     -0.545774
      34A     -0.515302    35A     -0.502855    36A     -0.491752
      37A     -0.486756    38A     -0.469350    39A     -0.437276
      40A     -0.415644

  @DF-RHF Final Energy:  -569.67377055160932

   => Energetics <=

    Nuclear Repulsion Energy =            633.8340685823918648
    One-Electron Energy =               -2041.9055856502509414
    Two-Electron Energy =                 838.3977465162497538
    Total Energy =                       -569.6737705516093229
  Basis Set: (AUG-CC-PVTZ AUX)
    Blend: AUG-CC-PVTZ-RI
    Molecular point group: c1

    Geometry (in Angstrom), charge = 0, multiplicity = 1:

       Center              X                  Y                   Z               Mass
    ------------   -----------------  -----------------  -----------------  -----------------
         O           -0.115563473261    -1.803562187202     0.456849970491    15.994914619570
         O            0.357635526739     1.390714812798    -1.022701029509    15.994914619570
         O           -1.939100873261     1.382898712798     0.460287170491    15.994914619570
         O            2.714021526739     0.447309812798    -0.203690029509    15.994914619570
         O           -1.672424473261    -0.803495187202    -0.996508029509    15.994914619570
         C            0.418260626739     1.031378212798     0.341363470491    12.000000000000
         C           -0.910125473261     0.471005812798     0.842046970491    12.000000000000
         C            1.533716526739    -0.032163187202     0.422379970491    12.000000000000
         C           -1.215936473261    -0.939711187202     0.341694970491    12.000000000000
         C            1.054176526739    -1.319969187202    -0.226674029509    12.000000000000
         H            0.703462526739     1.884183812798     0.962564970491     1.007825032230
         H           -0.882676473261     0.429000812798     1.937313970491     1.007825032230
         H            1.782982526739    -0.234900187202     1.470016970491     1.007825032230
         H           -1.994745473261    -1.400133187202     0.963748970491     1.007825032230
         H            0.842808526739    -1.150805187202    -1.287991029509     1.007825032230
         H            1.805120526739    -2.104657187202    -0.124536029509     1.007825032230
         H           -0.393845473261     2.008846812798    -1.081693029509     1.007825032230
         H           -2.342501473261     0.973427812798    -0.338097029509     1.007825032230
         H            2.398906526739     0.932026812798    -0.990826029509     1.007825032230
         H           -1.996435473261    -1.679529187202    -1.276518029509     1.007825032230

  Basis Set: AUG-CC-PVTZ
    Blend: AUG-CC-PVTZ
  Basis Set: (AUG-CC-PVTZ AUX)
    Blend: AUG-CC-PVTZ-JKFIT
	 Reference Energy          =    -569.6737705516093229 [Eh]
	 Singles Energy            =      -0.0000000000000000 [Eh]
	 Same-Spin Energy          =      -0.5546499291040663 [Eh]
	 Opposite-Spin Energy      =      -1.7038956855723644 [Eh]
	 Correlation Energy        =      -2.2585456146764304 [Eh]
	 Total Energy              =    -571.9323161662857729 [Eh]

	 ================> DF-SCS-MP2 Energies <==================
	-----------------------------------------------------------
	 SCS Same-Spin Scale       =       0.3333333333333333 [-]
	 SCS Opposite-Spin Scale   =       1.2000000000000000 [-]
	 SCS Same-Spin Energy      =      -0.1848833097013554 [Eh]
	 SCS Opposite-Spin Energy  =      -2.0446748226868370 [Eh]
	 SCS Correlation Energy    =      -2.2295581323881923 [Eh]
	 SCS Total Energy          =    -571.9033286839975290 [Eh]
	-----------------------------------------------------------

  Dipole Moment: [D]
     X:    -2.2367      Y:    -0.9927      Z:    -0.3170     Total:     2.4676

*** Psi4 exiting successfully. Buy a developer a beer!
