                               Psi4 1.3.2 release

  ==> Input File <==

--------------------------------------------------------------------------
#psi4
#
memory 32 gb

molecule  {
0 1
  O       -0.1147700    -1.8002930     0.4548730
  O        0.3584290     1.3939840    -1.0246780
  O       -1.9551560     1.3713260     0.4690830
  O        2.7148150     0.4505790    -0.2056670
  O       -1.6716310    -0.8002260    -0.9984850
  C        0.4315910     1.0135520     0.3497470
  C       -0.9093320     0.4742750     0.8400700
  C        1.5345100    -0.0288940     0.4204030
  C       -1.2151430    -0.9364420     0.3397180
  C        1.0549700    -1.3167000    -0.2286510
  H        0.7042560     1.8874530     0.9605880
  H       -0.8818830     0.4322700     1.9353370
  H        1.8065234    -0.2501323     1.5636447
  H       -1.9939520    -1.3968640     0.9617720
  H        0.8436020    -1.1475360    -1.2899680
  H        1.8059140    -2.1013880    -0.1265130
  H       -0.3930520     2.0121160    -1.0836700
  H       -2.3417080     0.9766970    -0.3400740
  H        2.3997000     0.9352960    -0.9928030
  H       -1.9956420    -1.6762600    -1.2784950
units angstrom
no_reorient  #important for SAPT in psi4, default
symmetry c1  #important for SAPT in psi4, default
}

set PROPERTIES_ORIGIN ["COM"]
properties('MP2/aug-cc-pvtz', properties = ['dipole'])
--------------------------------------------------------------------------

    Molecular point group: c1
  Charge       = 0
  Multiplicity = 1
  Basis Set: AUG-CC-PVTZ
    Blend: AUG-CC-PVTZ
  Basis Set: (AUG-CC-PVTZ AUX)
    Blend: AUG-CC-PVTZ-JKFIT

    Orbital Energies [Eh]
    ---------------------

    Doubly Occupied:

       1A    -20.591754     2A    -20.580811     3A    -20.574756
       4A    -20.571984     5A    -20.559952     6A    -11.353932
       7A    -11.298400     8A    -11.297550     9A    -11.291966
      10A    -11.279316    11A     -1.438859    12A     -1.392177
      13A     -1.376070    14A     -1.354205    15A     -1.348649
      16A     -1.057634    17A     -1.022190    18A     -0.899237
      19A     -0.866679    20A     -0.792923    21A     -0.750966
      22A     -0.727862    23A     -0.712166    24A     -0.696376
      25A     -0.669570    26A     -0.646176    27A     -0.620811
      28A     -0.614568    29A     -0.602655    30A     -0.579305
      31A     -0.571762    32A     -0.556622    33A     -0.542392
      34A     -0.512638    35A     -0.502864    36A     -0.491418
      37A     -0.486100    38A     -0.468165    39A     -0.441252
      40A     -0.416195

  @DF-RHF Final Energy:  -569.66785679705822

   => Energetics <=

    Nuclear Repulsion Energy =            633.2593671085105598
    One-Electron Energy =               -2040.7366333866273180
    Two-Electron Energy =                 837.8094094810585375
    Total Energy =                       -569.6678567970582208
  Basis Set: (AUG-CC-PVTZ AUX)
    Blend: AUG-CC-PVTZ-RI
    Molecular point group: c1

    Geometry (in Angstrom), charge = 0, multiplicity = 1:

       Center              X                  Y                   Z               Mass
    ------------   -----------------  -----------------  -----------------  -----------------
         O           -0.114922874057    -1.800168810224     0.454230967282    15.994914619570
         O            0.358276125943     1.394108189776    -1.025320032718    15.994914619570
         O           -1.955308874057     1.371450189776     0.468440967282    15.994914619570
         O            2.714662125943     0.450703189776    -0.206309032718    15.994914619570
         O           -1.671783874057    -0.800101810224    -0.999127032718    15.994914619570
         C            0.431438125943     1.013676189776     0.349104967282    12.000000000000
         C           -0.909484874057     0.474399189776     0.839427967282    12.000000000000
         C            1.534357125943    -0.028769810224     0.419760967282    12.000000000000
         C           -1.215295874057    -0.936317810224     0.339075967282    12.000000000000
         C            1.054817125943    -1.316575810224    -0.229293032718    12.000000000000
         H            0.704103125943     1.887577189776     0.959945967282     1.007825032230
         H           -0.882035874057     0.432394189776     1.934694967282     1.007825032230
         H            1.806370525943    -0.250008110224     1.563002667282     1.007825032230
         H           -1.994104874057    -1.396739810224     0.961129967282     1.007825032230
         H            0.843449125943    -1.147411810224    -1.290610032718     1.007825032230
         H            1.805761125943    -2.101263810224    -0.127155032718     1.007825032230
         H           -0.393204874057     2.012240189776    -1.084312032718     1.007825032230
         H           -2.341860874057     0.976821189776    -0.340716032718     1.007825032230
         H            2.399547125943     0.935420189776    -0.993445032718     1.007825032230
         H           -1.995794874057    -1.676135810224    -1.279137032718     1.007825032230

  Basis Set: AUG-CC-PVTZ
    Blend: AUG-CC-PVTZ
  Basis Set: (AUG-CC-PVTZ AUX)
    Blend: AUG-CC-PVTZ-JKFIT
	 Reference Energy          =    -569.6678567970582208 [Eh]
	 Singles Energy            =      -0.0000000000000000 [Eh]
	 Same-Spin Energy          =      -0.5547597725639485 [Eh]
	 Opposite-Spin Energy      =      -1.7047709927079771 [Eh]
	 Correlation Energy        =      -2.2595307652719256 [Eh]
	 Total Energy              =    -571.9273875623301819 [Eh]

	 ================> DF-SCS-MP2 Energies <==================
	-----------------------------------------------------------
	 SCS Same-Spin Scale       =       0.3333333333333333 [-]
	 SCS Opposite-Spin Scale   =       1.2000000000000000 [-]
	 SCS Same-Spin Energy      =      -0.1849199241879828 [Eh]
	 SCS Opposite-Spin Energy  =      -2.0457251912495722 [Eh]
	 SCS Correlation Energy    =      -2.2306451154375551 [Eh]
	 SCS Total Energy          =    -571.8985019124958171 [Eh]
	-----------------------------------------------------------

  Dipole Moment: [D]
     X:    -2.1815      Y:    -0.9816      Z:    -0.3573     Total:     2.4187

*** Psi4 exiting successfully. Buy a developer a beer!
