                               Psi4 1.3.2 release

  ==> Input File <==

--------------------------------------------------------------------------
#psi4
#
memory 32 gb

molecule  {
0 1
  O       -0.1147700    -1.8002930     0.4548730
  O        0.3584290     1.3939840    -1.0246780
  O       -1.9551560     1.3713260     0.4690830
  O        2.7148150     0.4505790    -0.2056670
  O       -1.6716310    -0.8002260    -0.9984850
  C        0.4315910     1.0135520     0.3497470
  C       -0.9093320     0.4742750     0.8400700
  C        1.5356849    -0.0352394     0.4319895
  C       -1.2151430    -0.9364420     0.3397180
  C        1.0549700    -1.3167000    -0.2286510
  H        0.7042560     1.8874530     0.9605880
  H       -0.8818830     0.4322700     1.9353370
  H        1.7837760    -0.2316310     1.4680400
  H       -1.9939520    -1.3968640     0.9617720
  H        0.8410737    -1.1567083    -1.2908834
  H        1.8059140    -2.1013880    -0.1265130
  H       -0.3930520     2.0121160    -1.0836700
  H       -2.3417080     0.9766970    -0.3400740
  H        2.3997000     0.9352960    -0.9928030
  H       -1.9956420    -1.6762600    -1.2784950
units angstrom
no_reorient  #important for SAPT in psi4, default
symmetry c1  #important for SAPT in psi4, default
}

set PROPERTIES_ORIGIN ["COM"]
properties('MP2/aug-cc-pvtz', properties = ['dipole'])
--------------------------------------------------------------------------

    Molecular point group: c1
  Charge       = 0
  Multiplicity = 1
  Basis Set: AUG-CC-PVTZ
    Blend: AUG-CC-PVTZ
  Basis Set: (AUG-CC-PVTZ AUX)
    Blend: AUG-CC-PVTZ-JKFIT

    Orbital Energies [Eh]
    ---------------------

    Doubly Occupied:

       1A    -20.591585     2A    -20.580535     3A    -20.574433
       4A    -20.571262     5A    -20.557245     6A    -11.353802
       7A    -11.298174     8A    -11.291299     9A    -11.285669
      10A    -11.278376    11A     -1.438671    12A     -1.390837
      13A     -1.374876    14A     -1.353698    15A     -1.346112
      16A     -1.058713    17A     -1.023150    18A     -0.898203
      19A     -0.870312    20A     -0.799024    21A     -0.752266
      22A     -0.727205    23A     -0.711585    24A     -0.695637
      25A     -0.669398    26A     -0.646318    27A     -0.620810
      28A     -0.613755    29A     -0.602765    30A     -0.585878
      31A     -0.571333    32A     -0.554753    33A     -0.542759
      34A     -0.516894    35A     -0.502459    36A     -0.490777
      37A     -0.487554    38A     -0.472222    39A     -0.439796
      40A     -0.416098

  @DF-RHF Final Energy:  -569.67450688751592

   => Energetics <=

    Nuclear Repulsion Energy =            633.6478332704946297
    One-Electron Energy =               -2041.5322127844444822
    Two-Electron Energy =                 838.2098726264339348
    Total Energy =                       -569.6745068875159177
  Basis Set: (AUG-CC-PVTZ AUX)
    Blend: AUG-CC-PVTZ-RI
    Molecular point group: c1

    Geometry (in Angstrom), charge = 0, multiplicity = 1:

       Center              X                  Y                   Z               Mass
    ------------   -----------------  -----------------  -----------------  -----------------
         O           -0.114847069531    -1.799724014859     0.453952647780    15.994914619570
         O            0.358351930469     1.394552985141    -1.025598352220    15.994914619570
         O           -1.955233069531     1.371894985141     0.468162647780    15.994914619570
         O            2.714737930469     0.451147985141    -0.206587352220    15.994914619570
         O           -1.671708069531    -0.799657014859    -0.999405352220    15.994914619570
         C            0.431513930469     1.014120985141     0.348826647780    12.000000000000
         C           -0.909409069531     0.474843985141     0.839149647780    12.000000000000
         C            1.535607830469    -0.034670414859     0.431069147780    12.000000000000
         C           -1.215220069531    -0.935873014859     0.338797647780    12.000000000000
         C            1.054892930469    -1.316131014859    -0.229571352220    12.000000000000
         H            0.704178930469     1.888021985141     0.959667647780     1.007825032230
         H           -0.881960069531     0.432838985141     1.934416647780     1.007825032230
         H            1.783698930469    -0.231062014859     1.467119647780     1.007825032230
         H           -1.994029069531    -1.396295014859     0.960851647780     1.007825032230
         H            0.840996630469    -1.156139314859    -1.291803752220     1.007825032230
         H            1.805836930469    -2.100819014859    -0.127433352220     1.007825032230
         H           -0.393129069531     2.012684985141    -1.084590352220     1.007825032230
         H           -2.341785069531     0.977265985141    -0.340994352220     1.007825032230
         H            2.399622930469     0.935864985141    -0.993723352220     1.007825032230
         H           -1.995719069531    -1.675691014859    -1.279415352220     1.007825032230

  Basis Set: AUG-CC-PVTZ
    Blend: AUG-CC-PVTZ
  Basis Set: (AUG-CC-PVTZ AUX)
    Blend: AUG-CC-PVTZ-JKFIT
	 Reference Energy          =    -569.6745068875159177 [Eh]
	 Singles Energy            =      -0.0000000000000000 [Eh]
	 Same-Spin Energy          =      -0.5545441349960082 [Eh]
	 Opposite-Spin Energy      =      -1.7038759927634870 [Eh]
	 Correlation Energy        =      -2.2584201277594951 [Eh]
	 Total Energy              =    -571.9329270152753679 [Eh]

	 ================> DF-SCS-MP2 Energies <==================
	-----------------------------------------------------------
	 SCS Same-Spin Scale       =       0.3333333333333333 [-]
	 SCS Opposite-Spin Scale   =       1.2000000000000000 [-]
	 SCS Same-Spin Energy      =      -0.1848480449986694 [Eh]
	 SCS Opposite-Spin Energy  =      -2.0446511913161842 [Eh]
	 SCS Correlation Energy    =      -2.2294992363148536 [Eh]
	 SCS Total Energy          =    -571.9040061238307544 [Eh]
	-----------------------------------------------------------

  Dipole Moment: [D]
     X:    -2.1875      Y:    -1.0113      Z:    -0.2824     Total:     2.4265

*** Psi4 exiting successfully. Buy a developer a beer!
