                               Psi4 1.3.2 release

  ==> Input File <==

--------------------------------------------------------------------------
#psi4
#
memory 32 gb

molecule  {
0 1
  O       -0.1147700    -1.8002930     0.4548730
  O        0.3584290     1.3939840    -1.0246780
  O       -1.9551560     1.3713260     0.4690830
  O        2.7148150     0.4505790    -0.2056670
  O       -1.6716310    -0.8002260    -0.9984850
  C        0.4273398     1.0125206     0.3371673
  C       -0.9093320     0.4742750     0.8400700
  C        1.5345100    -0.0288940     0.4204030
  C       -1.2151430    -0.9364420     0.3397180
  C        1.0549700    -1.3167000    -0.2286510
  H        0.7042560     1.8874530     0.9605880
  H       -0.8908123     0.4288332     1.9353872
  H        1.7837760    -0.2316310     1.4680400
  H       -1.9939520    -1.3968640     0.9617720
  H        0.8436020    -1.1475360    -1.2899680
  H        1.8059140    -2.1013880    -0.1265130
  H       -0.3930520     2.0121160    -1.0836700
  H       -2.3417080     0.9766970    -0.3400740
  H        2.3997000     0.9352960    -0.9928030
  H       -1.9956420    -1.6762600    -1.2784950
units angstrom
no_reorient  #important for SAPT in psi4, default
symmetry c1  #important for SAPT in psi4, default
}

set PROPERTIES_ORIGIN ["COM"]
properties('MP2/aug-cc-pvtz', properties = ['dipole'])
--------------------------------------------------------------------------

    Molecular point group: c1
  Charge       = 0
  Multiplicity = 1
  Basis Set: AUG-CC-PVTZ
    Blend: AUG-CC-PVTZ
  Basis Set: (AUG-CC-PVTZ AUX)
    Blend: AUG-CC-PVTZ-JKFIT

    Orbital Energies [Eh]
    ---------------------

    Doubly Occupied:

       1A    -20.591597     2A    -20.580661     3A    -20.574422
       4A    -20.572770     5A    -20.558198     6A    -11.353525
       7A    -11.298014     8A    -11.291282     9A    -11.285458
      10A    -11.277898    11A     -1.438847    12A     -1.394377
      13A     -1.375860    14A     -1.353980    15A     -1.349489
      16A     -1.058141    17A     -1.022873    18A     -0.897908
      19A     -0.869534    20A     -0.799296    21A     -0.752759
      22A     -0.727420    23A     -0.712215    24A     -0.696612
      25A     -0.671166    26A     -0.646138    27A     -0.621003
      28A     -0.615075    29A     -0.602687    30A     -0.584541
      31A     -0.571597    32A     -0.555720    33A     -0.544595
      34A     -0.516626    35A     -0.502428    36A     -0.491266
      37A     -0.487578    38A     -0.471219    39A     -0.440165
      40A     -0.414480

  @DF-RHF Final Energy:  -569.67456649388896

   => Energetics <=

    Nuclear Repulsion Energy =            633.9898655095489630
    One-Electron Energy =               -2042.1900232186105768
    Two-Electron Energy =                 838.5255912151726534
    Total Energy =                       -569.6745664938889604
  Basis Set: (AUG-CC-PVTZ AUX)
    Blend: AUG-CC-PVTZ-RI
    Molecular point group: c1

    Geometry (in Angstrom), charge = 0, multiplicity = 1:

       Center              X                  Y                   Z               Mass
    ------------   -----------------  -----------------  -----------------  -----------------
         O           -0.114370142230    -1.800187507507     0.455878777776    15.994914619570
         O            0.358828857770     1.394089492493    -1.023672222224    15.994914619570
         O           -1.954756142230     1.371431492493     0.470088777776    15.994914619570
         O            2.715214857770     0.450684492493    -0.204661222224    15.994914619570
         O           -1.671231142230    -0.800120507507    -0.997479222224    15.994914619570
         C            0.427739657770     1.012626092493     0.338173077776    12.000000000000
         C           -0.908932142230     0.474380492493     0.841075777776    12.000000000000
         C            1.534909857770    -0.028788507507     0.421408777776    12.000000000000
         C           -1.214743142230    -0.936336507507     0.340723777776    12.000000000000
         C            1.055369857770    -1.316594507507    -0.227645222224    12.000000000000
         H            0.704655857770     1.887558492493     0.961593777776     1.007825032230
         H           -0.890412442230     0.428938692493     1.936392977776     1.007825032230
         H            1.784175857770    -0.231525507507     1.469045777776     1.007825032230
         H           -1.993552142230    -1.396758507507     0.962777777776     1.007825032230
         H            0.844001857770    -1.147430507507    -1.288962222224     1.007825032230
         H            1.806313857770    -2.101282507507    -0.125507222224     1.007825032230
         H           -0.392652142230     2.012221492493    -1.082664222224     1.007825032230
         H           -2.341308142230     0.976802492493    -0.339068222224     1.007825032230
         H            2.400099857770     0.935401492493    -0.991797222224     1.007825032230
         H           -1.995242142230    -1.676154507507    -1.277489222224     1.007825032230

  Basis Set: AUG-CC-PVTZ
    Blend: AUG-CC-PVTZ
  Basis Set: (AUG-CC-PVTZ AUX)
    Blend: AUG-CC-PVTZ-JKFIT
	 Reference Energy          =    -569.6745664938889604 [Eh]
	 Singles Energy            =      -0.0000000000000000 [Eh]
	 Same-Spin Energy          =      -0.5546374116598659 [Eh]
	 Opposite-Spin Energy      =      -1.7037888975586721 [Eh]
	 Correlation Energy        =      -2.2584263092185379 [Eh]
	 Total Energy              =    -571.9329928031074814 [Eh]

	 ================> DF-SCS-MP2 Energies <==================
	-----------------------------------------------------------
	 SCS Same-Spin Scale       =       0.3333333333333333 [-]
	 SCS Opposite-Spin Scale   =       1.2000000000000000 [-]
	 SCS Same-Spin Energy      =      -0.1848791372199553 [Eh]
	 SCS Opposite-Spin Energy  =      -2.0445466770704064 [Eh]
	 SCS Correlation Energy    =      -2.2294258142903618 [Eh]
	 SCS Total Energy          =    -571.9039923081793404 [Eh]
	-----------------------------------------------------------

  Dipole Moment: [D]
     X:    -2.1891      Y:    -0.9878      Z:    -0.3342     Total:     2.4248

*** Psi4 exiting successfully. Buy a developer a beer!
