                               Psi4 1.3.2 release

  ==> Input File <==

--------------------------------------------------------------------------
#psi4
#
memory 32 gb

molecule  {
0 1
  O       -0.1147700    -1.8002930     0.4548730
  O        0.3584290     1.3939840    -1.0246780
  O       -1.9551560     1.3713260     0.4690830
  O        2.6764384     0.4565591    -0.2690262
  O       -1.6716310    -0.8002260    -0.9984850
  C        0.4315910     1.0135520     0.3497470
  C       -0.9093320     0.4742750     0.8400700
  C        1.5345100    -0.0288940     0.4204030
  C       -1.2151430    -0.9364420     0.3397180
  C        1.0549700    -1.3167000    -0.2286510
  H        0.7042560     1.8874530     0.9605880
  H       -0.8818830     0.4322700     1.9353370
  H        1.7294993    -0.2483508     1.4761478
  H       -1.9939520    -1.3968640     0.9617720
  H        0.8436020    -1.1475360    -1.2899680
  H        1.8059140    -2.1013880    -0.1265130
  H       -0.3930520     2.0121160    -1.0836700
  H       -2.3417080     0.9766970    -0.3400740
  H        2.3997000     0.9352960    -0.9928030
  H       -1.9956420    -1.6762600    -1.2784950
units angstrom
no_reorient  #important for SAPT in psi4, default
symmetry c1  #important for SAPT in psi4, default
}

set PROPERTIES_ORIGIN ["COM"]
properties('MP2/aug-cc-pvtz', properties = ['dipole'])
--------------------------------------------------------------------------

    Molecular point group: c1
  Charge       = 0
  Multiplicity = 1
  Basis Set: AUG-CC-PVTZ
    Blend: AUG-CC-PVTZ
  Basis Set: (AUG-CC-PVTZ AUX)
    Blend: AUG-CC-PVTZ-JKFIT

    Orbital Energies [Eh]
    ---------------------

    Doubly Occupied:

       1A    -20.591185     2A    -20.580245     3A    -20.574165
       4A    -20.569623     5A    -20.551434     6A    -11.353541
       7A    -11.297944     8A    -11.290332     9A    -11.287890
      10A    -11.277353    11A     -1.438459    12A     -1.394421
      13A     -1.379059    14A     -1.355933    15A     -1.350644
      16A     -1.061394    17A     -1.024241    18A     -0.898581
      19A     -0.873229    20A     -0.800264    21A     -0.751597
      22A     -0.728351    23A     -0.712421    24A     -0.697939
      25A     -0.677184    26A     -0.650829    27A     -0.620117
      28A     -0.613575    29A     -0.602673    30A     -0.589071
      31A     -0.570509    32A     -0.556316    33A     -0.543316
      34A     -0.516010    35A     -0.502357    36A     -0.490465
      37A     -0.486756    38A     -0.470466    39A     -0.440646
      40A     -0.415501

  @DF-RHF Final Energy:  -569.67297488853683

   => Energetics <=

    Nuclear Repulsion Energy =            634.9268302476274357
    One-Electron Energy =               -2044.0275333719885111
    Two-Electron Energy =                 839.4277282358243610
    Total Energy =                       -569.6729748885368281
  Basis Set: (AUG-CC-PVTZ AUX)
    Blend: AUG-CC-PVTZ-RI
    Molecular point group: c1

    Geometry (in Angstrom), charge = 0, multiplicity = 1:

       Center              X                  Y                   Z               Mass
    ------------   -----------------  -----------------  -----------------  -----------------
         O           -0.110314781782    -1.800818225723     0.461572425679    15.994914619570
         O            0.362884218218     1.393458774277    -1.017978574321    15.994914619570
         O           -1.950700781782     1.370800774277     0.475782425679    15.994914619570
         O            2.680893618218     0.456033874277    -0.262326774321    15.994914619570
         O           -1.667175781782    -0.800751225723    -0.991785574321    15.994914619570
         C            0.436046218218     1.013026774277     0.356446425679    12.000000000000
         C           -0.904876781782     0.473749774277     0.846769425679    12.000000000000
         C            1.538965218218    -0.029419225723     0.427102425679    12.000000000000
         C           -1.210687781782    -0.936967225723     0.346417425679    12.000000000000
         C            1.059425218218    -1.317225225723    -0.221951574321    12.000000000000
         H            0.708711218218     1.886927774277     0.967287425679     1.007825032230
         H           -0.877427781782     0.431744774277     1.942036425679     1.007825032230
         H            1.733954518218    -0.248876025723     1.482847225679     1.007825032230
         H           -1.989496781782    -1.397389225723     0.968471425679     1.007825032230
         H            0.848057218218    -1.148061225723    -1.283268574321     1.007825032230
         H            1.810369218218    -2.101913225723    -0.119813574321     1.007825032230
         H           -0.388596781782     2.011590774277    -1.076970574321     1.007825032230
         H           -2.337252781782     0.976171774277    -0.333374574321     1.007825032230
         H            2.404155218218     0.934770774277    -0.986103574321     1.007825032230
         H           -1.991186781782    -1.676785225723    -1.271795574321     1.007825032230

  Basis Set: AUG-CC-PVTZ
    Blend: AUG-CC-PVTZ
  Basis Set: (AUG-CC-PVTZ AUX)
    Blend: AUG-CC-PVTZ-JKFIT
	 Reference Energy          =    -569.6729748885368281 [Eh]
	 Singles Energy            =      -0.0000000000000000 [Eh]
	 Same-Spin Energy          =      -0.5537802626021997 [Eh]
	 Opposite-Spin Energy      =      -1.7017944774037062 [Eh]
	 Correlation Energy        =      -2.2555747400059056 [Eh]
	 Total Energy              =    -571.9285496285427826 [Eh]

	 ================> DF-SCS-MP2 Energies <==================
	-----------------------------------------------------------
	 SCS Same-Spin Scale       =       0.3333333333333333 [-]
	 SCS Opposite-Spin Scale   =       1.2000000000000000 [-]
	 SCS Same-Spin Energy      =      -0.1845934208673999 [Eh]
	 SCS Opposite-Spin Energy  =      -2.0421533728844472 [Eh]
	 SCS Correlation Energy    =      -2.2267467937518473 [Eh]
	 SCS Total Energy          =    -571.8997216822887140 [Eh]
	-----------------------------------------------------------

  Dipole Moment: [D]
     X:    -2.1259      Y:    -0.9998      Z:    -0.1904     Total:     2.3569

*** Psi4 exiting successfully. Buy a developer a beer!
