                               Psi4 1.4a3.dev225

  ==> Input File <==

--------------------------------------------------------------------------
#psi4
#
memory 32 gb

molecule  {
0 1
  O       -0.2343850     1.7978400    -0.4145210
  O        0.4791390    -1.3900560     0.9851260
  O       -1.8902550    -1.4798720    -0.4079610
  O        2.7489250    -0.2990660     0.0843650
  O       -1.6766260     0.6849030     1.0797040
  C        0.4760067    -1.0012582    -0.3359802
  C       -0.9153110    -0.5160320    -0.8112700
  C        1.5148540     0.1205520    -0.4811210
  C       -1.2794180     0.8705190    -0.2725550
  C        0.9914930     1.3693070     0.2124490
  H        0.7732420    -1.8350180    -1.0199460
  H       -0.9367810    -0.4539690    -1.9062570
  H        1.7061480     0.3550680    -1.5342930
  H       -2.1075740     1.2945610    -0.8542440
  H        0.8333730     1.1741050     1.2776920
  H        1.6908660     2.1982840     0.0933200
  H       -0.2684360    -2.0097880     1.0741120
  H       -2.2907410    -1.1048270     0.4011470
  H        2.5001980    -0.8049050     0.8819700
  H       -2.0397460     1.5332780     1.3914430
units angstrom
no_reorient  #important for SAPT in psi4, default
symmetry c1  #important for SAPT in psi4, default
}

set PROPERTIES_ORIGIN ["COM"]
properties('MP2/aug-cc-pvtz', properties = ['dipole'])
--------------------------------------------------------------------------

    Molecular point group: c1
  Charge       = 0
  Multiplicity = 1
  Basis Set: AUG-CC-PVTZ
    Blend: AUG-CC-PVTZ
  Basis Set: (AUG-CC-PVTZ AUX)
    Blend: AUG-CC-PVTZ-JKFIT

    Orbital Energies [Eh]
    ---------------------

    Doubly Occupied:

       1A    -20.592029     2A    -20.580576     3A    -20.575768
       4A    -20.574354     5A    -20.557711     6A    -11.353784
       7A    -11.298296     8A    -11.291251     9A    -11.285184
      10A    -11.278045    11A     -1.438519    12A     -1.404302
      13A     -1.375658    14A     -1.354528    15A     -1.352245
      16A     -1.051730    17A     -1.021333    18A     -0.896441
      19A     -0.867142    20A     -0.801614    21A     -0.753662
      22A     -0.727408    23A     -0.712767    24A     -0.697364
      25A     -0.673547    26A     -0.646787    27A     -0.621040
      28A     -0.618899    29A     -0.601741    30A     -0.584465
      31A     -0.571768    32A     -0.555603    33A     -0.549720
      34A     -0.517288    35A     -0.502540    36A     -0.491242
      37A     -0.486981    38A     -0.469298    39A     -0.434598
      40A     -0.411682

  @DF-RHF Final Energy:  -569.67311533398799

   => Energetics <=

    Nuclear Repulsion Energy =            633.4862465824905939
    One-Electron Energy =               -2041.1609037761679701
    Two-Electron Energy =                 838.0015418596893824
    Total Energy =                       -569.6731153339879938
  Basis Set: (AUG-CC-PVTZ AUX)
    Blend: AUG-CC-PVTZ-RI
    Molecular point group: c1

    Geometry (in Angstrom), charge = 0, multiplicity = 1:

       Center              X                  Y                   Z               Mass
    ------------   -----------------  -----------------  -----------------  -----------------
         O           -0.235335579525     1.801238602611    -0.419601560451    15.994914619570
         O            0.478188420475    -1.386657397389     0.980045439549    15.994914619570
         O           -1.891205579525    -1.476473397389    -0.413041560451    15.994914619570
         O            2.747974420475    -0.295667397389     0.079284439549    15.994914619570
         O           -1.677576579525     0.688301602611     1.074623439549    15.994914619570
         C            0.475056120475    -0.997859597389    -0.341060760451    12.000000000000
         C           -0.916261579525    -0.512633397389    -0.816350560451    12.000000000000
         C            1.513903420475     0.123950602611    -0.486201560451    12.000000000000
         C           -1.280368579525     0.873917602611    -0.277635560451    12.000000000000
         C            0.990542420475     1.372705602611     0.207368439549    12.000000000000
         H            0.772291420475    -1.831619397389    -1.025026560451     1.007825032230
         H           -0.937731579525    -0.450570397389    -1.911337560451     1.007825032230
         H            1.705197420475     0.358466602611    -1.539373560451     1.007825032230
         H           -2.108524579525     1.297959602611    -0.859324560451     1.007825032230
         H            0.832422420475     1.177503602611     1.272611439549     1.007825032230
         H            1.689915420475     2.201682602611     0.088239439549     1.007825032230
         H           -0.269386579525    -2.006389397389     1.069031439549     1.007825032230
         H           -2.291691579525    -1.101428397389     0.396066439549     1.007825032230
         H            2.499247420475    -0.801506397389     0.876889439549     1.007825032230
         H           -2.040696579525     1.536676602611     1.386362439549     1.007825032230

  Basis Set: AUG-CC-PVTZ
    Blend: AUG-CC-PVTZ
  Basis Set: (AUG-CC-PVTZ AUX)
    Blend: AUG-CC-PVTZ-JKFIT
	 Reference Energy          =    -569.6731153339879938 [Eh]
	 Singles Energy            =      -0.0000000000000000 [Eh]
	 Same-Spin Energy          =      -0.5544719397719653 [Eh]
	 Opposite-Spin Energy      =      -1.7033156828090716 [Eh]
	 Correlation Energy        =      -2.2577876225810369 [Eh]
	 Total Energy              =    -571.9309029565690707 [Eh]

	 ================> DF-SCS-MP2 Energies <==================
	-----------------------------------------------------------
	 SCS Same-Spin Scale       =       0.3333333333333333 [-]
	 SCS Opposite-Spin Scale   =       1.2000000000000000 [-]
	 SCS Same-Spin Energy      =      -0.1848239799239884 [Eh]
	 SCS Opposite-Spin Energy  =      -2.0439788193708859 [Eh]
	 SCS Correlation Energy    =      -2.2288027992948742 [Eh]
	 SCS Total Energy          =    -571.9019181332828339 [Eh]
	-----------------------------------------------------------

  Dipole Moment: [D]
     X:    -2.3003      Y:     0.9134      Z:     0.5347     Total:     2.5321

*** Psi4 exiting successfully. Buy a developer a beer!
