                               Psi4 1.3.2 release

  ==> Input File <==

--------------------------------------------------------------------------
#psi4
#
memory 32 gb

molecule  {
0 1
  O       -0.1147700    -1.8002930     0.4548730
  O        0.3584290     1.3939840    -1.0246780
  O       -1.9551560     1.3713260     0.4690830
  O        2.7148150     0.4505790    -0.2056670
  O       -1.6498809    -0.7900432    -1.0046382
  C        0.4315910     1.0135520     0.3497470
  C       -0.9093320     0.4742750     0.8400700
  C        1.5345100    -0.0288940     0.4204030
  C       -1.2151430    -0.9364420     0.3397180
  C        1.0549700    -1.3167000    -0.2286510
  H        0.7042560     1.8874530     0.9605880
  H       -0.8818830     0.4322700     1.9353370
  H        1.7837760    -0.2316310     1.4680400
  H       -1.9822574    -1.3957890     0.9769141
  H        0.8436020    -1.1475360    -1.2899680
  H        1.8059140    -2.1013880    -0.1265130
  H       -0.3930520     2.0121160    -1.0836700
  H       -2.3417080     0.9766970    -0.3400740
  H        2.3997000     0.9352960    -0.9928030
  H       -1.9956420    -1.6762600    -1.2784950
units angstrom
no_reorient  #important for SAPT in psi4, default
symmetry c1  #important for SAPT in psi4, default
}

set PROPERTIES_ORIGIN ["COM"]
properties('MP2/aug-cc-pvtz', properties = ['dipole'])
--------------------------------------------------------------------------

    Molecular point group: c1
  Charge       = 0
  Multiplicity = 1
  Basis Set: AUG-CC-PVTZ
    Blend: AUG-CC-PVTZ
  Basis Set: (AUG-CC-PVTZ AUX)
    Blend: AUG-CC-PVTZ-JKFIT

    Orbital Energies [Eh]
    ---------------------

    Doubly Occupied:

       1A    -20.594005     2A    -20.580051     3A    -20.574504
       4A    -20.570764     5A    -20.557926     6A    -11.353757
       7A    -11.297723     8A    -11.290637     9A    -11.285261
      10A    -11.277554    11A     -1.438246    12A     -1.391074
      13A     -1.375236    14A     -1.352257    15A     -1.347413
      16A     -1.058648    17A     -1.022544    18A     -0.897717
      19A     -0.869491    20A     -0.797285    21A     -0.752012
      22A     -0.726140    23A     -0.711838    24A     -0.695477
      25A     -0.669317    26A     -0.645480    27A     -0.620618
      28A     -0.613720    29A     -0.602239    30A     -0.583754
      31A     -0.572291    32A     -0.555325    33A     -0.542491
      34A     -0.515778    35A     -0.503517    36A     -0.490758
      37A     -0.487000    38A     -0.471284    39A     -0.440411
      40A     -0.415237

  @DF-RHF Final Energy:  -569.67283689156750

   => Energetics <=

    Nuclear Repulsion Energy =            634.1370479803201761
    One-Electron Energy =               -2042.5262113275489355
    Two-Electron Energy =                 838.7163264556612603
    Total Energy =                       -569.6728368915674992
  Basis Set: (AUG-CC-PVTZ AUX)
    Blend: AUG-CC-PVTZ-RI
    Molecular point group: c1

    Geometry (in Angstrom), charge = 0, multiplicity = 1:

       Center              X                  Y                   Z               Mass
    ------------   -----------------  -----------------  -----------------  -----------------
         O           -0.117167095100    -1.801385731689     0.455427293529    15.994914619570
         O            0.356031904900     1.392891268311    -1.024123706471    15.994914619570
         O           -1.957553095100     1.370233268311     0.469637293529    15.994914619570
         O            2.712417904900     0.449486268311    -0.205112706471    15.994914619570
         O           -1.652277995100    -0.791135931689    -1.004083906471    15.994914619570
         C            0.429193904900     1.012459268311     0.350301293529    12.000000000000
         C           -0.911729095100     0.473182268311     0.840624293529    12.000000000000
         C            1.532112904900    -0.029986731689     0.420957293529    12.000000000000
         C           -1.217540095100    -0.937534731689     0.340272293529    12.000000000000
         C            1.052572904900    -1.317792731689    -0.228096706471    12.000000000000
         H            0.701858904900     1.886360268311     0.961142293529     1.007825032230
         H           -0.884280095100     0.431177268311     1.935891293529     1.007825032230
         H            1.781378904900    -0.232723731689     1.468594293529     1.007825032230
         H           -1.984654495100    -1.396881731689     0.977468393529     1.007825032230
         H            0.841204904900    -1.148628731689    -1.289413706471     1.007825032230
         H            1.803516904900    -2.102480731689    -0.125958706471     1.007825032230
         H           -0.395449095100     2.011023268311    -1.083115706471     1.007825032230
         H           -2.344105095100     0.975604268311    -0.339519706471     1.007825032230
         H            2.397302904900     0.934203268311    -0.992248706471     1.007825032230
         H           -1.998039095100    -1.677352731689    -1.277940706471     1.007825032230

  Basis Set: AUG-CC-PVTZ
    Blend: AUG-CC-PVTZ
  Basis Set: (AUG-CC-PVTZ AUX)
    Blend: AUG-CC-PVTZ-JKFIT
	 Reference Energy          =    -569.6728368915674992 [Eh]
	 Singles Energy            =      -0.0000000000000000 [Eh]
	 Same-Spin Energy          =      -0.5549539477270417 [Eh]
	 Opposite-Spin Energy      =      -1.7046525179061236 [Eh]
	 Correlation Energy        =      -2.2596064656331651 [Eh]
	 Total Energy              =    -571.9324433572006683 [Eh]

	 ================> DF-SCS-MP2 Energies <==================
	-----------------------------------------------------------
	 SCS Same-Spin Scale       =       0.3333333333333333 [-]
	 SCS Opposite-Spin Scale   =       1.2000000000000000 [-]
	 SCS Same-Spin Energy      =      -0.1849846492423472 [Eh]
	 SCS Opposite-Spin Energy  =      -2.0455830214873481 [Eh]
	 SCS Correlation Energy    =      -2.2305676707296951 [Eh]
	 SCS Total Energy          =    -571.9034045622971689 [Eh]
	-----------------------------------------------------------

  Dipole Moment: [D]
     X:    -2.2377      Y:    -1.0106      Z:    -0.2985     Total:     2.4734

*** Psi4 exiting successfully. Buy a developer a beer!
