                               Psi4 1.3.2 release

  ==> Input File <==

--------------------------------------------------------------------------
#psi4
#
memory 32 gb

molecule  {
0 1
  O       -0.1147700    -1.8002930     0.4548730
  O        0.3584290     1.3939840    -1.0246780
  O       -1.9551560     1.3713260     0.4690830
  O        2.7148150     0.4505790    -0.2056670
  O       -1.6716310    -0.8002260    -0.9984850
  C        0.4161016     0.9959843     0.3373161
  C       -0.9093320     0.4742750     0.8400700
  C        1.5345100    -0.0288940     0.4204030
  C       -1.2151430    -0.9364420     0.3397180
  C        1.0316756    -1.3051305    -0.2338538
  H        0.7042560     1.8874530     0.9605880
  H       -0.8818830     0.4322700     1.9353370
  H        1.7837760    -0.2316310     1.4680400
  H       -1.9939520    -1.3968640     0.9617720
  H        0.8436020    -1.1475360    -1.2899680
  H        1.8059140    -2.1013880    -0.1265130
  H       -0.3930520     2.0121160    -1.0836700
  H       -2.3417080     0.9766970    -0.3400740
  H        2.3997000     0.9352960    -0.9928030
  H       -1.9956420    -1.6762600    -1.2784950
units angstrom
no_reorient  #important for SAPT in psi4, default
symmetry c1  #important for SAPT in psi4, default
}

set PROPERTIES_ORIGIN ["COM"]
properties('MP2/aug-cc-pvtz', properties = ['dipole'])
--------------------------------------------------------------------------

    Molecular point group: c1
  Charge       = 0
  Multiplicity = 1
  Basis Set: AUG-CC-PVTZ
    Blend: AUG-CC-PVTZ
  Basis Set: (AUG-CC-PVTZ AUX)
    Blend: AUG-CC-PVTZ-JKFIT

    Orbital Energies [Eh]
    ---------------------

    Doubly Occupied:

       1A    -20.592653     2A    -20.583051     3A    -20.575368
       4A    -20.572230     5A    -20.559007     6A    -11.354204
       7A    -11.298580     8A    -11.291354     9A    -11.285467
      10A    -11.277704    11A     -1.441952    12A     -1.394085
      13A     -1.377459    14A     -1.356200    15A     -1.349121
      16A     -1.061743    17A     -1.023588    18A     -0.896224
      19A     -0.871713    20A     -0.800132    21A     -0.754106
      22A     -0.726055    23A     -0.713773    24A     -0.697422
      25A     -0.671617    26A     -0.647785    27A     -0.623027
      28A     -0.615020    29A     -0.602818    30A     -0.583832
      31A     -0.572377    32A     -0.552790    33A     -0.544416
      34A     -0.517394    35A     -0.502252    36A     -0.491347
      37A     -0.489444    38A     -0.471632    39A     -0.442663
      40A     -0.412654

  @DF-RHF Final Energy:  -569.67243424449759

   => Energetics <=

    Nuclear Repulsion Energy =            634.7431917194282960
    One-Electron Energy =               -2043.6427323860439174
    Two-Electron Energy =                 839.2271064221180268
    Total Energy =                       -569.6724342444975946
  Basis Set: (AUG-CC-PVTZ AUX)
    Blend: AUG-CC-PVTZ-RI
    Molecular point group: c1

    Geometry (in Angstrom), charge = 0, multiplicity = 1:

       Center              X                  Y                   Z               Mass
    ------------   -----------------  -----------------  -----------------  -----------------
         O           -0.111668480117    -1.799813386543     0.456283292609    15.994914619570
         O            0.361530519883     1.394463613457    -1.023267707391    15.994914619570
         O           -1.952054480117     1.371805613457     0.470493292609    15.994914619570
         O            2.717916519883     0.451058613457    -0.204256707391    15.994914619570
         O           -1.668529480117    -0.799746386543    -0.997074707391    15.994914619570
         C            0.419203119883     0.996463913457     0.338726392609    12.000000000000
         C           -0.906230480117     0.474754613457     0.841480292609    12.000000000000
         C            1.537611519883    -0.028414386543     0.421813292609    12.000000000000
         C           -1.212041480117    -0.935962386543     0.341128292609    12.000000000000
         C            1.034777119883    -1.304650886543    -0.232443507391    12.000000000000
         H            0.707357519883     1.887932613457     0.961998292609     1.007825032230
         H           -0.878781480117     0.432749613457     1.936747292609     1.007825032230
         H            1.786877519883    -0.231151386543     1.469450292609     1.007825032230
         H           -1.990850480117    -1.396384386543     0.963182292609     1.007825032230
         H            0.846703519883    -1.147056386543    -1.288557707391     1.007825032230
         H            1.809015519883    -2.100908386543    -0.125102707391     1.007825032230
         H           -0.389950480117     2.012595613457    -1.082259707391     1.007825032230
         H           -2.338606480117     0.977176613457    -0.338663707391     1.007825032230
         H            2.402801519883     0.935775613457    -0.991392707391     1.007825032230
         H           -1.992540480117    -1.675780386543    -1.277084707391     1.007825032230

  Basis Set: AUG-CC-PVTZ
    Blend: AUG-CC-PVTZ
  Basis Set: (AUG-CC-PVTZ AUX)
    Blend: AUG-CC-PVTZ-JKFIT
	 Reference Energy          =    -569.6724342444975946 [Eh]
	 Singles Energy            =      -0.0000000000000000 [Eh]
	 Same-Spin Energy          =      -0.5549627292105164 [Eh]
	 Opposite-Spin Energy      =      -1.7041571544390335 [Eh]
	 Correlation Energy        =      -2.2591198836495501 [Eh]
	 Total Energy              =    -571.9315541281471269 [Eh]

	 ================> DF-SCS-MP2 Energies <==================
	-----------------------------------------------------------
	 SCS Same-Spin Scale       =       0.3333333333333333 [-]
	 SCS Opposite-Spin Scale   =       1.2000000000000000 [-]
	 SCS Same-Spin Energy      =      -0.1849875764035054 [Eh]
	 SCS Opposite-Spin Energy  =      -2.0449885853268399 [Eh]
	 SCS Correlation Energy    =      -2.2299761617303453 [Eh]
	 SCS Total Energy          =    -571.9024104062278866 [Eh]
	-----------------------------------------------------------

  Dipole Moment: [D]
     X:    -2.2517      Y:    -1.0090      Z:    -0.3314     Total:     2.4896

*** Psi4 exiting successfully. Buy a developer a beer!
