                               Psi4 1.3.2 release

  ==> Input File <==

--------------------------------------------------------------------------
#psi4
#
memory 32 gb

molecule  {
0 1
  O       -0.1147700    -1.8002930     0.4548730
  O        0.3584290     1.3939840    -1.0246780
  O       -1.9551560     1.3713260     0.4690830
  O        2.7148150     0.4505790    -0.2056670
  O       -1.6279984    -0.7799049    -1.0103820
  C        0.4315910     1.0135520     0.3497470
  C       -0.9093320     0.4742750     0.8400700
  C        1.5345100    -0.0288940     0.4204030
  C       -1.2151430    -0.9364420     0.3397180
  C        1.0549700    -1.3167000    -0.2286510
  H        0.7042560     1.8874530     0.9605880
  H       -0.8818830     0.4322700     1.9353370
  H        1.7837760    -0.2316310     1.4680400
  H       -1.9703292    -1.3945740     0.9918621
  H        0.8436020    -1.1475360    -1.2899680
  H        1.8059140    -2.1013880    -0.1265130
  H       -0.3930520     2.0121160    -1.0836700
  H       -2.3417080     0.9766970    -0.3400740
  H        2.3997000     0.9352960    -0.9928030
  H       -1.9956420    -1.6762600    -1.2784950
units angstrom
no_reorient  #important for SAPT in psi4, default
symmetry c1  #important for SAPT in psi4, default
}

set PROPERTIES_ORIGIN ["COM"]
properties('MP2/aug-cc-pvtz', properties = ['dipole'])
--------------------------------------------------------------------------

    Molecular point group: c1
  Charge       = 0
  Multiplicity = 1
  Basis Set: AUG-CC-PVTZ
    Blend: AUG-CC-PVTZ
  Basis Set: (AUG-CC-PVTZ AUX)
    Blend: AUG-CC-PVTZ-JKFIT

    Orbital Energies [Eh]
    ---------------------

    Doubly Occupied:

       1A    -20.596393     2A    -20.579355     3A    -20.574385
       4A    -20.570313     5A    -20.557589     6A    -11.353648
       7A    -11.297062     8A    -11.290225     9A    -11.284867
      10A    -11.276948    11A     -1.437822    12A     -1.390650
      13A     -1.374783    14A     -1.350536    15A     -1.347074
      16A     -1.058229    17A     -1.022120    18A     -0.896777
      19A     -0.868990    20A     -0.796190    21A     -0.751669
      22A     -0.724720    23A     -0.711755    24A     -0.694749
      25A     -0.668924    26A     -0.644771    27A     -0.620098
      28A     -0.613328    29A     -0.601564    30A     -0.582902
      31A     -0.572835    32A     -0.554537    33A     -0.542174
      34A     -0.515356    35A     -0.504317    36A     -0.490430
      37A     -0.486343    38A     -0.470892    39A     -0.440178
      40A     -0.414616

  @DF-RHF Final Energy:  -569.67027998568301

   => Energetics <=

    Nuclear Repulsion Energy =            634.4574149629557951
    One-Electron Energy =               -2043.1951628762737982
    Two-Electron Energy =                 839.0674679276348797
    Total Energy =                       -569.6702799856830097
  Basis Set: (AUG-CC-PVTZ AUX)
    Blend: AUG-CC-PVTZ-RI
    Molecular point group: c1

    Geometry (in Angstrom), charge = 0, multiplicity = 1:

       Center              X                  Y                   Z               Mass
    ------------   -----------------  -----------------  -----------------  -----------------
         O           -0.119579780510    -1.802474586577     0.455939157420    15.994914619570
         O            0.353619219490     1.391802413423    -1.023611842580    15.994914619570
         O           -1.959965780510     1.369144413423     0.470149157420    15.994914619570
         O            2.710005219490     0.448397413423    -0.204600842580    15.994914619570
         O           -1.632808180510    -0.782086486577    -1.009315842580    15.994914619570
         C            0.426781219490     1.011370413423     0.350813157420    12.000000000000
         C           -0.914141780510     0.472093413423     0.841136157420    12.000000000000
         C            1.529700219490    -0.031075586577     0.421469157420    12.000000000000
         C           -1.219952780510    -0.938623586577     0.340784157420    12.000000000000
         C            1.050160219490    -1.318881586577    -0.227584842580    12.000000000000
         H            0.699446219490     1.885271413423     0.961654157420     1.007825032230
         H           -0.886692780510     0.430088413423     1.936403157420     1.007825032230
         H            1.778966219490    -0.233812586577     1.469106157420     1.007825032230
         H           -1.975138980510    -1.396755586577     0.992928257420     1.007825032230
         H            0.838792219490    -1.149717586577    -1.288901842580     1.007825032230
         H            1.801104219490    -2.103569586577    -0.125446842580     1.007825032230
         H           -0.397861780510     2.009934413423    -1.082603842580     1.007825032230
         H           -2.346517780510     0.974515413423    -0.339007842580     1.007825032230
         H            2.394890219490     0.933114413423    -0.991736842580     1.007825032230
         H           -2.000451780510    -1.678441586577    -1.277428842580     1.007825032230

  Basis Set: AUG-CC-PVTZ
    Blend: AUG-CC-PVTZ
  Basis Set: (AUG-CC-PVTZ AUX)
    Blend: AUG-CC-PVTZ-JKFIT
	 Reference Energy          =    -569.6702799856830097 [Eh]
	 Singles Energy            =      -0.0000000000000000 [Eh]
	 Same-Spin Energy          =      -0.5553085085020115 [Eh]
	 Opposite-Spin Energy      =      -1.7054367707663571 [Eh]
	 Correlation Energy        =      -2.2607452792683684 [Eh]
	 Total Energy              =    -571.9310252649513586 [Eh]

	 ================> DF-SCS-MP2 Energies <==================
	-----------------------------------------------------------
	 SCS Same-Spin Scale       =       0.3333333333333333 [-]
	 SCS Opposite-Spin Scale   =       1.2000000000000000 [-]
	 SCS Same-Spin Energy      =      -0.1851028361673372 [Eh]
	 SCS Opposite-Spin Energy  =      -2.0465241249196287 [Eh]
	 SCS Correlation Energy    =      -2.2316269610869659 [Eh]
	 SCS Total Energy          =    -571.9019069467699410 [Eh]
	-----------------------------------------------------------

  Dipole Moment: [D]
     X:    -2.2922      Y:    -1.0264      Z:    -0.2985     Total:     2.5292

*** Psi4 exiting successfully. Buy a developer a beer!
