                               Psi4 1.3.2 release

  ==> Input File <==

--------------------------------------------------------------------------
#psi4
#
memory 32 gb

molecule  {
0 1
  O       -0.1147700    -1.8002930     0.4548730
  O        0.3584290     1.3939840    -1.0246780
  O       -1.9551560     1.3713260     0.4690830
  O        2.7148150     0.4505790    -0.2056670
  O       -1.6716310    -0.8002260    -0.9984850
  C        0.4315910     1.0135520     0.3497470
  C       -0.9093320     0.4742750     0.8400700
  C        1.5345100    -0.0288940     0.4204030
  C       -1.2151430    -0.9364420     0.3397180
  C        1.0482303    -1.2901904    -0.2741021
  H        0.7042560     1.8874530     0.9605880
  H       -0.8818830     0.4322700     1.9353370
  H        1.7934039    -0.1948450     1.4721698
  H       -1.9939520    -1.3968640     0.9617720
  H        0.8436020    -1.1475360    -1.2899680
  H        1.8059140    -2.1013880    -0.1265130
  H       -0.3930520     2.0121160    -1.0836700
  H       -2.3417080     0.9766970    -0.3400740
  H        2.3997000     0.9352960    -0.9928030
  H       -1.9956420    -1.6762600    -1.2784950
units angstrom
no_reorient  #important for SAPT in psi4, default
symmetry c1  #important for SAPT in psi4, default
}

set PROPERTIES_ORIGIN ["COM"]
properties('MP2/aug-cc-pvtz', properties = ['dipole'])
--------------------------------------------------------------------------

    Molecular point group: c1
  Charge       = 0
  Multiplicity = 1
  Basis Set: AUG-CC-PVTZ
    Blend: AUG-CC-PVTZ
  Basis Set: (AUG-CC-PVTZ AUX)
    Blend: AUG-CC-PVTZ-JKFIT

    Orbital Energies [Eh]
    ---------------------

    Doubly Occupied:

       1A    -20.591240     2A    -20.579660     3A    -20.574235
       4A    -20.571464     5A    -20.557841     6A    -11.352077
       7A    -11.297799     8A    -11.290398     9A    -11.286721
      10A    -11.278951    11A     -1.436128    12A     -1.391308
      13A     -1.374247    14A     -1.351013    15A     -1.348006
      16A     -1.059253    17A     -1.021324    18A     -0.900098
      19A     -0.868326    20A     -0.800251    21A     -0.753271
      22A     -0.726852    23A     -0.709440    24A     -0.695417
      25A     -0.669495    26A     -0.648929    27A     -0.619633
      28A     -0.613730    29A     -0.600544    30A     -0.582702
      31A     -0.574051    32A     -0.552332    33A     -0.542258
      34A     -0.515086    35A     -0.500370    36A     -0.493266
      37A     -0.486925    38A     -0.477156    39A     -0.439809
      40A     -0.416742

  @DF-RHF Final Energy:  -569.67000747429529

   => Energetics <=

    Nuclear Repulsion Energy =            633.8912655669805645
    One-Electron Energy =               -2042.0258470723645132
    Two-Electron Energy =                 838.4645740310886595
    Total Energy =                       -569.6700074742952893
  Basis Set: (AUG-CC-PVTZ AUX)
    Blend: AUG-CC-PVTZ-RI
    Molecular point group: c1

    Geometry (in Angstrom), charge = 0, multiplicity = 1:

       Center              X                  Y                   Z               Mass
    ------------   -----------------  -----------------  -----------------  -----------------
         O           -0.114295771158    -1.802660167043     0.458480163529    15.994914619570
         O            0.358903228842     1.391616832957    -1.021070836471    15.994914619570
         O           -1.954681771158     1.368958832957     0.472690163529    15.994914619570
         O            2.715289228842     0.448211832957    -0.202059836471    15.994914619570
         O           -1.671156771158    -0.802593167043    -0.994877836471    15.994914619570
         C            0.432065228842     1.011184832957     0.353354163529    12.000000000000
         C           -0.908857771158     0.471907832957     0.843677163529    12.000000000000
         C            1.534984228842    -0.031261167043     0.424010163529    12.000000000000
         C           -1.214668771158    -0.938809167043     0.343325163529    12.000000000000
         C            1.048704528842    -1.292557567043    -0.270494936471    12.000000000000
         H            0.704730228842     1.885085832957     0.964195163529     1.007825032230
         H           -0.881408771158     0.429902832957     1.938944163529     1.007825032230
         H            1.793878128842    -0.197212167043     1.475776963529     1.007825032230
         H           -1.993477771158    -1.399231167043     0.965379163529     1.007825032230
         H            0.844076228842    -1.149903167043    -1.286360836471     1.007825032230
         H            1.806388228842    -2.103755167043    -0.122905836471     1.007825032230
         H           -0.392577771158     2.009748832957    -1.080062836471     1.007825032230
         H           -2.341233771158     0.974329832957    -0.336466836471     1.007825032230
         H            2.400174228842     0.932928832957    -0.989195836471     1.007825032230
         H           -1.995167771158    -1.678627167043    -1.274887836471     1.007825032230

  Basis Set: AUG-CC-PVTZ
    Blend: AUG-CC-PVTZ
  Basis Set: (AUG-CC-PVTZ AUX)
    Blend: AUG-CC-PVTZ-JKFIT
	 Reference Energy          =    -569.6700074742952893 [Eh]
	 Singles Energy            =      -0.0000000000000000 [Eh]
	 Same-Spin Energy          =      -0.5548435960769678 [Eh]
	 Opposite-Spin Energy      =      -1.7047414020298577 [Eh]
	 Correlation Energy        =      -2.2595849981068254 [Eh]
	 Total Energy              =    -571.9295924724020779 [Eh]

	 ================> DF-SCS-MP2 Energies <==================
	-----------------------------------------------------------
	 SCS Same-Spin Scale       =       0.3333333333333333 [-]
	 SCS Opposite-Spin Scale   =       1.2000000000000000 [-]
	 SCS Same-Spin Energy      =      -0.1849478653589892 [Eh]
	 SCS Opposite-Spin Energy  =      -2.0456896824358290 [Eh]
	 SCS Correlation Energy    =      -2.2306375477948182 [Eh]
	 SCS Total Energy          =    -571.9006450220900888 [Eh]
	-----------------------------------------------------------

  Dipole Moment: [D]
     X:    -2.1412      Y:    -0.9559      Z:    -0.3568     Total:     2.3718

*** Psi4 exiting successfully. Buy a developer a beer!
