                               Psi4 1.3.2 release

  ==> Input File <==

--------------------------------------------------------------------------
#psi4
#
memory 32 gb

molecule  {
0 1
  O       -0.1147700    -1.8002930     0.4548730
  O        0.3584290     1.3939840    -1.0246780
  O       -1.9551560     1.3713260     0.4690830
  O        2.7148150     0.4505790    -0.2056670
  O       -1.6716310    -0.8002260    -0.9984850
  C        0.4474164     1.0308022     0.3621994
  C       -0.9093320     0.4742750     0.8400700
  C        1.5345100    -0.0288940     0.4204030
  C       -1.2151430    -0.9364420     0.3397180
  C        1.0784104    -1.3278772    -0.2232505
  H        0.7042560     1.8874530     0.9605880
  H       -0.8818830     0.4322700     1.9353370
  H        1.7837760    -0.2316310     1.4680400
  H       -1.9939520    -1.3968640     0.9617720
  H        0.8436020    -1.1475360    -1.2899680
  H        1.8059140    -2.1013880    -0.1265130
  H       -0.3930520     2.0121160    -1.0836700
  H       -2.3417080     0.9766970    -0.3400740
  H        2.3997000     0.9352960    -0.9928030
  H       -1.9956420    -1.6762600    -1.2784950
units angstrom
no_reorient  #important for SAPT in psi4, default
symmetry c1  #important for SAPT in psi4, default
}

set PROPERTIES_ORIGIN ["COM"]
properties('MP2/aug-cc-pvtz', properties = ['dipole'])
--------------------------------------------------------------------------

    Molecular point group: c1
  Charge       = 0
  Multiplicity = 1
  Basis Set: AUG-CC-PVTZ
    Blend: AUG-CC-PVTZ
  Basis Set: (AUG-CC-PVTZ AUX)
    Blend: AUG-CC-PVTZ-JKFIT

    Orbital Energies [Eh]
    ---------------------

    Doubly Occupied:

       1A    -20.590593     2A    -20.578508     3A    -20.573962
       4A    -20.570293     5A    -20.557594     6A    -11.353571
       7A    -11.298303     8A    -11.290996     9A    -11.286106
      10A    -11.278935    11A     -1.435722    12A     -1.389066
      13A     -1.374150    14A     -1.351563    15A     -1.346295
      16A     -1.056738    17A     -1.022506    18A     -0.901529
      19A     -0.868412    20A     -0.796839    21A     -0.750788
      22A     -0.730215    23A     -0.710067    24A     -0.694470
      25A     -0.667760    26A     -0.644754    27A     -0.619813
      28A     -0.612797    29A     -0.603281    30A     -0.586034
      31A     -0.570930    32A     -0.559346    33A     -0.541283
      34A     -0.515292    35A     -0.503169    36A     -0.490213
      37A     -0.485848    38A     -0.471042    39A     -0.438358
      40A     -0.418093

  @DF-RHF Final Energy:  -569.67320746001064

   => Energetics <=

    Nuclear Repulsion Energy =            632.9113505170921599
    One-Electron Energy =               -2040.0986444618647511
    Two-Electron Energy =                 837.5140864847619468
    Total Energy =                       -569.6732074600106444
  Basis Set: (AUG-CC-PVTZ AUX)
    Blend: AUG-CC-PVTZ-RI
    Molecular point group: c1

    Geometry (in Angstrom), charge = 0, multiplicity = 1:

       Center              X                  Y                   Z               Mass
    ------------   -----------------  -----------------  -----------------  -----------------
         O           -0.117910250040    -1.800778742587     0.453445364003    15.994914619570
         O            0.355288749960     1.393498257413    -1.026105635997    15.994914619570
         O           -1.958296250040     1.370840257413     0.467655364003    15.994914619570
         O            2.711674749960     0.450093257413    -0.207094635997    15.994914619570
         O           -1.674771250040    -0.800711742587    -0.999912635997    15.994914619570
         C            0.444276149960     1.030316457413     0.360771764003    12.000000000000
         C           -0.912472250040     0.473789257413     0.838642364003    12.000000000000
         C            1.531369749960    -0.029379742587     0.418975364003    12.000000000000
         C           -1.218283250040    -0.936927742587     0.338290364003    12.000000000000
         C            1.075270149960    -1.328362942587    -0.224678135997    12.000000000000
         H            0.701115749960     1.886967257413     0.959160364003     1.007825032230
         H           -0.885023250040     0.431784257413     1.933909364003     1.007825032230
         H            1.780635749960    -0.232116742587     1.466612364003     1.007825032230
         H           -1.997092250040    -1.397349742587     0.960344364003     1.007825032230
         H            0.840461749960    -1.148021742587    -1.291395635997     1.007825032230
         H            1.802773749960    -2.101873742587    -0.127940635997     1.007825032230
         H           -0.396192250040     2.011630257413    -1.085097635997     1.007825032230
         H           -2.344848250040     0.976211257413    -0.341501635997     1.007825032230
         H            2.396559749960     0.934810257413    -0.994230635997     1.007825032230
         H           -1.998782250040    -1.676745742587    -1.279922635997     1.007825032230

  Basis Set: AUG-CC-PVTZ
    Blend: AUG-CC-PVTZ
  Basis Set: (AUG-CC-PVTZ AUX)
    Blend: AUG-CC-PVTZ-JKFIT
	 Reference Energy          =    -569.6732074600106444 [Eh]
	 Singles Energy            =      -0.0000000000000000 [Eh]
	 Same-Spin Energy          =      -0.5543868476826963 [Eh]
	 Opposite-Spin Energy      =      -1.7039287308719693 [Eh]
	 Correlation Energy        =      -2.2583155785546656 [Eh]
	 Total Energy              =    -571.9315230385652740 [Eh]

	 ================> DF-SCS-MP2 Energies <==================
	-----------------------------------------------------------
	 SCS Same-Spin Scale       =       0.3333333333333333 [-]
	 SCS Opposite-Spin Scale   =       1.2000000000000000 [-]
	 SCS Same-Spin Energy      =      -0.1847956158942321 [Eh]
	 SCS Opposite-Spin Energy  =      -2.0447144770463632 [Eh]
	 SCS Correlation Energy    =      -2.2295100929405951 [Eh]
	 SCS Total Energy          =    -571.9027175529512306 [Eh]
	-----------------------------------------------------------

  Dipole Moment: [D]
     X:    -2.1138      Y:    -0.9792      Z:    -0.2688     Total:     2.3450

*** Psi4 exiting successfully. Buy a developer a beer!
