                               Psi4 1.3.2 release

  ==> Input File <==

--------------------------------------------------------------------------
#psi4
#
memory 32 gb

molecule  {
0 1
  O       -0.1147700    -1.8002930     0.4548730
  O        0.3768205     1.4635430    -1.0043703
  O       -1.9551560     1.3713260     0.4690830
  O        2.7148150     0.4505790    -0.2056670
  O       -1.6716310    -0.8002260    -0.9984850
  C        0.4315910     1.0135520     0.3497470
  C       -0.9093320     0.4742750     0.8400700
  C        1.5345100    -0.0288940     0.4204030
  C       -1.2151430    -0.9364420     0.3397180
  C        1.0549700    -1.3167000    -0.2286510
  H        0.7058299     1.9188248     0.9122860
  H       -0.8818830     0.4322700     1.9353370
  H        1.7837760    -0.2316310     1.4680400
  H       -1.9939520    -1.3968640     0.9617720
  H        0.8436020    -1.1475360    -1.2899680
  H        1.8059140    -2.1013880    -0.1265130
  H       -0.3930520     2.0121160    -1.0836700
  H       -2.3417080     0.9766970    -0.3400740
  H        2.3997000     0.9352960    -0.9928030
  H       -1.9956420    -1.6762600    -1.2784950
units angstrom
no_reorient  #important for SAPT in psi4, default
symmetry c1  #important for SAPT in psi4, default
}

set PROPERTIES_ORIGIN ["COM"]
properties('MP2/aug-cc-pvtz', properties = ['dipole'])
--------------------------------------------------------------------------

    Molecular point group: c1
  Charge       = 0
  Multiplicity = 1
  Basis Set: AUG-CC-PVTZ
    Blend: AUG-CC-PVTZ
  Basis Set: (AUG-CC-PVTZ AUX)
    Blend: AUG-CC-PVTZ-JKFIT

    Orbital Energies [Eh]
    ---------------------

    Doubly Occupied:

       1A    -20.593282     2A    -20.582026     3A    -20.575222
       4A    -20.565948     5A    -20.558500     6A    -11.355254
       7A    -11.300042     8A    -11.290750     9A    -11.286902
      10A    -11.279601    11A     -1.440009    12A     -1.393266
      13A     -1.376550    14A     -1.355212    15A     -1.349714
      16A     -1.060262    17A     -1.024187    18A     -0.900120
      19A     -0.870772    20A     -0.801474    21A     -0.754209
      22A     -0.727098    23A     -0.714547    24A     -0.697232
      25A     -0.668574    26A     -0.647447    27A     -0.622134
      28A     -0.619263    29A     -0.602807    30A     -0.586246
      31A     -0.572644    32A     -0.556736    33A     -0.541871
      34A     -0.516959    35A     -0.503547    36A     -0.490250
      37A     -0.488220    38A     -0.471359    39A     -0.442449
      40A     -0.415693

  @DF-RHF Final Energy:  -569.67495463575676

   => Energetics <=

    Nuclear Repulsion Energy =            632.9659059475476397
    One-Electron Energy =               -2040.0849581002635205
    Two-Electron Energy =                 837.4440975169592321
    Total Energy =                       -569.6749546357567624
  Basis Set: (AUG-CC-PVTZ AUX)
    Blend: AUG-CC-PVTZ-RI
    Molecular point group: c1

    Geometry (in Angstrom), charge = 0, multiplicity = 1:

       Center              X                  Y                   Z               Mass
    ------------   -----------------  -----------------  -----------------  -----------------
         O           -0.116741109014    -1.807918438642     0.453032808201    15.994914619570
         O            0.374849390986     1.455917561358    -1.006210491799    15.994914619570
         O           -1.957127109014     1.363700561358     0.467242808201    15.994914619570
         O            2.712843890986     0.442953561358    -0.207507191799    15.994914619570
         O           -1.673602109014    -0.807851438642    -1.000325191799    15.994914619570
         C            0.429619890986     1.005926561358     0.347906808201    12.000000000000
         C           -0.911303109014     0.466649561358     0.838229808201    12.000000000000
         C            1.532538890986    -0.036519438642     0.418562808201    12.000000000000
         C           -1.217114109014    -0.944067438642     0.337877808201    12.000000000000
         C            1.052998890986    -1.324325438642    -0.230491191799    12.000000000000
         H            0.703858790986     1.911199361358     0.910445808201     1.007825032230
         H           -0.883854109014     0.424644561358     1.933496808201     1.007825032230
         H            1.781804890986    -0.239256438642     1.466199808201     1.007825032230
         H           -1.995923109014    -1.404489438642     0.959931808201     1.007825032230
         H            0.841630890986    -1.155161438642    -1.291808191799     1.007825032230
         H            1.803942890986    -2.109013438642    -0.128353191799     1.007825032230
         H           -0.395023109014     2.004490561358    -1.085510191799     1.007825032230
         H           -2.343679109014     0.969071561358    -0.341914191799     1.007825032230
         H            2.397728890986     0.927670561358    -0.994643191799     1.007825032230
         H           -1.997613109014    -1.683885438642    -1.280335191799     1.007825032230

  Basis Set: AUG-CC-PVTZ
    Blend: AUG-CC-PVTZ
  Basis Set: (AUG-CC-PVTZ AUX)
    Blend: AUG-CC-PVTZ-JKFIT
	 Reference Energy          =    -569.6749546357567624 [Eh]
	 Singles Energy            =      -0.0000000000000000 [Eh]
	 Same-Spin Energy          =      -0.5540117650457305 [Eh]
	 Opposite-Spin Energy      =      -1.7026512778992517 [Eh]
	 Correlation Energy        =      -2.2566630429449823 [Eh]
	 Total Energy              =    -571.9316176787017412 [Eh]

	 ================> DF-SCS-MP2 Energies <==================
	-----------------------------------------------------------
	 SCS Same-Spin Scale       =       0.3333333333333333 [-]
	 SCS Opposite-Spin Scale   =       1.2000000000000000 [-]
	 SCS Same-Spin Energy      =      -0.1846705883485768 [Eh]
	 SCS Opposite-Spin Energy  =      -2.0431815334791019 [Eh]
	 SCS Correlation Energy    =      -2.2278521218276786 [Eh]
	 SCS Total Energy          =    -571.9028067575844716 [Eh]
	-----------------------------------------------------------

  Dipole Moment: [D]
     X:    -2.2399      Y:    -1.1666      Z:    -0.3034     Total:     2.5436

*** Psi4 exiting successfully. Buy a developer a beer!
