                               Psi4 1.3.2 release

  ==> Input File <==

--------------------------------------------------------------------------
#psi4
#
memory 32 gb

molecule  {
0 1
  O       -0.1147700    -1.8002930     0.4548730
  O        0.3584290     1.3939840    -1.0246780
  O       -1.9551560     1.3713260     0.4690830
  O        2.7148150     0.4505790    -0.2056670
  O       -1.6716310    -0.8002260    -0.9984850
  C        0.4315910     1.0135520     0.3497470
  C       -0.9093320     0.4742750     0.8400700
  C        1.5345100    -0.0288940     0.4204030
  C       -1.1751086    -0.7517620     0.4052202
  C        1.0549700    -1.3167000    -0.2286510
  H        0.7042560     1.8874530     0.9605880
  H       -0.8818830     0.4322700     1.9353370
  H        1.7837760    -0.2316310     1.4680400
  H       -1.9939520    -1.3968640     0.9617720
  H        0.8436020    -1.1475360    -1.2899680
  H        1.8059140    -2.1013880    -0.1265130
  H       -0.3930520     2.0121160    -1.0836700
  H       -2.3417080     0.9766970    -0.3400740
  H        2.3997000     0.9352960    -0.9928030
  H       -1.9956420    -1.6762600    -1.2784950
units angstrom
no_reorient  #important for SAPT in psi4, default
symmetry c1  #important for SAPT in psi4, default
}

set PROPERTIES_ORIGIN ["COM"]
properties('MP2/aug-cc-pvtz', properties = ['dipole'])
--------------------------------------------------------------------------

    Molecular point group: c1
  Charge       = 0
  Multiplicity = 1
  Basis Set: AUG-CC-PVTZ
    Blend: AUG-CC-PVTZ
  Basis Set: (AUG-CC-PVTZ AUX)
    Blend: AUG-CC-PVTZ-JKFIT

    Orbital Energies [Eh]
    ---------------------

    Doubly Occupied:

       1A    -20.584697     2A    -20.580256     3A    -20.578430
       4A    -20.576041     5A    -20.559709     6A    -11.362965
       7A    -11.299129     8A    -11.298023     9A    -11.287629
      10A    -11.273386    11A     -1.425490    12A     -1.387560
      13A     -1.379622    14A     -1.351137    15A     -1.330595
      16A     -1.097122    17A     -1.032740    18A     -0.915506
      19A     -0.863155    20A     -0.801917    21A     -0.749133
      22A     -0.730656    23A     -0.707737    24A     -0.698312
      25A     -0.669266    26A     -0.646707    27A     -0.616310
      28A     -0.614920    29A     -0.603023    30A     -0.575343
      31A     -0.569275    32A     -0.556619    33A     -0.542362
      34A     -0.526834    35A     -0.506266    36A     -0.489655
      37A     -0.484268    38A     -0.463265    39A     -0.437453
      40A     -0.424394

  @DF-RHF Final Energy:  -569.61638146534824

   => Energetics <=

    Nuclear Repulsion Energy =            635.6922487103433923
    One-Electron Energy =               -2045.4234374139871306
    Two-Electron Energy =                 840.1148072382954979
    Total Energy =                       -569.6163814653482405
  Basis Set: (AUG-CC-PVTZ AUX)
    Blend: AUG-CC-PVTZ-RI
    Molecular point group: c1

    Geometry (in Angstrom), charge = 0, multiplicity = 1:

       Center              X                  Y                   Z               Mass
    ------------   -----------------  -----------------  -----------------  -----------------
         O           -0.117971716394    -1.815062272555     0.449634761930    15.994914619570
         O            0.355227283606     1.379214727445    -1.029916238070    15.994914619570
         O           -1.958357716394     1.356556727445     0.463844761930    15.994914619570
         O            2.711613283606     0.435809727445    -0.210905238070    15.994914619570
         O           -1.674832716394    -0.814995272555    -1.003723238070    15.994914619570
         C            0.428389283606     0.998782727445     0.344508761930    12.000000000000
         C           -0.912533716394     0.459505727445     0.834831761930    12.000000000000
         C            1.531308283606    -0.043663272555     0.415164761930    12.000000000000
         C           -1.178310316394    -0.766531272555     0.399981961930    12.000000000000
         C            1.051768283606    -1.331469272555    -0.233889238070    12.000000000000
         H            0.701054283606     1.872683727445     0.955349761930     1.007825032230
         H           -0.885084716394     0.417500727445     1.930098761930     1.007825032230
         H            1.780574283606    -0.246400272555     1.462801761930     1.007825032230
         H           -1.997153716394    -1.411633272555     0.956533761930     1.007825032230
         H            0.840400283606    -1.162305272555    -1.295206238070     1.007825032230
         H            1.802712283606    -2.116157272555    -0.131751238070     1.007825032230
         H           -0.396253716394     1.997346727445    -1.088908238070     1.007825032230
         H           -2.344909716394     0.961927727445    -0.345312238070     1.007825032230
         H            2.396498283606     0.920526727445    -0.998041238070     1.007825032230
         H           -1.998843716394    -1.691029272555    -1.283733238070     1.007825032230

  Basis Set: AUG-CC-PVTZ
    Blend: AUG-CC-PVTZ
  Basis Set: (AUG-CC-PVTZ AUX)
    Blend: AUG-CC-PVTZ-JKFIT
	 Reference Energy          =    -569.6163814653482405 [Eh]
	 Singles Energy            =      -0.0000000000000000 [Eh]
	 Same-Spin Energy          =      -0.5583144095000895 [Eh]
	 Opposite-Spin Energy      =      -1.7111441053843910 [Eh]
	 Correlation Energy        =      -2.2694585148844806 [Eh]
	 Total Energy              =    -571.8858399802327312 [Eh]

	 ================> DF-SCS-MP2 Energies <==================
	-----------------------------------------------------------
	 SCS Same-Spin Scale       =       0.3333333333333333 [-]
	 SCS Opposite-Spin Scale   =       1.2000000000000000 [-]
	 SCS Same-Spin Energy      =      -0.1861048031666965 [Eh]
	 SCS Opposite-Spin Energy  =      -2.0533729264612690 [Eh]
	 SCS Correlation Energy    =      -2.2394777296279655 [Eh]
	 SCS Total Energy          =    -571.8558591949762331 [Eh]
	-----------------------------------------------------------

  Dipole Moment: [D]
     X:    -2.0660      Y:    -0.4491      Z:     0.0073     Total:     2.1142

*** Psi4 exiting successfully. Buy a developer a beer!
