                               Psi4 1.3.2 release

  ==> Input File <==

--------------------------------------------------------------------------
#psi4
#
memory 32 gb

molecule  {
0 1
  O       -0.1147700    -1.8002930     0.4548730
  O        0.3584290     1.3939840    -1.0246780
  O       -1.9551560     1.3713260     0.4690830
  O        2.7148150     0.4505790    -0.2056670
  O       -1.6716310    -0.8002260    -0.9984850
  C        0.4315910     1.0135520     0.3497470
  C       -0.9093320     0.4742750     0.8400700
  C        1.5345100    -0.0288940     0.4204030
  C       -1.2277910    -0.9843598     0.3382364
  C        1.0549700    -1.3167000    -0.2286510
  H        0.7042560     1.8874530     0.9605880
  H       -0.8818830     0.4322700     1.9353370
  H        1.7837760    -0.2316310     1.4680400
  H       -1.9939520    -1.3968640     0.9617720
  H        0.8436020    -1.1475360    -1.2899680
  H        1.8059140    -2.1013880    -0.1265130
  H       -0.3930520     2.0121160    -1.0836700
  H       -2.3417080     0.9766970    -0.3400740
  H        2.3997000     0.9352960    -0.9928030
  H       -1.9874546    -1.6884424    -1.2477869
units angstrom
no_reorient  #important for SAPT in psi4, default
symmetry c1  #important for SAPT in psi4, default
}

set PROPERTIES_ORIGIN ["COM"]
properties('MP2/aug-cc-pvtz', properties = ['dipole'])
--------------------------------------------------------------------------

    Molecular point group: c1
  Charge       = 0
  Multiplicity = 1
  Basis Set: AUG-CC-PVTZ
    Blend: AUG-CC-PVTZ
  Basis Set: (AUG-CC-PVTZ AUX)
    Blend: AUG-CC-PVTZ-JKFIT

    Orbital Energies [Eh]
    ---------------------

    Doubly Occupied:

       1A    -20.593456     2A    -20.581888     3A    -20.572649
       4A    -20.570184     5A    -20.558240     6A    -11.352964
       7A    -11.296878     8A    -11.290023     9A    -11.285593
      10A    -11.280033    11A     -1.442383    12A     -1.391017
      13A     -1.375889    14A     -1.356273    15A     -1.347019
      16A     -1.056019    17A     -1.020508    18A     -0.894648
      19A     -0.871858    20A     -0.796384    21A     -0.754582
      22A     -0.726410    23A     -0.714576    24A     -0.694369
      25A     -0.669190    26A     -0.645463    27A     -0.625271
      28A     -0.614661    29A     -0.601305    30A     -0.585386
      31A     -0.575955    32A     -0.553566    33A     -0.542064
      34A     -0.515108    35A     -0.507862    36A     -0.490411
      37A     -0.482301    38A     -0.472461    39A     -0.440453
      40A     -0.411708

  @DF-RHF Final Energy:  -569.67216604045052

   => Energetics <=

    Nuclear Repulsion Energy =            633.2392448914768011
    One-Electron Energy =               -2040.7088066643966613
    Two-Electron Energy =                 837.7973957324693401
    Total Energy =                       -569.6721660404505201
  Basis Set: (AUG-CC-PVTZ AUX)
    Blend: AUG-CC-PVTZ-RI
    Molecular point group: c1

    Geometry (in Angstrom), charge = 0, multiplicity = 1:

       Center              X                  Y                   Z               Mass
    ------------   -----------------  -----------------  -----------------  -----------------
         O           -0.113813598478    -1.796379176404     0.454785329514    15.994914619570
         O            0.359385401522     1.397897823596    -1.024765670486    15.994914619570
         O           -1.954199598478     1.375239823596     0.468995329514    15.994914619570
         O            2.715771401522     0.454492823596    -0.205754670486    15.994914619570
         O           -1.670674598478    -0.796312176404    -0.998572670486    15.994914619570
         C            0.432547401522     1.017465823596     0.349659329514    12.000000000000
         C           -0.908375598478     0.478188823596     0.839982329514    12.000000000000
         C            1.535466401522    -0.024980176404     0.420315329514    12.000000000000
         C           -1.226834598478    -0.980445976404     0.338148729514    12.000000000000
         C            1.055926401522    -1.312786176404    -0.228738670486    12.000000000000
         H            0.705212401522     1.891366823596     0.960500329514     1.007825032230
         H           -0.880926598478     0.436183823596     1.935249329514     1.007825032230
         H            1.784732401522    -0.227717176404     1.467952329514     1.007825032230
         H           -1.992995598478    -1.392950176404     0.961684329514     1.007825032230
         H            0.844558401522    -1.143622176404    -1.290055670486     1.007825032230
         H            1.806870401522    -2.097474176404    -0.126600670486     1.007825032230
         H           -0.392095598478     2.016029823596    -1.083757670486     1.007825032230
         H           -2.340751598478     0.980610823596    -0.340161670486     1.007825032230
         H            2.400656401522     0.939209823596    -0.992890670486     1.007825032230
         H           -1.986498198478    -1.684528576404    -1.247874570486     1.007825032230

  Basis Set: AUG-CC-PVTZ
    Blend: AUG-CC-PVTZ
  Basis Set: (AUG-CC-PVTZ AUX)
    Blend: AUG-CC-PVTZ-JKFIT
	 Reference Energy          =    -569.6721660404505201 [Eh]
	 Singles Energy            =      -0.0000000000000000 [Eh]
	 Same-Spin Energy          =      -0.5545098643053321 [Eh]
	 Opposite-Spin Energy      =      -1.7037434869386479 [Eh]
	 Correlation Energy        =      -2.2582533512439800 [Eh]
	 Total Energy              =    -571.9304193916944996 [Eh]

	 ================> DF-SCS-MP2 Energies <==================
	-----------------------------------------------------------
	 SCS Same-Spin Scale       =       0.3333333333333333 [-]
	 SCS Opposite-Spin Scale   =       1.2000000000000000 [-]
	 SCS Same-Spin Energy      =      -0.1848366214351107 [Eh]
	 SCS Opposite-Spin Energy  =      -2.0444921843263772 [Eh]
	 SCS Correlation Energy    =      -2.2293288057614880 [Eh]
	 SCS Total Energy          =    -571.9014948462120174 [Eh]
	-----------------------------------------------------------

  Dipole Moment: [D]
     X:    -2.1612      Y:    -1.1272      Z:    -0.2759     Total:     2.4530

*** Psi4 exiting successfully. Buy a developer a beer!
