                               Psi4 1.3.2 release

  ==> Input File <==

--------------------------------------------------------------------------
#psi4
#
memory 32 gb

molecule  {
0 1
  O       -0.1147700    -1.8002930     0.4548730
  O        0.3492258     1.4019249    -1.0219336
  O       -1.9551560     1.3713260     0.4690830
  O        2.7148150     0.4505790    -0.2056670
  O       -1.6716310    -0.8002260    -0.9984850
  C        0.4315910     1.0135520     0.3497470
  C       -0.9093320     0.4742750     0.8400700
  C        1.5325299    -0.0300194     0.4334638
  C       -1.2151430    -0.9364420     0.3397180
  C        1.0549700    -1.3167000    -0.2286510
  H        0.7042560     1.8874530     0.9605880
  H       -0.8818830     0.4322700     1.9353370
  H        1.7837760    -0.2316310     1.4680400
  H       -1.9939520    -1.3968640     0.9617720
  H        0.8436020    -1.1475360    -1.2899680
  H        1.8059140    -2.1013880    -0.1265130
  H       -0.3930520     2.0121160    -1.0836700
  H       -2.3417080     0.9766970    -0.3400740
  H        2.3997000     0.9352960    -0.9928030
  H       -1.9956420    -1.6762600    -1.2784950
units angstrom
no_reorient  #important for SAPT in psi4, default
symmetry c1  #important for SAPT in psi4, default
}

set PROPERTIES_ORIGIN ["COM"]
properties('MP2/aug-cc-pvtz', properties = ['dipole'])
--------------------------------------------------------------------------

    Molecular point group: c1
  Charge       = 0
  Multiplicity = 1
  Basis Set: AUG-CC-PVTZ
    Blend: AUG-CC-PVTZ
  Basis Set: (AUG-CC-PVTZ AUX)
    Blend: AUG-CC-PVTZ-JKFIT

    Orbital Energies [Eh]
    ---------------------

    Doubly Occupied:

       1A    -20.591582     2A    -20.580619     3A    -20.574282
       4A    -20.569921     5A    -20.557541     6A    -11.353830
       7A    -11.298174     8A    -11.291434     9A    -11.285882
      10A    -11.278697    11A     -1.438730    12A     -1.391905
      13A     -1.374784    14A     -1.353689    15A     -1.346934
      16A     -1.060002    17A     -1.022805    18A     -0.898789
      19A     -0.870478    20A     -0.800066    21A     -0.752474
      22A     -0.727187    23A     -0.711881    24A     -0.696043
      25A     -0.670422    26A     -0.645918    27A     -0.620654
      28A     -0.614626    29A     -0.603060    30A     -0.585785
      31A     -0.571110    32A     -0.554982    33A     -0.542286
      34A     -0.517760    35A     -0.502457    36A     -0.491040
      37A     -0.487543    38A     -0.473009    39A     -0.440341
      40A     -0.415450

  @DF-RHF Final Energy:  -569.67522664612488

   => Energetics <=

    Nuclear Repulsion Energy =            633.6760381290113173
    One-Electron Energy =               -2041.5741850813592464
    Two-Electron Energy =                 838.2229203062229317
    Total Energy =                       -569.6752266461248837
  Basis Set: (AUG-CC-PVTZ AUX)
    Blend: AUG-CC-PVTZ-RI
    Molecular point group: c1

    Geometry (in Angstrom), charge = 0, multiplicity = 1:

       Center              X                  Y                   Z               Mass
    ------------   -----------------  -----------------  -----------------  -----------------
         O           -0.113630722447    -1.801049535343     0.453536057107    15.994914619570
         O            0.350365077553     1.401168364657    -1.023270542893    15.994914619570
         O           -1.954016722447     1.370569464657     0.467746057107    15.994914619570
         O            2.715954277553     0.449822464657    -0.207003942893    15.994914619570
         O           -1.670491722447    -0.800982535343    -0.999821942893    15.994914619570
         C            0.432730277553     1.012795464657     0.348410057107    12.000000000000
         C           -0.908192722447     0.473518464657     0.838733057107    12.000000000000
         C            1.533669177553    -0.030775935343     0.432126857107    12.000000000000
         C           -1.214003722447    -0.937198535343     0.338381057107    12.000000000000
         C            1.056109277553    -1.317456535343    -0.229987942893    12.000000000000
         H            0.705395277553     1.886696464657     0.959251057107     1.007825032230
         H           -0.880743722447     0.431513464657     1.934000057107     1.007825032230
         H            1.784915277553    -0.232387535343     1.466703057107     1.007825032230
         H           -1.992812722447    -1.397620535343     0.960435057107     1.007825032230
         H            0.844741277553    -1.148292535343    -1.291304942893     1.007825032230
         H            1.807053277553    -2.102144535343    -0.127849942893     1.007825032230
         H           -0.391912722447     2.011359464657    -1.085006942893     1.007825032230
         H           -2.340568722447     0.975940464657    -0.341410942893     1.007825032230
         H            2.400839277553     0.934539464657    -0.994139942893     1.007825032230
         H           -1.994502722447    -1.677016535343    -1.279831942893     1.007825032230

  Basis Set: AUG-CC-PVTZ
    Blend: AUG-CC-PVTZ
  Basis Set: (AUG-CC-PVTZ AUX)
    Blend: AUG-CC-PVTZ-JKFIT
	 Reference Energy          =    -569.6752266461248837 [Eh]
	 Singles Energy            =      -0.0000000000000000 [Eh]
	 Same-Spin Energy          =      -0.5543448745981303 [Eh]
	 Opposite-Spin Energy      =      -1.7034549399362897 [Eh]
	 Correlation Energy        =      -2.2577998145344198 [Eh]
	 Total Energy              =    -571.9330264606593346 [Eh]

	 ================> DF-SCS-MP2 Energies <==================
	-----------------------------------------------------------
	 SCS Same-Spin Scale       =       0.3333333333333333 [-]
	 SCS Opposite-Spin Scale   =       1.2000000000000000 [-]
	 SCS Same-Spin Energy      =      -0.1847816248660434 [Eh]
	 SCS Opposite-Spin Energy  =      -2.0441459279235477 [Eh]
	 SCS Correlation Energy    =      -2.2289275527895911 [Eh]
	 SCS Total Energy          =    -571.9041541989145117 [Eh]
	-----------------------------------------------------------

  Dipole Moment: [D]
     X:    -2.1742      Y:    -1.0214      Z:    -0.2779     Total:     2.4182

*** Psi4 exiting successfully. Buy a developer a beer!
