                               Psi4 1.3.2 release

  ==> Input File <==

--------------------------------------------------------------------------
#psi4
#
memory 32 gb

molecule  {
0 1
  O       -0.1147700    -1.8002930     0.4548730
  O        0.3584290     1.3939840    -1.0246780
  O       -1.9551560     1.3713260     0.4690830
  O        2.7148150     0.4505790    -0.2056670
  O       -1.6716310    -0.8002260    -0.9984850
  C        0.4315910     1.0135520     0.3497470
  C       -0.9066602     0.4815172     0.8498407
  C        1.5345100    -0.0288940     0.4204030
  C       -1.2151430    -0.9364420     0.3397180
  C        1.0549700    -1.3167000    -0.2286510
  H        0.7042560     1.8874530     0.9605880
  H       -0.8818830     0.4322700     1.9353370
  H        1.7837760    -0.2316310     1.4680400
  H       -1.9939520    -1.3968640     0.9617720
  H        0.8436020    -1.1475360    -1.2899680
  H        1.8059140    -2.1013880    -0.1265130
  H       -0.3930520     2.0121160    -1.0836700
  H       -2.3472928     0.9831560    -0.3405109
  H        2.3997000     0.9352960    -0.9928030
  H       -1.9956420    -1.6762600    -1.2784950
units angstrom
no_reorient  #important for SAPT in psi4, default
symmetry c1  #important for SAPT in psi4, default
}

set PROPERTIES_ORIGIN ["COM"]
properties('MP2/aug-cc-pvtz', properties = ['dipole'])
--------------------------------------------------------------------------

    Molecular point group: c1
  Charge       = 0
  Multiplicity = 1
  Basis Set: AUG-CC-PVTZ
    Blend: AUG-CC-PVTZ
  Basis Set: (AUG-CC-PVTZ AUX)
    Blend: AUG-CC-PVTZ-JKFIT

    Orbital Energies [Eh]
    ---------------------

    Doubly Occupied:

       1A    -20.591288     2A    -20.580349     3A    -20.574176
       4A    -20.571427     5A    -20.558235     6A    -11.353784
       7A    -11.298354     8A    -11.290895     9A    -11.285679
      10A    -11.277975    11A     -1.437961    12A     -1.391358
      13A     -1.375193    14A     -1.353566    15A     -1.347677
      16A     -1.059133    17A     -1.022010    18A     -0.897527
      19A     -0.870803    20A     -0.798734    21A     -0.751494
      22A     -0.727566    23A     -0.711249    24A     -0.696701
      25A     -0.669808    26A     -0.646709    27A     -0.620726
      28A     -0.613625    29A     -0.603320    30A     -0.584725
      31A     -0.571769    32A     -0.555153    33A     -0.543243
      34A     -0.516588    35A     -0.502191    36A     -0.490483
      37A     -0.487331    38A     -0.471276    39A     -0.441171
      40A     -0.414742

  @DF-RHF Final Energy:  -569.67472007078186

   => Energetics <=

    Nuclear Repulsion Energy =            633.6168451556376340
    One-Electron Energy =               -2041.4711382645696176
    Two-Electron Energy =                 838.1795730381500107
    Total Energy =                       -569.6747200707818592
  Basis Set: (AUG-CC-PVTZ AUX)
    Blend: AUG-CC-PVTZ-RI
    Molecular point group: c1

    Geometry (in Angstrom), charge = 0, multiplicity = 1:

       Center              X                  Y                   Z               Mass
    ------------   -----------------  -----------------  -----------------  -----------------
         O           -0.114946250489    -1.800915627328     0.454094646813    15.994914619570
         O            0.358252749511     1.393361372672    -1.025456353187    15.994914619570
         O           -1.955332250489     1.370703372672     0.468304646813    15.994914619570
         O            2.714638749511     0.449956372672    -0.206445353187    15.994914619570
         O           -1.671807250489    -0.800848627328    -0.999263353187    15.994914619570
         C            0.431414749511     1.012929372672     0.348968646813    12.000000000000
         C           -0.906836450489     0.480894572672     0.849062346813    12.000000000000
         C            1.534333749511    -0.029516627328     0.419624646813    12.000000000000
         C           -1.215319250489    -0.937064627328     0.338939646813    12.000000000000
         C            1.054793749511    -1.317322627328    -0.229429353187    12.000000000000
         H            0.704079749511     1.886830372672     0.959809646813     1.007825032230
         H           -0.882059250489     0.431647372672     1.934558646813     1.007825032230
         H            1.783599749511    -0.232253627328     1.467261646813     1.007825032230
         H           -1.994128250489    -1.397486627328     0.960993646813     1.007825032230
         H            0.843425749511    -1.148158627328    -1.290746353187     1.007825032230
         H            1.805737749511    -2.102010627328    -0.127291353187     1.007825032230
         H           -0.393228250489     2.011493372672    -1.084448353187     1.007825032230
         H           -2.347469050489     0.982533372672    -0.341289253187     1.007825032230
         H            2.399523749511     0.934673372672    -0.993581353187     1.007825032230
         H           -1.995818250489    -1.676882627328    -1.279273353187     1.007825032230

  Basis Set: AUG-CC-PVTZ
    Blend: AUG-CC-PVTZ
  Basis Set: (AUG-CC-PVTZ AUX)
    Blend: AUG-CC-PVTZ-JKFIT
	 Reference Energy          =    -569.6747200707818592 [Eh]
	 Singles Energy            =      -0.0000000000000000 [Eh]
	 Same-Spin Energy          =      -0.5545084663496911 [Eh]
	 Opposite-Spin Energy      =      -1.7037461339371931 [Eh]
	 Correlation Energy        =      -2.2582546002868842 [Eh]
	 Total Energy              =    -571.9329746710687914 [Eh]

	 ================> DF-SCS-MP2 Energies <==================
	-----------------------------------------------------------
	 SCS Same-Spin Scale       =       0.3333333333333333 [-]
	 SCS Opposite-Spin Scale   =       1.2000000000000000 [-]
	 SCS Same-Spin Energy      =      -0.1848361554498970 [Eh]
	 SCS Opposite-Spin Energy  =      -2.0444953607246314 [Eh]
	 SCS Correlation Energy    =      -2.2293315161745286 [Eh]
	 SCS Total Energy          =    -571.9040515869563706 [Eh]
	-----------------------------------------------------------

  Dipole Moment: [D]
     X:    -2.1888      Y:    -0.9800      Z:    -0.2913     Total:     2.4158

*** Psi4 exiting successfully. Buy a developer a beer!
