                               Psi4 1.3.2 release

  ==> Input File <==

--------------------------------------------------------------------------
#psi4
#
memory 32 gb

molecule  {
0 1
  O       -0.1147700    -1.8002930     0.4548730
  O        0.3584290     1.3939840    -1.0246780
  O       -2.0037702     1.3251793     0.5020661
  O        2.7148150     0.4505790    -0.2056670
  O       -1.6716310    -0.8002260    -0.9984850
  C        0.4667363     0.9493061     0.3817119
  C       -0.9093320     0.4742750     0.8400700
  C        1.5345100    -0.0288940     0.4204030
  C       -1.2151430    -0.9364420     0.3397180
  C        1.0549700    -1.3167000    -0.2286510
  H        0.7042560     1.8874530     0.9605880
  H       -0.8818830     0.4322700     1.9353370
  H        1.7837760    -0.2316310     1.4680400
  H       -1.9939520    -1.3968640     0.9617720
  H        0.8436020    -1.1475360    -1.2899680
  H        1.8059140    -2.1013880    -0.1265130
  H       -0.3930520     2.0121160    -1.0836700
  H       -2.3417080     0.9766970    -0.3400740
  H        2.3997000     0.9352960    -0.9928030
  H       -1.9956420    -1.6762600    -1.2784950
units angstrom
no_reorient  #important for SAPT in psi4, default
symmetry c1  #important for SAPT in psi4, default
}

set PROPERTIES_ORIGIN ["COM"]
properties('MP2/aug-cc-pvtz', properties = ['dipole'])
--------------------------------------------------------------------------

    Molecular point group: c1
  Charge       = 0
  Multiplicity = 1
  Basis Set: AUG-CC-PVTZ
    Blend: AUG-CC-PVTZ
  Basis Set: (AUG-CC-PVTZ AUX)
    Blend: AUG-CC-PVTZ-JKFIT

    Orbital Energies [Eh]
    ---------------------

    Doubly Occupied:

       1A    -20.590612     2A    -20.580958     3A    -20.576816
       4A    -20.566253     5A    -20.561345     6A    -11.352248
       7A    -11.301426     8A    -11.296596     9A    -11.286402
      10A    -11.279660    11A     -1.438678    12A     -1.384672
      13A     -1.377985    14A     -1.354240    15A     -1.340147
      16A     -1.073465    17A     -1.025453    18A     -0.900920
      19A     -0.875176    20A     -0.798925    21A     -0.752604
      22A     -0.725376    23A     -0.710079    24A     -0.699607
      25A     -0.668570    26A     -0.644294    27A     -0.620103
      28A     -0.613494    29A     -0.601428    30A     -0.586661
      31A     -0.573544    32A     -0.556308    33A     -0.537567
      34A     -0.515580    35A     -0.501360    36A     -0.490908
      37A     -0.487697    38A     -0.477918    39A     -0.448080
      40A     -0.414294

  @DF-RHF Final Energy:  -569.66550035779892

   => Energetics <=

    Nuclear Repulsion Energy =            633.8668700059107550
    One-Electron Energy =               -2041.8898372341282084
    Two-Electron Energy =                 838.3574668704186479
    Total Energy =                       -569.6655003577989191
  Basis Set: (AUG-CC-PVTZ AUX)
    Blend: AUG-CC-PVTZ-RI
    Molecular point group: c1

    Geometry (in Angstrom), charge = 0, multiplicity = 1:

       Center              X                  Y                   Z               Mass
    ------------   -----------------  -----------------  -----------------  -----------------
         O           -0.112398684449    -1.790236193034     0.448800960436    15.994914619570
         O            0.360800315551     1.404040806966    -1.030750039564    15.994914619570
         O           -2.001398884449     1.335236106966     0.495994060436    15.994914619570
         O            2.717186315551     0.460635806966    -0.211739039564    15.994914619570
         O           -1.669259684449    -0.790169193034    -1.004557039564    15.994914619570
         C            0.469107615551     0.959362906966     0.375639860436    12.000000000000
         C           -0.906960684449     0.484331806966     0.833997960436    12.000000000000
         C            1.536881315551    -0.018837193034     0.414330960436    12.000000000000
         C           -1.212771684449    -0.926385193034     0.333645960436    12.000000000000
         C            1.057341315551    -1.306643193034    -0.234723039564    12.000000000000
         H            0.706627315551     1.897509806966     0.954515960436     1.007825032230
         H           -0.879511684449     0.442326806966     1.929264960436     1.007825032230
         H            1.786147315551    -0.221574193034     1.461967960436     1.007825032230
         H           -1.991580684449    -1.386807193034     0.955699960436     1.007825032230
         H            0.845973315551    -1.137479193034    -1.296040039564     1.007825032230
         H            1.808285315551    -2.091331193034    -0.132585039564     1.007825032230
         H           -0.390680684449     2.022172806966    -1.089742039564     1.007825032230
         H           -2.339336684449     0.986753806966    -0.346146039564     1.007825032230
         H            2.402071315551     0.945352806966    -0.998875039564     1.007825032230
         H           -1.993270684449    -1.666203193034    -1.284567039564     1.007825032230

  Basis Set: AUG-CC-PVTZ
    Blend: AUG-CC-PVTZ
  Basis Set: (AUG-CC-PVTZ AUX)
    Blend: AUG-CC-PVTZ-JKFIT
	 Reference Energy          =    -569.6655003577989191 [Eh]
	 Singles Energy            =      -0.0000000000000000 [Eh]
	 Same-Spin Energy          =      -0.5551591173757013 [Eh]
	 Opposite-Spin Energy      =      -1.7051199917783149 [Eh]
	 Correlation Energy        =      -2.2602791091540162 [Eh]
	 Total Energy              =    -571.9257794669529176 [Eh]

	 ================> DF-SCS-MP2 Energies <==================
	-----------------------------------------------------------
	 SCS Same-Spin Scale       =       0.3333333333333333 [-]
	 SCS Opposite-Spin Scale   =       1.2000000000000000 [-]
	 SCS Same-Spin Energy      =      -0.1850530391252338 [Eh]
	 SCS Opposite-Spin Energy  =      -2.0461439901339777 [Eh]
	 SCS Correlation Energy    =      -2.2311970292592114 [Eh]
	 SCS Total Energy          =    -571.8966973870581114 [Eh]
	-----------------------------------------------------------

  Dipole Moment: [D]
     X:    -2.0313      Y:    -0.9957      Z:    -0.2461     Total:     2.2756

*** Psi4 exiting successfully. Buy a developer a beer!
