                               Psi4 1.4a3.dev225

  ==> Input File <==

--------------------------------------------------------------------------
#psi4
#
memory 32 gb

molecule  {
0 1
  O       -0.2343850     1.7978400    -0.4145210
  O        0.4791390    -1.3900560     0.9851260
  O       -1.8902550    -1.4798720    -0.4079610
  O        2.7489250    -0.2990660     0.0843650
  O       -1.6766260     0.6849030     1.0797040
  C        0.4758930    -0.9871420    -0.3839460
  C       -0.8811992    -0.4823087    -0.8253812
  C        1.5148540     0.1205520    -0.4811210
  C       -1.2794180     0.8705190    -0.2725550
  C        0.9914930     1.3693070     0.2124490
  H        0.7732420    -1.8350180    -1.0199460
  H       -0.9367810    -0.4539690    -1.9062570
  H        1.7061480     0.3550680    -1.5342930
  H       -2.1075740     1.2945610    -0.8542440
  H        0.8333730     1.1741050     1.2776920
  H        1.6908660     2.1982840     0.0933200
  H       -0.2684360    -2.0097880     1.0741120
  H       -2.2907410    -1.1048270     0.4011470
  H        2.5001980    -0.8049050     0.8819700
  H       -2.0397460     1.5332780     1.3914430
units angstrom
no_reorient  #important for SAPT in psi4, default
symmetry c1  #important for SAPT in psi4, default
}

set PROPERTIES_ORIGIN ["COM"]
properties('MP2/aug-cc-pvtz', properties = ['dipole'])
--------------------------------------------------------------------------

    Molecular point group: c1
  Charge       = 0
  Multiplicity = 1
  Basis Set: AUG-CC-PVTZ
    Blend: AUG-CC-PVTZ
  Basis Set: (AUG-CC-PVTZ AUX)
    Blend: AUG-CC-PVTZ-JKFIT

    Orbital Energies [Eh]
    ---------------------

    Doubly Occupied:

       1A    -20.592807     2A    -20.581016     3A    -20.571146
       4A    -20.569933     5A    -20.558900     6A    -11.356018
       7A    -11.300077     8A    -11.292771     9A    -11.286767
      10A    -11.279593    11A     -1.438248    12A     -1.389084
      13A     -1.368835    14A     -1.351703    15A     -1.342303
      16A     -1.063726    17A     -1.025798    18A     -0.901007
      19A     -0.870016    20A     -0.798399    21A     -0.752235
      22A     -0.728950    23A     -0.711812    24A     -0.689854
      25A     -0.667784    26A     -0.646203    27A     -0.621400
      28A     -0.615827    29A     -0.599605    30A     -0.579930
      31A     -0.572091    32A     -0.556242    33A     -0.541889
      34A     -0.514943    35A     -0.503243    36A     -0.491633
      37A     -0.488767    38A     -0.471850    39A     -0.445163
      40A     -0.417995

  @DF-RHF Final Energy:  -569.67124371794353

   => Energetics <=

    Nuclear Repulsion Energy =            633.2517574344188915
    One-Electron Energy =               -2040.7348784189152866
    Two-Electron Energy =                 837.8118772665529832
    Total Energy =                       -569.6712437179435256
  Basis Set: (AUG-CC-PVTZ AUX)
    Blend: AUG-CC-PVTZ-RI
    Molecular point group: c1

    Geometry (in Angstrom), charge = 0, multiplicity = 1:

       Center              X                  Y                   Z               Mass
    ------------   -----------------  -----------------  -----------------  -----------------
         O           -0.238054470051     1.797412789895    -0.414637148699    15.994914619570
         O            0.475469529949    -1.390483210105     0.985009851301    15.994914619570
         O           -1.893924470051    -1.480299210105    -0.408077148699    15.994914619570
         O            2.745255529949    -0.299493210105     0.084248851301    15.994914619570
         O           -1.680295470051     0.684475789895     1.079587851301    15.994914619570
         C            0.472223529949    -0.987569210105    -0.384062148699    12.000000000000
         C           -0.884868670051    -0.482735910105    -0.825497348699    12.000000000000
         C            1.511184529949     0.120124789895    -0.481237148699    12.000000000000
         C           -1.283087470051     0.870091789895    -0.272671148699    12.000000000000
         C            0.987823529949     1.368879789895     0.212332851301    12.000000000000
         H            0.769572529949    -1.835445210105    -1.020062148699     1.007825032230
         H           -0.940450470051    -0.454396210105    -1.906373148699     1.007825032230
         H            1.702478529949     0.354640789895    -1.534409148699     1.007825032230
         H           -2.111243470051     1.294133789895    -0.854360148699     1.007825032230
         H            0.829703529949     1.173677789895     1.277575851301     1.007825032230
         H            1.687196529949     2.197856789895     0.093203851301     1.007825032230
         H           -0.272105470051    -2.010215210105     1.073995851301     1.007825032230
         H           -2.294410470051    -1.105254210105     0.401030851301     1.007825032230
         H            2.496528529949    -0.805332210105     0.881853851301     1.007825032230
         H           -2.043415470051     1.532850789895     1.391326851301     1.007825032230

  Basis Set: AUG-CC-PVTZ
    Blend: AUG-CC-PVTZ
  Basis Set: (AUG-CC-PVTZ AUX)
    Blend: AUG-CC-PVTZ-JKFIT
	 Reference Energy          =    -569.6712437179435256 [Eh]
	 Singles Energy            =      -0.0000000000000000 [Eh]
	 Same-Spin Energy          =      -0.5547760078382369 [Eh]
	 Opposite-Spin Energy      =      -1.7049037143424663 [Eh]
	 Correlation Energy        =      -2.2596797221807030 [Eh]
	 Total Energy              =    -571.9309234401242747 [Eh]

	 ================> DF-SCS-MP2 Energies <==================
	-----------------------------------------------------------
	 SCS Same-Spin Scale       =       0.3333333333333333 [-]
	 SCS Opposite-Spin Scale   =       1.2000000000000000 [-]
	 SCS Same-Spin Energy      =      -0.1849253359460790 [Eh]
	 SCS Opposite-Spin Energy  =      -2.0458844572109594 [Eh]
	 SCS Correlation Energy    =      -2.2308097931570381 [Eh]
	 SCS Total Energy          =    -571.9020535111005756 [Eh]
	-----------------------------------------------------------

  Dipole Moment: [D]
     X:    -2.1805      Y:     1.0534      Z:     0.3573     Total:     2.4478

*** Psi4 exiting successfully. Buy a developer a beer!
