                               Psi4 1.3.2 release

  ==> Input File <==

--------------------------------------------------------------------------
#psi4
#
memory 32 gb

molecule  {
0 1
  O       -0.1147700    -1.8002930     0.4548730
  O        0.3584290     1.3939840    -1.0246780
  O       -1.9551560     1.3713260     0.4690830
  O        2.7148150     0.4505790    -0.2056670
  O       -1.6716310    -0.8002260    -0.9984850
  C        0.4315910     1.0135520     0.3497470
  C       -0.9093320     0.4742750     0.8400700
  C        1.5209952    -0.0183110     0.4025388
  C       -1.2151430    -0.9364420     0.3397180
  C        1.0549700    -1.3167000    -0.2286510
  H        0.7042560     1.8874530     0.9605880
  H       -0.8818830     0.4322700     1.9353370
  H        1.7837760    -0.2316310     1.4680400
  H       -1.9939520    -1.3968640     0.9617720
  H        0.8436020    -1.1475360    -1.2899680
  H        1.8059140    -2.1013880    -0.1265130
  H       -0.3930520     2.0121160    -1.0836700
  H       -2.3417080     0.9766970    -0.3400740
  H        2.3836422     0.9314976    -0.9885291
  H       -1.9956420    -1.6762600    -1.2784950
units angstrom
no_reorient  #important for SAPT in psi4, default
symmetry c1  #important for SAPT in psi4, default
}

set PROPERTIES_ORIGIN ["COM"]
properties('MP2/aug-cc-pvtz', properties = ['dipole'])
--------------------------------------------------------------------------

    Molecular point group: c1
  Charge       = 0
  Multiplicity = 1
  Basis Set: AUG-CC-PVTZ
    Blend: AUG-CC-PVTZ
  Basis Set: (AUG-CC-PVTZ AUX)
    Blend: AUG-CC-PVTZ-JKFIT

    Orbital Energies [Eh]
    ---------------------

    Doubly Occupied:

       1A    -20.591883     2A    -20.580971     3A    -20.575288
       4A    -20.571767     5A    -20.559237     6A    -11.354255
       7A    -11.299107     8A    -11.291095     9A    -11.285903
      10A    -11.278324    11A     -1.439136    12A     -1.392905
      13A     -1.376637    14A     -1.354416    15A     -1.348715
      16A     -1.061542    17A     -1.023258    18A     -0.900479
      19A     -0.869852    20A     -0.796972    21A     -0.752509
      22A     -0.729231    23A     -0.712804    24A     -0.696636
      25A     -0.669736    26A     -0.645453    27A     -0.621478
      28A     -0.615235    29A     -0.603395    30A     -0.582054
      31A     -0.572432    32A     -0.557680    33A     -0.542999
      34A     -0.515856    35A     -0.503043    36A     -0.491989
      37A     -0.487365    38A     -0.471366    39A     -0.442760
      40A     -0.416545

  @DF-RHF Final Energy:  -569.67299689051254

   => Energetics <=

    Nuclear Repulsion Energy =            634.2763444786720584
    One-Electron Energy =               -2042.7340674687918636
    Two-Electron Energy =                 838.7847260996071554
    Total Energy =                       -569.6729968905125361
  Basis Set: (AUG-CC-PVTZ AUX)
    Blend: AUG-CC-PVTZ-RI
    Molecular point group: c1

    Geometry (in Angstrom), charge = 0, multiplicity = 1:

       Center              X                  Y                   Z               Mass
    ------------   -----------------  -----------------  -----------------  -----------------
         O           -0.113581436772    -1.801113903741     0.456273020604    15.994914619570
         O            0.359617563228     1.393163096259    -1.023277979396    15.994914619570
         O           -1.953967436772     1.370505096259     0.470483020604    15.994914619570
         O            2.716003563227     0.449758096259    -0.204266979396    15.994914619570
         O           -1.670442436772    -0.801046903741    -0.997084979396    15.994914619570
         C            0.432779563228     1.012731096259     0.351147020604    12.000000000000
         C           -0.908143436773     0.473454096259     0.841470020604    12.000000000000
         C            1.522183763228    -0.019131903741     0.403938820604    12.000000000000
         C           -1.213954436773    -0.937262903741     0.341118020604    12.000000000000
         C            1.056158563227    -1.317520903741    -0.227250979396    12.000000000000
         H            0.705444563227     1.886632096259     0.961988020604     1.007825032230
         H           -0.880694436773     0.431449096259     1.936737020604     1.007825032230
         H            1.784964563227    -0.232451903741     1.469440020604     1.007825032230
         H           -1.992763436773    -1.397684903741     0.963172020604     1.007825032230
         H            0.844790563227    -1.148356903741    -1.288567979396     1.007825032230
         H            1.807102563228    -2.102208903741    -0.125112979396     1.007825032230
         H           -0.391863436772     2.011295096259    -1.082269979396     1.007825032230
         H           -2.340519436773     0.975876096259    -0.338673979396     1.007825032230
         H            2.384830763227     0.930676696259    -0.987129079396     1.007825032230
         H           -1.994453436772    -1.677080903741    -1.277094979396     1.007825032230

  Basis Set: AUG-CC-PVTZ
    Blend: AUG-CC-PVTZ
  Basis Set: (AUG-CC-PVTZ AUX)
    Blend: AUG-CC-PVTZ-JKFIT
	 Reference Energy          =    -569.6729968905125361 [Eh]
	 Singles Energy            =      -0.0000000000000000 [Eh]
	 Same-Spin Energy          =      -0.5549116619590371 [Eh]
	 Opposite-Spin Energy      =      -1.7043770015726303 [Eh]
	 Correlation Energy        =      -2.2592886635316676 [Eh]
	 Total Energy              =    -571.9322855540442561 [Eh]

	 ================> DF-SCS-MP2 Energies <==================
	-----------------------------------------------------------
	 SCS Same-Spin Scale       =       0.3333333333333333 [-]
	 SCS Opposite-Spin Scale   =       1.2000000000000000 [-]
	 SCS Same-Spin Energy      =      -0.1849705539863457 [Eh]
	 SCS Opposite-Spin Energy  =      -2.0452524018871561 [Eh]
	 SCS Correlation Energy    =      -2.2302229558735016 [Eh]
	 SCS Total Energy          =    -571.9032198463860368 [Eh]
	-----------------------------------------------------------

  Dipole Moment: [D]
     X:    -2.2286      Y:    -0.9845      Z:    -0.3112     Total:     2.4562

*** Psi4 exiting successfully. Buy a developer a beer!
