                               Psi4 1.3.2 release

  ==> Input File <==

--------------------------------------------------------------------------
#psi4
#
memory 32 gb

molecule  {
0 1
  O       -0.1147700    -1.8002930     0.4548730
  O        0.3584290     1.3939840    -1.0246780
  O       -1.9551560     1.3713260     0.4690830
  O        2.7148150     0.4505790    -0.2056670
  O       -1.6716310    -0.8002260    -0.9984850
  C        0.4394620     1.0222171     0.3559708
  C       -0.9093320     0.4742750     0.8400700
  C        1.5345100    -0.0288940     0.4204030
  C       -1.2151430    -0.9364420     0.3397180
  C        1.0666724    -1.3223378    -0.2259754
  H        0.7042560     1.8874530     0.9605880
  H       -0.8818830     0.4322700     1.9353370
  H        1.7837760    -0.2316310     1.4680400
  H       -1.9939520    -1.3968640     0.9617720
  H        0.8436020    -1.1475360    -1.2899680
  H        1.8059140    -2.1013880    -0.1265130
  H       -0.3930520     2.0121160    -1.0836700
  H       -2.3417080     0.9766970    -0.3400740
  H        2.3997000     0.9352960    -0.9928030
  H       -1.9956420    -1.6762600    -1.2784950
units angstrom
no_reorient  #important for SAPT in psi4, default
symmetry c1  #important for SAPT in psi4, default
}

set PROPERTIES_ORIGIN ["COM"]
properties('MP2/aug-cc-pvtz', properties = ['dipole'])
--------------------------------------------------------------------------

    Molecular point group: c1
  Charge       = 0
  Multiplicity = 1
  Basis Set: AUG-CC-PVTZ
    Blend: AUG-CC-PVTZ
  Basis Set: (AUG-CC-PVTZ AUX)
    Blend: AUG-CC-PVTZ-JKFIT

    Orbital Energies [Eh]
    ---------------------

    Doubly Occupied:

       1A    -20.591089     2A    -20.579625     3A    -20.574294
       4A    -20.570749     5A    -20.557922     6A    -11.353717
       7A    -11.298330     8A    -11.290994     9A    -11.285851
      10A    -11.278508    11A     -1.437198    12A     -1.390275
      13A     -1.374914    14A     -1.352779    15A     -1.347041
      16A     -1.057862    17A     -1.022736    18A     -0.900076
      19A     -0.869211    20A     -0.797585    21A     -0.751478
      22A     -0.728844    23A     -0.711024    24A     -0.695305
      25A     -0.668745    26A     -0.645476    27A     -0.620360
      28A     -0.613499    29A     -0.603034    30A     -0.585290
      31A     -0.571353    32A     -0.557722    33A     -0.542043
      34A     -0.515725    35A     -0.502892    36A     -0.490694
      37A     -0.486735    38A     -0.471414    39A     -0.439507
      40A     -0.417081

  @DF-RHF Final Energy:  -569.67434772375714

   => Energetics <=

    Nuclear Repulsion Energy =            633.3673579020454554
    One-Electron Energy =               -2040.9854570068221165
    Two-Electron Energy =                 837.9437513810196378
    Total Energy =                       -569.6743477237571369
  Basis Set: (AUG-CC-PVTZ AUX)
    Blend: AUG-CC-PVTZ-RI
    Molecular point group: c1

    Geometry (in Angstrom), charge = 0, multiplicity = 1:

       Center              X                  Y                   Z               Mass
    ------------   -----------------  -----------------  -----------------  -----------------
         O           -0.116335412628    -1.800535172362     0.454161391849    15.994914619570
         O            0.356863587372     1.393741827638    -1.025389608151    15.994914619570
         O           -1.956721412628     1.371083827638     0.468371391849    15.994914619570
         O            2.713249587372     0.450336827638    -0.206378608151    15.994914619570
         O           -1.673196412628    -0.800468172362    -0.999196608151    15.994914619570
         C            0.437896587372     1.021974927638     0.355259191849    12.000000000000
         C           -0.910897412628     0.474032827638     0.839358391849    12.000000000000
         C            1.532944587372    -0.029136172362     0.419691391849    12.000000000000
         C           -1.216708412628    -0.936684172362     0.339006391849    12.000000000000
         C            1.065106987372    -1.322579972362    -0.226687008151    12.000000000000
         H            0.702690587372     1.887210827638     0.959876391849     1.007825032230
         H           -0.883448412628     0.432027827638     1.934625391849     1.007825032230
         H            1.782210587372    -0.231873172362     1.467328391849     1.007825032230
         H           -1.995517412628    -1.397106172362     0.961060391849     1.007825032230
         H            0.842036587372    -1.147778172362    -1.290679608151     1.007825032230
         H            1.804348587372    -2.101630172362    -0.127224608151     1.007825032230
         H           -0.394617412628     2.011873827638    -1.084381608151     1.007825032230
         H           -2.343273412628     0.976454827638    -0.340785608151     1.007825032230
         H            2.398134587372     0.935053827638    -0.993514608151     1.007825032230
         H           -1.997207412628    -1.676502172362    -1.279206608151     1.007825032230

  Basis Set: AUG-CC-PVTZ
    Blend: AUG-CC-PVTZ
  Basis Set: (AUG-CC-PVTZ AUX)
    Blend: AUG-CC-PVTZ-JKFIT
	 Reference Energy          =    -569.6743477237571369 [Eh]
	 Singles Energy            =      -0.0000000000000000 [Eh]
	 Same-Spin Energy          =      -0.5544935444867497 [Eh]
	 Opposite-Spin Energy      =      -1.7038987265011261 [Eh]
	 Correlation Energy        =      -2.2583922709878759 [Eh]
	 Total Energy              =    -571.9327399947450203 [Eh]

	 ================> DF-SCS-MP2 Energies <==================
	-----------------------------------------------------------
	 SCS Same-Spin Scale       =       0.3333333333333333 [-]
	 SCS Opposite-Spin Scale   =       1.2000000000000000 [-]
	 SCS Same-Spin Energy      =      -0.1848311814955832 [Eh]
	 SCS Opposite-Spin Energy  =      -2.0446784718013511 [Eh]
	 SCS Correlation Energy    =      -2.2295096532969345 [Eh]
	 SCS Total Energy          =    -571.9038573770541234 [Eh]
	-----------------------------------------------------------

  Dipole Moment: [D]
     X:    -2.1475      Y:    -0.9864      Z:    -0.2840     Total:     2.3802

*** Psi4 exiting successfully. Buy a developer a beer!
