                               Psi4 1.3.2 release

  ==> Input File <==

--------------------------------------------------------------------------
#psi4
#
memory 32 gb

molecule  {
0 1
  O       -0.1147700    -1.8002930     0.4548730
  O        0.3584290     1.3939840    -1.0246780
  O       -1.9551560     1.3713260     0.4690830
  O        2.7208993     0.4494541    -0.1949355
  O       -1.6716310    -0.8002260    -0.9984850
  C        0.4315910     1.0135520     0.3497470
  C       -0.9093320     0.4742750     0.8400700
  C        1.5345100    -0.0288940     0.4204030
  C       -1.2151430    -0.9364420     0.3397180
  C        1.0549700    -1.3167000    -0.2286510
  H        0.7042560     1.8874530     0.9605880
  H       -0.8818830     0.4322700     1.9353370
  H        1.7927597    -0.2287891     1.4664088
  H       -1.9939520    -1.3968640     0.9617720
  H        0.8436020    -1.1475360    -1.2899680
  H        1.8059140    -2.1013880    -0.1265130
  H       -0.3930520     2.0121160    -1.0836700
  H       -2.3417080     0.9766970    -0.3400740
  H        2.3997000     0.9352960    -0.9928030
  H       -1.9956420    -1.6762600    -1.2784950
units angstrom
no_reorient  #important for SAPT in psi4, default
symmetry c1  #important for SAPT in psi4, default
}

set PROPERTIES_ORIGIN ["COM"]
properties('MP2/aug-cc-pvtz', properties = ['dipole'])
--------------------------------------------------------------------------

    Molecular point group: c1
  Charge       = 0
  Multiplicity = 1
  Basis Set: AUG-CC-PVTZ
    Blend: AUG-CC-PVTZ
  Basis Set: (AUG-CC-PVTZ AUX)
    Blend: AUG-CC-PVTZ-JKFIT

    Orbital Energies [Eh]
    ---------------------

    Doubly Occupied:

       1A    -20.591668     2A    -20.580846     3A    -20.574720
       4A    -20.571486     5A    -20.559339     6A    -11.353929
       7A    -11.298462     8A    -11.291180     9A    -11.285342
      10A    -11.278300    11A     -1.438783    12A     -1.391326
      13A     -1.375276    14A     -1.353860    15A     -1.346895
      16A     -1.058759    17A     -1.022806    18A     -0.898737
      19A     -0.869581    20A     -0.798081    21A     -0.752382
      22A     -0.727620    23A     -0.711950    24A     -0.695944
      25A     -0.668772    26A     -0.645223    27A     -0.621215
      28A     -0.614206    29A     -0.602923    30A     -0.583757
      31A     -0.571931    32A     -0.556024    33A     -0.542661
      34A     -0.516123    35A     -0.502679    36A     -0.491191
      37A     -0.487702    38A     -0.471742    39A     -0.440626
      40A     -0.415896

  @DF-RHF Final Energy:  -569.67362912597457

   => Energetics <=

    Nuclear Repulsion Energy =            633.6513348717508052
    One-Electron Energy =               -2041.5300420865319211
    Two-Electron Energy =                 838.2050780888065447
    Total Energy =                       -569.6736291259745713
  Basis Set: (AUG-CC-PVTZ AUX)
    Blend: AUG-CC-PVTZ-RI
    Molecular point group: c1

    Geometry (in Angstrom), charge = 0, multiplicity = 1:

       Center              X                  Y                   Z               Mass
    ------------   -----------------  -----------------  -----------------  -----------------
         O           -0.115478987935    -1.800192252180     0.453740122455    15.994914619570
         O            0.357720012065     1.394084747820    -1.025810877545    15.994914619570
         O           -1.955864987935     1.371426747820     0.467950122455    15.994914619570
         O            2.720190312065     0.449554847820    -0.196068377545    15.994914619570
         O           -1.672339987935    -0.800125252180    -0.999617877545    15.994914619570
         C            0.430882012065     1.013652747820     0.348614122455    12.000000000000
         C           -0.910040987935     0.474375747820     0.838937122455    12.000000000000
         C            1.533801012065    -0.028793252180     0.419270122455    12.000000000000
         C           -1.215851987935    -0.936341252180     0.338585122455    12.000000000000
         C            1.054261012065    -1.316599252180    -0.229783877545    12.000000000000
         H            0.703547012065     1.887553747820     0.959455122455     1.007825032230
         H           -0.882591987935     0.432370747820     1.934204122455     1.007825032230
         H            1.792050712065    -0.228688352180     1.465275922455     1.007825032230
         H           -1.994660987935    -1.396763252180     0.960639122455     1.007825032230
         H            0.842893012065    -1.147435252180    -1.291100877545     1.007825032230
         H            1.805205012065    -2.101287252180    -0.127645877545     1.007825032230
         H           -0.393760987935     2.012216747820    -1.084802877545     1.007825032230
         H           -2.342416987935     0.976797747820    -0.341206877545     1.007825032230
         H            2.398991012065     0.935396747820    -0.993935877545     1.007825032230
         H           -1.996350987935    -1.676159252180    -1.279627877545     1.007825032230

  Basis Set: AUG-CC-PVTZ
    Blend: AUG-CC-PVTZ
  Basis Set: (AUG-CC-PVTZ AUX)
    Blend: AUG-CC-PVTZ-JKFIT
	 Reference Energy          =    -569.6736291259745713 [Eh]
	 Singles Energy            =      -0.0000000000000000 [Eh]
	 Same-Spin Energy          =      -0.5547879149754643 [Eh]
	 Opposite-Spin Energy      =      -1.7043377027102311 [Eh]
	 Correlation Energy        =      -2.2591256176856955 [Eh]
	 Total Energy              =    -571.9327547436602117 [Eh]

	 ================> DF-SCS-MP2 Energies <==================
	-----------------------------------------------------------
	 SCS Same-Spin Scale       =       0.3333333333333333 [-]
	 SCS Opposite-Spin Scale   =       1.2000000000000000 [-]
	 SCS Same-Spin Energy      =      -0.1849293049918214 [Eh]
	 SCS Opposite-Spin Energy  =      -2.0452052432522771 [Eh]
	 SCS Correlation Energy    =      -2.2301345482440986 [Eh]
	 SCS Total Energy          =    -571.9037636742186805 [Eh]
	-----------------------------------------------------------

  Dipole Moment: [D]
     X:    -2.1908      Y:    -0.9927      Z:    -0.3170     Total:     2.4261

*** Psi4 exiting successfully. Buy a developer a beer!
