                               Psi4 1.3.2 release

  ==> Input File <==

--------------------------------------------------------------------------
#psi4
#
memory 32 gb

molecule  {
0 1
  O       -0.1147700    -1.8002930     0.4548730
  O        0.3584290     1.3939840    -1.0246780
  O       -1.9551560     1.3713260     0.4690830
  O        2.7148150     0.4505790    -0.2056670
  O       -1.6702069    -0.7879397    -0.9976628
  C        0.4315910     1.0135520     0.3497470
  C       -0.9130211     0.4792057     0.8282454
  C        1.5345100    -0.0288940     0.4204030
  C       -1.2151430    -0.9364420     0.3397180
  C        1.0549700    -1.3167000    -0.2286510
  H        0.7042560     1.8874530     0.9605880
  H       -0.8818830     0.4322700     1.9353370
  H        1.7837760    -0.2316310     1.4680400
  H       -1.9939520    -1.3968640     0.9617720
  H        0.8436020    -1.1475360    -1.2899680
  H        1.8059140    -2.1013880    -0.1265130
  H       -0.3930520     2.0121160    -1.0836700
  H       -2.3417080     0.9766970    -0.3400740
  H        2.3997000     0.9352960    -0.9928030
  H       -1.9956420    -1.6762600    -1.2784950
units angstrom
no_reorient  #important for SAPT in psi4, default
symmetry c1  #important for SAPT in psi4, default
}

set PROPERTIES_ORIGIN ["COM"]
properties('MP2/aug-cc-pvtz', properties = ['dipole'])
--------------------------------------------------------------------------

    Molecular point group: c1
  Charge       = 0
  Multiplicity = 1
  Basis Set: AUG-CC-PVTZ
    Blend: AUG-CC-PVTZ
  Basis Set: (AUG-CC-PVTZ AUX)
    Blend: AUG-CC-PVTZ-JKFIT

    Orbital Energies [Eh]
    ---------------------

    Doubly Occupied:

       1A    -20.592963     2A    -20.581226     3A    -20.575281
       4A    -20.570703     5A    -20.558333     6A    -11.353636
       7A    -11.298070     8A    -11.290587     9A    -11.285690
      10A    -11.278256    11A     -1.438598    12A     -1.392181
      13A     -1.377237    14A     -1.353507    15A     -1.348039
      16A     -1.058550    17A     -1.022267    18A     -0.898281
      19A     -0.869642    20A     -0.797215    21A     -0.752465
      22A     -0.726792    23A     -0.712401    24A     -0.696402
      25A     -0.669730    26A     -0.645883    27A     -0.621089
      28A     -0.614453    29A     -0.602581    30A     -0.585051
      31A     -0.571676    32A     -0.556073    33A     -0.542675
      34A     -0.515493    35A     -0.502747    36A     -0.491199
      37A     -0.486537    38A     -0.471824    39A     -0.440318
      40A     -0.415716

  @DF-RHF Final Energy:  -569.67314419409752

   => Energetics <=

    Nuclear Repulsion Energy =            634.0866566293018423
    One-Electron Energy =               -2042.3968714703066780
    Two-Electron Energy =                 838.6370706469073184
    Total Energy =                       -569.6731441940975174
  Basis Set: (AUG-CC-PVTZ AUX)
    Blend: AUG-CC-PVTZ-RI
    Molecular point group: c1

    Geometry (in Angstrom), charge = 0, multiplicity = 1:

       Center              X                  Y                   Z               Mass
    ------------   -----------------  -----------------  -----------------  -----------------
         O           -0.114626870022    -1.801997051682     0.455731085614    15.994914619570
         O            0.358572129978     1.392279948318    -1.023819914386    15.994914619570
         O           -1.955012870022     1.369621948318     0.469941085614    15.994914619570
         O            2.714958129978     0.448874948318    -0.204808914386    15.994914619570
         O           -1.670063770022    -0.789643751682    -0.996804714386    15.994914619570
         C            0.431734129978     1.011847948318     0.350605085614    12.000000000000
         C           -0.912877970022     0.477501648318     0.829103485614    12.000000000000
         C            1.534653129978    -0.030598051682     0.421261085614    12.000000000000
         C           -1.214999870022    -0.938146051682     0.340576085614    12.000000000000
         C            1.055113129978    -1.318404051682    -0.227792914386    12.000000000000
         H            0.704399129978     1.885748948318     0.961446085614     1.007825032230
         H           -0.881739870022     0.430565948318     1.936195085614     1.007825032230
         H            1.783919129978    -0.233335051682     1.468898085614     1.007825032230
         H           -1.993808870022    -1.398568051682     0.962630085614     1.007825032230
         H            0.843745129978    -1.149240051682    -1.289109914386     1.007825032230
         H            1.806057129978    -2.103092051682    -0.125654914386     1.007825032230
         H           -0.392908870022     2.010411948318    -1.082811914386     1.007825032230
         H           -2.341564870022     0.974992948318    -0.339215914386     1.007825032230
         H            2.399843129978     0.933591948318    -0.991944914386     1.007825032230
         H           -1.995498870022    -1.677964051682    -1.277636914386     1.007825032230

  Basis Set: AUG-CC-PVTZ
    Blend: AUG-CC-PVTZ
  Basis Set: (AUG-CC-PVTZ AUX)
    Blend: AUG-CC-PVTZ-JKFIT
	 Reference Energy          =    -569.6731441940975174 [Eh]
	 Singles Energy            =      -0.0000000000000000 [Eh]
	 Same-Spin Energy          =      -0.5549145035899867 [Eh]
	 Opposite-Spin Energy      =      -1.7044322943391983 [Eh]
	 Correlation Energy        =      -2.2593467979291848 [Eh]
	 Total Energy              =    -571.9324909920267146 [Eh]

	 ================> DF-SCS-MP2 Energies <==================
	-----------------------------------------------------------
	 SCS Same-Spin Scale       =       0.3333333333333333 [-]
	 SCS Opposite-Spin Scale   =       1.2000000000000000 [-]
	 SCS Same-Spin Energy      =      -0.1849715011966622 [Eh]
	 SCS Opposite-Spin Energy  =      -2.0453187532070380 [Eh]
	 SCS Correlation Energy    =      -2.2302902544037004 [Eh]
	 SCS Total Energy          =    -571.9034344485012298 [Eh]
	-----------------------------------------------------------

  Dipole Moment: [D]
     X:    -2.1989      Y:    -1.0058      Z:    -0.3275     Total:     2.4401

*** Psi4 exiting successfully. Buy a developer a beer!
