                               Psi4 1.3.2 release

  ==> Input File <==

--------------------------------------------------------------------------
#psi4
#
memory 32 gb

molecule  {
0 1
  O       -0.1147700    -1.8002930     0.4548730
  O        0.3584290     1.3939840    -1.0246780
  O       -1.9551560     1.3713260     0.4690830
  O        2.7148150     0.4505790    -0.2056670
  O       -1.6716310    -0.8002260    -0.9984850
  C        0.4315910     1.0135520     0.3497470
  C       -0.9093320     0.4742750     0.8400700
  C        1.5771947    -0.0597541     0.4728300
  C       -1.2151430    -0.9364420     0.3397180
  C        1.0549700    -1.3167000    -0.2286510
  H        0.7042560     1.8874530     0.9605880
  H       -0.8818830     0.4322700     1.9353370
  H        1.7837760    -0.2316310     1.4680400
  H       -1.9939520    -1.3968640     0.9617720
  H        0.8436020    -1.1475360    -1.2899680
  H        1.8059140    -2.1013880    -0.1265130
  H       -0.3930520     2.0121160    -1.0836700
  H       -2.3417080     0.9766970    -0.3400740
  H        2.4484295     0.9458009    -1.0041814
  H       -1.9956420    -1.6762600    -1.2784950
units angstrom
no_reorient  #important for SAPT in psi4, default
symmetry c1  #important for SAPT in psi4, default
}

set PROPERTIES_ORIGIN ["COM"]
properties('MP2/aug-cc-pvtz', properties = ['dipole'])
--------------------------------------------------------------------------

    Molecular point group: c1
  Charge       = 0
  Multiplicity = 1
  Basis Set: AUG-CC-PVTZ
    Blend: AUG-CC-PVTZ
  Basis Set: (AUG-CC-PVTZ AUX)
    Blend: AUG-CC-PVTZ-JKFIT

    Orbital Energies [Eh]
    ---------------------

    Doubly Occupied:

       1A    -20.590764     2A    -20.580159     3A    -20.572720
       4A    -20.569630     5A    -20.555543     6A    -11.352728
       7A    -11.296285     8A    -11.290896     9A    -11.286161
      10A    -11.278341    11A     -1.437552    12A     -1.387903
      13A     -1.373005    14A     -1.352588    15A     -1.345136
      16A     -1.052217    17A     -1.022177    18A     -0.893854
      19A     -0.872395    20A     -0.801745    21A     -0.751674
      22A     -0.723104    23A     -0.709936    24A     -0.694188
      25A     -0.671070    26A     -0.648407    27A     -0.620841
      28A     -0.610365    29A     -0.603742    30A     -0.592713
      31A     -0.570371    32A     -0.551315    33A     -0.542265
      34A     -0.514827    35A     -0.501433    36A     -0.490281
      37A     -0.486390    38A     -0.470304    39A     -0.433652
      40A     -0.411468

  @DF-RHF Final Energy:  -569.66899058261197

   => Energetics <=

    Nuclear Repulsion Energy =            632.4436113206668324
    One-Electron Energy =               -2039.2049202545388198
    Two-Electron Energy =                 837.0923183512600190
    Total Energy =                       -569.6689905826119684
  Basis Set: (AUG-CC-PVTZ AUX)
    Blend: AUG-CC-PVTZ-RI
    Molecular point group: c1

    Geometry (in Angstrom), charge = 0, multiplicity = 1:

       Center              X                  Y                   Z               Mass
    ------------   -----------------  -----------------  -----------------  -----------------
         O           -0.118510955897    -1.797895690546     0.450756832362    15.994914619570
         O            0.354688044103     1.396381309454    -1.028794167638    15.994914619570
         O           -1.958896955897     1.373723309454     0.464966832362    15.994914619570
         O            2.711074044103     0.452976309454    -0.209783167638    15.994914619570
         O           -1.675371955897    -0.797828690546    -1.002601167638    15.994914619570
         C            0.427850044103     1.015949309454     0.345630832362    12.000000000000
         C           -0.913072955897     0.476672309454     0.835953832362    12.000000000000
         C            1.573453744103    -0.057356790546     0.468713832362    12.000000000000
         C           -1.218883955897    -0.934044690546     0.335601832362    12.000000000000
         C            1.051229044103    -1.314302690546    -0.232767167638    12.000000000000
         H            0.700515044103     1.889850309454     0.956471832362     1.007825032230
         H           -0.885623955897     0.434667309454     1.931220832362     1.007825032230
         H            1.780035044103    -0.229233690546     1.463923832362     1.007825032230
         H           -1.997692955897    -1.394466690546     0.957655832362     1.007825032230
         H            0.839861044103    -1.145138690546    -1.294084167638     1.007825032230
         H            1.802173044103    -2.098990690546    -0.130629167638     1.007825032230
         H           -0.396792955897     2.014513309454    -1.087786167638     1.007825032230
         H           -2.345448955897     0.979094309454    -0.344190167638     1.007825032230
         H            2.444688544103     0.948198209454    -1.008297567638     1.007825032230
         H           -1.999382955897    -1.673862690546    -1.282611167638     1.007825032230

  Basis Set: AUG-CC-PVTZ
    Blend: AUG-CC-PVTZ
  Basis Set: (AUG-CC-PVTZ AUX)
    Blend: AUG-CC-PVTZ-JKFIT
	 Reference Energy          =    -569.6689905826119684 [Eh]
	 Singles Energy            =      -0.0000000000000000 [Eh]
	 Same-Spin Energy          =      -0.5540776368939522 [Eh]
	 Opposite-Spin Energy      =      -1.7032251116800805 [Eh]
	 Correlation Energy        =      -2.2573027485740327 [Eh]
	 Total Energy              =    -571.9262933311860024 [Eh]

	 ================> DF-SCS-MP2 Energies <==================
	-----------------------------------------------------------
	 SCS Same-Spin Scale       =       0.3333333333333333 [-]
	 SCS Opposite-Spin Scale   =       1.2000000000000000 [-]
	 SCS Same-Spin Energy      =      -0.1846925456313174 [Eh]
	 SCS Opposite-Spin Energy  =      -2.0438701340160965 [Eh]
	 SCS Correlation Energy    =      -2.2285626796474141 [Eh]
	 SCS Total Energy          =    -571.8975532622594073 [Eh]
	-----------------------------------------------------------

  Dipole Moment: [D]
     X:    -2.0358      Y:    -1.0192      Z:    -0.2739     Total:     2.2931

*** Psi4 exiting successfully. Buy a developer a beer!
